# vtk DataFile Version 2.0
Tobias Weinzierl: CPU, Manycore and Cluster Computing
ASCII

DATASET STRUCTURED_POINTS
DIMENSIONS  51 11 6

ORIGIN 0 0 0 

SPACING 0.1 0.1 0.1 

POINT_DATA 3366

VECTORS velocity float
0 0 0
-8.61043e-15 0 0
-6.22855e-09 0 0
-8.59602e-09 0 0
-7.25522e-09 0 0
-2.39235e-09 0 0
-2.48573e-09 0 0
-4.32454e-09 0 0
-6.15111e-09 0 0
-7.14934e-09 0 0
-7.26525e-09 0 0
-7.08169e-09 0 0
-6.92781e-09 0 0
-6.86967e-09 0 0
-6.88898e-09 0 0
-6.94955e-09 0 0
-7.02089e-09 0 0
-7.08598e-09 0 0
-7.13852e-09 0 0
-7.17812e-09 0 0
-7.20674e-09 0 0
-7.22692e-09 0 0
-7.24096e-09 0 0
-7.25065e-09 0 0
-7.25733e-09 0 0
-7.26194e-09 0 0
-7.26513e-09 0 0
-7.26735e-09 0 0
-7.26891e-09 0 0
-7.27e-09 0 0
-7.27077e-09 0 0
-7.27131e-09 0 0
-7.2717e-09 0 0
-7.27198e-09 0 0
-7.27217e-09 0 0
-7.27232e-09 0 0
-7.27242e-09 0 0
-7.27249e-09 0 0
-7.27254e-09 0 0
-7.27258e-09 0 0
-7.2726e-09 0 0
-7.27262e-09 0 0
-7.27264e-09 0 0
-7.27264e-09 0 0
-7.27265e-09 0 0
-7.27266e-09 0 0
-7.27266e-09 0 0
-7.27266e-09 0 0
-7.27267e-09 0 0
-7.27268e-09 0 0
0.00346614 0 0
0 7.78375e-09 0
8.05162e-15 3.85219e-09 0
-1.23546e-08 5.66964e-09 0
-1.67145e-08 2.72444e-09 0
-1.29466e-08 5.26856e-10 0
-3.98867e-09 1.09085e-09 0
-3.11961e-09 3.27307e-09 0
-5.41137e-09 3.07521e-09 0
-7.43022e-09 1.9997e-09 0
-9.21567e-09 9.066e-10 0
-9.70953e-09 1.72105e-10 0
-9.91295e-09 -1.67808e-11 0
-1.02538e-08 1.54128e-11 0
-1.06676e-08 7.80899e-11 0
-1.10814e-08 1.22688e-10 0
-1.14484e-08 1.37736e-10 0
-1.17442e-08 1.28828e-10 0
-1.1966e-08 1.07939e-10 0
-1.21246e-08 8.43921e-11 0
-1.22342e-08 6.30992e-11 0
-1.23085e-08 4.58289e-11 0
-1.23583e-08 3.26765e-11 0
-1.23916e-08 2.3043e-11 0
-1.24138e-08 1.61566e-11 0
-1.24288e-08 1.13053e-11 0
-1.24389e-08 7.91458e-12 0
-1.24458e-08 5.55211e-12 0
-1.24505e-08 3.906e-12 0
-1.24538e-08 2.75661e-12 0
-1.24562e-08 1.95145e-12 0
-1.24578e-08 1.38531e-12 0
-1.24589e-08 9.85748e-13 0
-1.24598e-08 7.02766e-13 0
-1.24604e-08 5.01743e-13 0
-1.24608e-08 3.58585e-13 0
-1.24611e-08 2.56433e-13 0
-1.24613e-08 1.83436e-13 0
-1.24615e-08 1.31218e-13 0
-1.24616e-08 9.38396e-14 0
-1.24617e-08 6.7075e-14 0
-1.24617e-08 4.79074e-14 0
-1.24618e-08 3.41804e-14 0
-1.24618e-08 2.43497e-14 0
-1.24618e-08 1.73131e-14 0
-1.24618e-08 1.22907e-14 0
-1.24618e-08 8.73042e-15 0
-1.24618e-08 6.28449e-15 0
-1.24618e-08 5.29539e-15 0
-1.24619e-08 9.80949e-15 0
-1.24619e-08 2.97893e-14 0
0.00863607 -7.88115e-09 0
0 1.11061e-09 0
7.25454e-14 5.02739e-09 0
-1.09798e-08 6.51962e-09 0
-1.43512e-08 2.27121e-09 0
-7.45684e-09 9.17329e-10 0
-3.48536e-09 1.34995e-09 0
-4.83762e-09 2.44978e-09 0
-6.97854e-09 7.77092e-10 0
-5.68721e-09 -6.98396e-11 0
-5.30752e-09 1.03691e-09 0
-5.16818e-09 1.62553e-09 0
-5.39806e-09 2.03507e-09 0
-6.0663e-09 1.92127e-09 0
-6.757e-09 1.51079e-09 0
-7.36873e-09 1.11107e-09 0
-7.86593e-09 7.97169e-10 0
-8.23781e-09 5.61214e-10 0
-8.49886e-09 3.88294e-10 0
-8.67446e-09 2.64858e-10 0
-8.78953e-09 1.78855e-10 0
-8.86393e-09 1.201e-10 0
-8.91186e-09 8.05249e-11 0
-8.94286e-09 5.40994e-11 0
-8.96309e-09 3.65194e-11 0
-8.97646e-09 2.4817e-11 0
-8.98542e-09 1.69957e-11 0
-8.99151e-09 1.1734e-11 0
-8.99571e-09 8.16521e-12 0
-8.99864e-09 5.72307e-12 0
-9.0007e-09 4.03691e-12 0
-9.00216e-09 2.86286e-12 0
-9.00321e-09 2.03918e-12 0
-9.00396e-09 1.45752e-12 0
-9.0045e-09 1.04454e-12 0
-9.00489e-09 7.50026e-13 0
-9.00518e-09 5.39282e-13 0
-9.00538e-09 3.88087e-13 0
-9.00553e-09 2.79408e-13 0
-9.00564e-09 2.01186e-13 0
-9.00572e-09 1.44835e-13 0
-9.00578e-09 1.04221e-13 0
-9.00582e-09 7.49455e-14 0
-9.00585e-09 5.38565e-14 0
-9.00587e-09 3.87081e-14 0
-9.00589e-09 2.7958e-14 0
-9.0059e-09 2.07199e-14 0
-9.00591e-09 1.68242e-14 0
-9.00591e-09 1.67102e-14 0
-9.00592e-09 2.00017e-14 0
-9.00593e-09 2.68105e-14 0
0.0105894 -7.99692e-09 0
0 -8.54368e-09 0
1.21927e-13 3.20153e-09 0
-9.67901e-09 2.15156e-09 0
-1.34112e-08 -2.96227e-09 0
-5.72559e-09 -1.07215e-09 0
-1.88904e-09 8.40137e-10 0
-4.20376e-09 -1.71834e-14 0
-5.89171e-09 -5.02717e-09 0
-1.10067e-08 -8.1097e-09 0
-9.30127e-09 -3.38267e-09 0
-7.90483e-09 1.04009e-09 0
-7.16021e-09 3.15329e-09 0
-6.87831e-09 3.28538e-09 0
-6.73003e-09 2.53217e-09 0
-6.76225e-09 1.79905e-09 0
-6.89339e-09 1.24358e-09 0
-7.03355e-09 8.42333e-10 0
-7.14492e-09 5.61587e-10 0
-7.22284e-09 3.70679e-10 0
-7.27428e-09 2.43652e-10 0
-7.30754e-09 1.6031e-10 0
-7.32909e-09 1.06011e-10 0
-7.34329e-09 7.06671e-11 0
-7.35286e-09 4.75722e-11 0
-7.35945e-09 3.23666e-11 0
-7.36408e-09 2.22547e-11 0
-7.36739e-09 1.54536e-11 0
-7.36978e-09 1.08256e-11 0
-7.37152e-09 7.6408e-12 0
-7.37279e-09 5.42651e-12 0
-7.37372e-09 3.87313e-12 0
-7.3744e-09 2.77513e-12 0
-7.3749e-09 1.99422e-12 0
-7.37527e-09 1.43609e-12 0
-7.37553e-09 1.0357e-12 0
-7.37573e-09 7.47642e-13 0
-7.37587e-09 5.39982e-13 0
-7.37598e-09 3.90068e-13 0
-7.37605e-09 2.81741e-13 0
-7.37611e-09 2.03422e-13 0
-7.37615e-09 1.46786e-13 0
-7.37618e-09 1.05835e-13 0
-7.3762e-09 7.62539e-14 0
-7.37622e-09 5.49464e-14 0
-7.37623e-09 3.96923e-14 0
-7.37623e-09 2.88841e-14 0
-7.37624e-09 2.14214e-14 0
-7.37624e-09 1.67676e-14 0
-7.37624e-09 1.51797e-14 0
-7.37624e-09 1.66393e-14 0
0.0108645 -5.35501e-09 0
0 -1.63537e-08 0
1.22128e-13 7.92579e-10 0
-1.01556e-08 -1.40178e-09 0
-1.50245e-08 -4.21697e-09 0
-9.66026e-09 -2.06071e-09 0
-3.11147e-14 -3.81342e-11 0
-4.35131e-13 -4.74459e-13 0
4.05339e-13 -4.74835e-13 0
-6.59857e-09 -4.57292e-09 0
-1.10068e-08 -6.35721e-09 0
-9.63261e-09 -1.10857e-09 0
-9.42464e-09 2.19106e-09 0
-9.00405e-09 2.7973e-09 0
-8.2359e-09 2.25381e-09 0
-7.68243e-09 1.67908e-09 0
-7.38653e-09 1.19751e-09 0
-7.2398e-09 8.18249e-10 0
-7.16574e-09 5.4357e-10 0
-7.12673e-09 3.56713e-10 0
-7.10561e-09 2.34029e-10 0
-7.09426e-09 1.54688e-10 0
-7.0885e-09 1.03452e-10 0
-7.08592e-09 7.01197e-11 0
-7.08511e-09 4.81626e-11 0
-7.08522e-09 3.34828e-11 0
-7.08574e-09 2.35192e-11 0
-7.0864e-09 1.66608e-11 0
-7.08705e-09 1.18814e-11 0
-7.08762e-09 8.51646e-12 0
-7.0881e-09 6.12776e-12 0
-7.08849e-09 4.42116e-12 0
-7.08879e-09 3.19593e-12 0
-7.08902e-09 2.31313e-12 0
-7.0892e-09 1.67543e-12 0
-7.08933e-09 1.21396e-12 0
-7.08943e-09 8.79644e-13 0
-7.0895e-09 6.37273e-13 0
-7.08955e-09 4.61505e-13 0
-7.08959e-09 3.34027e-13 0
-7.08962e-09 2.4158e-13 0
-7.08964e-09 1.74549e-13 0
-7.08966e-09 1.2595e-13 0
-7.08967e-09 9.07033e-14 0
-7.08967e-09 6.51067e-14 0
-7.08968e-09 4.64848e-14 0
-7.08968e-09 3.29492e-14 0
-7.08969e-09 2.31989e-14 0
-7.08968e-09 1.63691e-14 0
-7.08968e-09 1.20881e-14 0
-7.08969e-09 9.78096e-15 0
0.010892 -2.50564e-09 0
0 -1.44809e-08 0
1.18924e-13 -6.30666e-10 0
-1.03252e-08 -2.31736e-09 0
-1.58198e-08 -3.65587e-09 0
-1.23225e-08 -3.61409e-09 0
-3.9204e-09 -1.64492e-09 0
-4.29161e-13 4.11684e-13 0
-6.34525e-15 6.34525e-15 0
3.80805e-13 -4.29873e-13 0
-4.94671e-09 -2.53049e-09 0
-7.07884e-09 -1.57517e-09 0
-9.86073e-09 2.70064e-09 0
-1.08189e-08 2.85272e-09 0
-9.8248e-09 1.82729e-09 0
-8.70761e-09 1.21433e-09 0
-7.98396e-09 8.26875e-10 0
-7.57449e-09 5.51844e-10 0
-7.34832e-09 3.64423e-10 0
-7.22258e-09 2.42461e-10 0
-7.15199e-09 1.64237e-10 0
-7.11211e-09 1.13565e-10 0
-7.08953e-09 7.99852e-11 0
-7.07675e-09 5.71406e-11 0
-7.06953e-09 4.12269e-11 0
-7.06547e-09 2.99342e-11 0
-7.06319e-09 2.18157e-11 0
-7.06192e-09 1.59296e-11 0
-7.06121e-09 1.16404e-11 0
-7.06082e-09 8.50642e-12 0
-7.06061e-09 6.21368e-12 0
-7.06049e-09 4.53589e-12 0
-7.06043e-09 3.30848e-12 0
-7.06039e-09 2.41109e-12 0
-7.06037e-09 1.7555e-12 0
-7.06036e-09 1.27698e-12 0
-7.06036e-09 9.28029e-13 0
-7.06035e-09 6.73792e-13 0
-7.06035e-09 4.88727e-13 0
-7.06035e-09 3.54126e-13 0
-7.06035e-09 2.56301e-13 0
-7.06035e-09 1.85241e-13 0
-7.06035e-09 1.33632e-13 0
-7.06035e-09 9.61329e-14 0
-7.06035e-09 6.88455e-14 0
-7.06035e-09 4.89152e-14 0
-7.06035e-09 3.42317e-14 0
-7.06035e-09 2.3236e-14 0
-7.06035e-09 1.4837e-14 0
-7.06034e-09 8.37535e-15 0
-7.06035e-09 3.23135e-15 0
0.010894 2.49945e-10 0
0 -1.02969e-08 0
1.13745e-13 -1.59538e-09 0
-9.78246e-09 -3.39079e-09 0
-1.56183e-08 -2.84514e-09 0
-1.30277e-08 -2.05262e-09 0
-8.54419e-09 -3.08991e-09 0
-3.93475e-09 -2.08701e-09 0
-4.32951e-13 3.90416e-13 0
-9.61189e-15 9.61189e-15 0
3.63491e-13 -3.98119e-13 0
-2.62715e-09 3.17886e-09 0
-9.79567e-09 6.02078e-09 0
-1.34103e-08 3.71425e-09 0
-1.18312e-08 1.09092e-09 0
-9.60398e-09 3.17396e-10 0
-8.31255e-09 1.69961e-10 0
-7.69733e-09 1.28706e-10 0
-7.40716e-09 1.06119e-10 0
-7.26428e-09 8.99453e-11 0
-7.19042e-09 7.62274e-11 0
-7.15043e-09 6.35056e-11 0
-7.12777e-09 5.17104e-11 0
-7.11438e-09 4.11837e-11 0
-7.10614e-09 3.21829e-11 0
-7.10089e-09 2.47639e-11 0
-7.09746e-09 1.88228e-11 0
-7.09515e-09 1.41694e-11 0
-7.09356e-09 1.05853e-11 0
-7.09246e-09 7.86012e-12 0
-7.09169e-09 5.80845e-12 0
-7.09113e-09 4.27564e-12 0
-7.09074e-09 3.13733e-12 0
-7.09045e-09 2.29602e-12 0
-7.09025e-09 1.6766e-12 0
-7.0901e-09 1.22196e-12 0
-7.08999e-09 8.89114e-13 0
-7.08991e-09 6.45963e-13 0
-7.08985e-09 4.68653e-13 0
-7.08981e-09 3.3955e-13 0
-7.08978e-09 2.45662e-13 0
-7.08976e-09 1.77443e-13 0
-7.08974e-09 1.27894e-13 0
-7.08973e-09 9.18878e-14 0
-7.08972e-09 6.5658e-14 0
-7.08971e-09 4.64198e-14 0
-7.08971e-09 3.20636e-14 0
-7.0897e-09 2.09353e-14 0
-7.0897e-09 1.17552e-14 0
-7.0897e-09 3.64705e-15 0
-7.0897e-09 -3.78582e-15 0
0.010892 2.97261e-09 0
0 -7.47724e-09 0
9.13946e-14 -2.33398e-09 0
-9.39984e-09 -4.06759e-09 0
-1.47472e-08 -2.55364e-09 0
-1.27921e-08 -1.35492e-09 0
-9.42472e-09 -1.68675e-09 0
-8.00902e-09 -4.42508e-09 0
-5.40129e-09 -3.27322e-09 0
-4.5013e-13 3.30703e-13 0
3.38863e-13 2.73288e-13 0
4.00775e-14 6.79225e-09 0
-7.50517e-09 1.1726e-08 0
-1.31998e-08 5.23296e-09 0
-1.23553e-08 -4.0137e-10 0
-9.8307e-09 -1.11856e-09 0
-8.36282e-09 -5.96236e-10 0
-7.765e-09 -2.44163e-10 0
-7.54788e-09 -8.05558e-11 0
-7.46897e-09 -6.59013e-12 0
-7.43706e-09 2.48546e-11 0
-7.42097e-09 3.51162e-11 0
-7.41062e-09 3.52296e-11 0
-7.40287e-09 3.10814e-11 0
-7.39675e-09 2.56666e-11 0
-7.3919e-09 2.03808e-11 0
-7.3881e-09 1.57813e-11 0
-7.38515e-09 1.20126e-11 0
-7.3829e-09 9.03412e-12 0
-7.38119e-09 6.73443e-12 0
-7.37991e-09 4.98703e-12 0
-7.37895e-09 3.67432e-12 0
-7.37824e-09 2.69639e-12 0
-7.37771e-09 1.97243e-12 0
-7.37732e-09 1.43909e-12 0
-7.37704e-09 1.04766e-12 0
-7.37683e-09 7.61269e-13 0
-7.37667e-09 5.52248e-13 0
-7.37656e-09 4.00008e-13 0
-7.37648e-09 2.89313e-13 0
-7.37642e-09 2.08934e-13 0
-7.37637e-09 1.50624e-13 0
-7.37634e-09 1.08337e-13 0
-7.37632e-09 7.76444e-14 0
-7.3763e-09 5.52885e-14 0
-7.37629e-09 3.88475e-14 0
-7.37628e-09 2.64517e-14 0
-7.37627e-09 1.65169e-14 0
-7.37627e-09 7.54186e-15 0
-7.37626e-09 -1.82862e-15 0
-7.37627e-09 -1.18571e-14 0
0.0108645 5.70768e-09 0
0 -7.02616e-09 0
6.1756e-14 -2.62114e-09 0
-9.43885e-09 -4.30851e-09 0
-1.40858e-08 -2.26174e-09 0
-1.30214e-08 -8.92444e-10 0
-1.0684e-08 -1.00689e-09 0
-8.76964e-09 -2.36778e-09 0
-9.87946e-09 -6.26332e-09 0
-8.4618e-09 -4.58436e-09 0
-1.09738e-08 1.60733e-19 0
-1.08291e-08 7.06745e-09 0
-7.01041e-09 1.32618e-08 0
-6.8285e-09 6.47997e-09 0
-8.47263e-09 -1.00313e-09 0
-8.89898e-09 -2.03352e-09 0
-8.91379e-09 -1.01954e-09 0
-8.94892e-09 -3.49923e-10 0
-8.99881e-09 -8.00698e-11 0
-9.03326e-09 1.15159e-11 0
-9.04878e-09 3.68784e-11 0
-9.05151e-09 3.91674e-11 0
-9.04764e-09 3.41964e-11 0
-9.04121e-09 2.76732e-11 0
-9.03442e-09 2.15648e-11 0
-9.02826e-09 1.64428e-11 0
-9.02308e-09 1.2364e-11 0
-9.01892e-09 9.20839e-12 0
-9.01567e-09 6.81069e-12 0
-9.01318e-09 5.01101e-12 0
-9.0113e-09 3.67191e-12 0
-9.00989e-09 2.68193e-12 0
-9.00884e-09 1.95366e-12 0
-9.00806e-09 1.41997e-12 0
-9.00749e-09 1.0301e-12 0
-9.00706e-09 7.46015e-13 0
-9.00676e-09 5.39453e-13 0
-9.00653e-09 3.89535e-13 0
-9.00637e-09 2.80899e-13 0
-9.00625e-09 2.02282e-13 0
-9.00616e-09 1.45454e-13 0
-9.00609e-09 1.04406e-13 0
-9.00605e-09 7.47578e-14 0
-9.00602e-09 5.3313e-14 0
-9.00599e-09 3.77237e-14 0
-9.00597e-09 2.62408e-14 0
-9.00596e-09 1.7497e-14 0
-9.00595e-09 1.02299e-14 0
-9.00595e-09 2.78724e-15 0
-9.00595e-09 -7.55763e-15 0
-9.00595e-09 -2.26311e-14 0
0.0105894 8.09749e-09 0
0 -7.84498e-09 0
3.45177e-14 -1.81312e-09 0
-9.64908e-09 -2.92648e-09 0
-1.40235e-08 -1.53943e-09 0
-1.42329e-08 -7.75829e-10 0
-1.35885e-08 -1.07956e-09 0
-1.2396e-08 -1.7493e-09 0
-1.15058e-08 -1.42197e-09 0
-1.4323e-08 2.43265e-09 0
-1.48673e-08 3.36082e-09 0
-1.53042e-08 -2.06082e-09 0
-1.16088e-08 -4.2792e-09 0
-1.05056e-08 -1.48823e-09 0
-1.22101e-08 1.06614e-09 0
-1.29487e-08 1.56404e-09 0
-1.29086e-08 1.10574e-09 0
-1.27619e-08 6.0788e-10 0
-1.26633e-08 3.06793e-10 0
-1.26051e-08 1.55936e-10 0
-1.25682e-08 8.39902e-11 0
-1.25422e-08 4.87802e-11 0
-1.25226e-08 3.03422e-11 0
-1.25076e-08 1.98673e-11 0
-1.24961e-08 1.3462e-11 0
-1.24873e-08 9.32087e-12 0
-1.24807e-08 6.54016e-12 0
-1.24757e-08 4.62683e-12 0
-1.2472e-08 3.2898e-12 0
-1.24693e-08 2.34631e-12 0
-1.24673e-08 1.67637e-12 0
-1.24658e-08 1.1988e-12 0
-1.24647e-08 8.57526e-13 0
-1.24639e-08 6.13321e-13 0
-1.24634e-08 4.38456e-13 0
-1.24629e-08 3.13224e-13 0
-1.24626e-08 2.23557e-13 0
-1.24624e-08 1.59386e-13 0
-1.24623e-08 1.13493e-13 0
-1.24622e-08 8.06968e-14 0
-1.24621e-08 5.72775e-14 0
-1.2462e-08 4.0563e-14 0
-1.2462e-08 2.86308e-14 0
-1.24619e-08 2.00923e-14 0
-1.24619e-08 1.39333e-14 0
-1.24619e-08 9.38949e-15 0
-1.24619e-08 5.84186e-15 0
-1.24619e-08 2.64814e-15 0
-1.24619e-08 -1.44944e-15 0
-1.24619e-08 -1.06816e-14 0
-1.24619e-08 -3.17899e-14 0
0.00863606 7.62008e-09 0
0 0 0
1.32511e-14 0 0
-4.82255e-09 0 0
-7.04048e-09 0 0
-7.59823e-09 0 0
-7.70542e-09 0 0
-7.70062e-09 0 0
-7.0276e-09 0 0
-5.86125e-09 0 0
-3.89356e-09 0 0
-4.4751e-09 0 0
-7.33742e-09 0 0
-9.41941e-09 0 0
-9.6214e-09 0 0
-8.88755e-09 0 0
-8.16889e-09 0 0
-7.73438e-09 0 0
-7.51386e-09 0 0
-7.40685e-09 0 0
-7.35329e-09 0 0
-7.32443e-09 0 0
-7.30749e-09 0 0
-7.29678e-09 0 0
-7.28964e-09 0 0
-7.28473e-09 0 0
-7.28128e-09 0 0
-7.27883e-09 0 0
-7.27708e-09 0 0
-7.27583e-09 0 0
-7.27494e-09 0 0
-7.27429e-09 0 0
-7.27383e-09 0 0
-7.2735e-09 0 0
-7.27326e-09 0 0
-7.27309e-09 0 0
-7.27297e-09 0 0
-7.27288e-09 0 0
-7.27282e-09 0 0
-7.27278e-09 0 0
-7.27274e-09 0 0
-7.27272e-09 0 0
-7.27271e-09 0 0
-7.2727e-09 0 0
-7.27269e-09 0 0
-7.27268e-09 0 0
-7.27268e-09 0 0
-7.27268e-09 0 0
-7.27268e-09 0 0
-7.27268e-09 0 0
-7.27269e-09 0 0
0.00346614 0 0
0 0 7.5645e-09
3.02435e-14 0 2.37636e-09
-1.32881e-08 0 2.92638e-09
-1.90776e-08 0 -1.69777e-09
-1.68194e-08 0 -6.73053e-09
-6.54881e-10 0 -5.86034e-09
1.39336e-09 0 -1.34088e-09
-1.09905e-09 0 5.90163e-10
-4.24101e-09 0 8.25108e-10
-6.53684e-09 0 2.07544e-10
-7.82059e-09 0 -2.39761e-10
-8.77359e-09 0 -3.20665e-10
-9.6149e-09 0 -2.27426e-10
-1.03188e-08 0 -1.16915e-10
-1.08885e-08 0 -4.2807e-11
-1.13398e-08 0 -5.82368e-12
-1.16837e-08 0 7.59685e-12
-1.19351e-08 0 9.69159e-12
-1.21126e-08 0 7.74509e-12
-1.22349e-08 0 5.11596e-12
-1.23179e-08 0 2.97926e-12
-1.23735e-08 0 1.54268e-12
-1.24108e-08 0 6.82122e-13
-1.24358e-08 0 2.13412e-13
-1.24526e-08 0 -1.62667e-14
-1.24639e-08 0 -1.11684e-13
-1.24717e-08 0 -1.3753e-13
-1.2477e-08 0 -1.30883e-13
-1.24807e-08 0 -1.11628e-13
-1.24833e-08 0 -8.96586e-14
-1.24851e-08 0 -6.9388e-14
-1.24864e-08 0 -5.23938e-14
-1.24874e-08 0 -3.88906e-14
-1.2488e-08 0 -2.85156e-14
-1.24885e-08 0 -2.07212e-14
-1.24888e-08 0 -1.49557e-14
-1.24891e-08 0 -1.07386e-14
-1.24893e-08 0 -7.6787e-15
-1.24894e-08 0 -5.47094e-15
-1.24895e-08 0 -3.88405e-15
-1.24895e-08 0 -2.74425e-15
-1.24896e-08 0 -1.92152e-15
-1.24896e-08 0 -1.31983e-15
-1.24896e-08 0 -8.64596e-16
-1.24897e-08 0 -5.03696e-16
-1.24897e-08 0 -2.34851e-16
-1.24897e-08 0 -1.10076e-16
-1.24897e-08 0 2.85088e-16
-1.24897e-08 0 5.00541e-15
-1.24897e-08 0 2.44988e-14
0.00863413 0 -6.66431e-09
0.0036 5.77089e-09 4.53933e-09
0.00359999 -0.00267464 -0.00105408
0.00948016 -0.00672853 -0.00264297
0.0189076 -0.00909068 -0.00334647
0.0304377 -0.011252 -0.00334142
0.0464664 -0.00691638 -0.00185049
0.0478783 3.88868e-05 -0.000133111
0.0471795 0.00292135 0.000363895
0.0418084 0.00446816 0.000234149
0.0363897 0.00425515 -0.00011544
0.0317117 0.00348584 -0.000242483
0.0280892 0.00258721 -0.000208292
0.0255798 0.00177539 -0.000132706
0.0239694 0.00115229 -7.07466e-05
0.0229794 0.000720692 -3.29939e-05
0.0223887 0.000437951 -1.36883e-05
0.0220457 0.000259321 -5.02651e-06
0.0218518 0.000149824 -1.57663e-06
0.0217454 8.44916e-05 -3.8445e-07
0.0216888 4.64609e-05 -5.98666e-08
0.0216601 2.48329e-05 -1.89868e-08
0.0216463 1.28167e-05 -4.43969e-08
0.0216403 6.30639e-06 -6.85223e-08
0.0216383 2.88178e-06 -7.80284e-08
0.021638 1.14778e-06 -7.56583e-08
0.0216385 3.16734e-07 -6.67692e-08
0.0216393 -4.69299e-08 -5.55166e-08
0.02164 -1.78732e-07 -4.43644e-08
0.0216406 -2.02713e-07 -3.44955e-08
0.0216411 -1.82018e-07 -2.63089e-08
0.0216415 -1.47275e-07 -1.97893e-08
0.0216418 -1.1223e-07 -1.47366e-08
0.021642 -8.21791e-08 -1.08938e-08
0.0216421 -5.84271e-08 -8.00979e-09
0.0216423 -4.05628e-08 -5.86598e-09
0.0216423 -2.75779e-08 -4.28346e-09
0.0216424 -1.83803e-08 -3.12127e-09
0.0216424 -1.20024e-08 -2.27119e-09
0.0216424 -7.66355e-09 -1.65158e-09
0.0216425 -4.76714e-09 -1.20182e-09
0.0216425 -2.87343e-09 -8.77671e-10
0.0216425 -1.66708e-09 -6.47747e-10
0.0216425 -9.27365e-10 -4.90993e-10
0.0216425 -5.04448e-10 -3.95077e-10
0.0216425 -3.04479e-10 -3.5613e-10
0.0216425 -2.85133e-10 -3.7518e-10
0.0216425 -4.27473e-10 -3.99408e-10
0.0216425 -8.07908e-10 -3.13864e-10
0.0216425 -3.39895e-09 -1.71538e-09
0.0216425 -1.3748e-08 -1.00647e-08
0.0216425 -2.17775e-08 -1.6927e-08
0.01 6.11161e-09 -5.34174e-09
0.01 -0.00497895 -0.00183731
0.0157309 -0.0131854 -0.00426255
0.0248886 -0.018557 -0.00475187
0.036281 -0.0252869 -0.00373233
0.0546908 -0.0160146 -0.000919316
0.0539637 -0.000286728 0.00113404
0.0545906 0.00618147 0.00128417
0.0480581 0.0108667 0.000779295
0.0413692 0.0102294 -2.8805e-05
0.036115 0.0084371 -0.00036971
0.032245 0.00623402 -0.000334808
0.0297754 0.00418223 -0.000212517
0.0283381 0.00263319 -0.000111747
0.0275303 0.00159585 -5.06173e-05
0.0270886 0.000939909 -1.9762e-05
0.0268551 0.000539064 -6.20203e-06
0.0267368 0.000300911 -1.01775e-06
0.0266804 0.000163066 5.81514e-07
0.026656 8.52904e-05 8.35018e-07
0.0266474 4.25516e-05 6.8017e-07
0.0266462 1.97545e-05 4.63109e-07
0.026648 8.0368e-06 2.87165e-07
0.0266507 2.31823e-06 1.67363e-07
0.0266534 -2.48721e-07 9.28043e-08
0.0266557 -1.22405e-06 4.90199e-08
0.0266576 -1.44095e-06 2.44285e-08
0.0266591 -1.3307e-06 1.11666e-08
0.0266602 -1.10713e-06 4.32541e-09
0.026661 -8.69466e-07 9.96965e-10
0.0266616 -6.58469e-07 -4.77171e-10
0.026662 -4.86472e-07 -1.01371e-09
0.0266623 -3.53021e-07 -1.10437e-09
0.0266625 -2.52724e-07 -1.00424e-09
0.0266627 -1.78994e-07 -8.39987e-10
0.0266628 -1.25662e-07 -6.70517e-10
0.0266629 -8.75614e-08 -5.20121e-10
0.0266629 -6.06117e-08 -3.96253e-10
0.0266629 -4.17089e-08 -2.98836e-10
0.026663 -2.85504e-08 -2.25035e-10
0.026663 -1.94596e-08 -1.71683e-10
0.026663 -1.32342e-08 -1.36569e-10
0.026663 -9.02634e-09 -1.1917e-10
0.026663 -6.25335e-09 -1.20807e-10
0.026663 -4.54081e-09 -1.43681e-10
0.026663 -3.73388e-09 -1.88781e-10
0.026663 -4.13927e-09 -2.19294e-10
0.026663 -6.7514e-09 -1.43641e-10
0.026663 -1.19033e-08 -1.97322e-09
0.026663 -1.91427e-08 -1.22095e-08
0.026663 -2.32564e-08 -2.05381e-08
0.0148 -1.28779e-08 -6.40948e-09
0.0148 -0.00658462 -0.00244961
0.0191518 -0.0173672 -0.00577347
0.0249253 -0.0250364 -0.00619209
0.0285091 -0.0372954 -0.00418328
0.0274271 -0.0230418 -0.000733939
0.0261352 -1.58468e-07 0.00110234
0.0267691 0.00862581 0.00117236
0.0320002 0.0176373 0.000951389
0.0312157 0.0163312 0.000290857
0.0293083 0.0127933 -0.000125727
0.0279345 0.00906974 -0.000217927
0.0272495 0.0057706 -0.000162403
0.0270365 0.00344388 -8.77911e-05
0.0270203 0.00199141 -3.52482e-05
0.027075 0.00112148 -8.62246e-06
0.0271456 0.000613709 1.68903e-06
0.0272094 0.000324915 4.2599e-06
0.0272596 0.00016504 3.92814e-06
0.0272963 7.90549e-05 2.86986e-06
0.0273219 3.43369e-05 1.87893e-06
0.0273395 1.20778e-05 1.15295e-06
0.0273513 1.70326e-06 6.77269e-07
0.0273592 -2.59397e-06 3.85051e-07
0.0273646 -3.92742e-06 2.13007e-07
0.0273681 -3.92082e-06 1.14806e-07
0.0273705 -3.39116e-06 6.01391e-08
0.0273722 -2.72838e-06 3.03909e-08
0.0273733 -2.10268e-06 1.45787e-08
0.027374 -1.5755e-06 6.40432e-09
0.0273746 -1.15757e-06 2.33335e-09
0.0273749 -8.38414e-07 4.18354e-10
0.0273752 -6.00685e-07 -3.9528e-10
0.0273753 -4.26701e-07 -6.68286e-10
0.0273755 -3.01012e-07 -6.92325e-10
0.0273755 -2.1111e-07 -6.14736e-10
0.0273756 -1.47314e-07 -5.06824e-10
0.0273756 -1.02337e-07 -4.0075e-10
0.0273757 -7.08086e-08 -3.0921e-10
0.0273757 -4.88251e-08 -2.3579e-10
0.0273757 -3.35832e-08 -1.80362e-10
0.0273757 -2.30914e-08 -1.41876e-10
0.0273757 -1.59553e-08 -1.19781e-10
0.0273757 -1.1229e-08 -1.1513e-10
0.0273757 -8.33359e-09 -1.33613e-10
0.0273757 -6.99299e-09 -1.89247e-10
0.0273757 -7.01782e-09 -2.72876e-10
0.0273757 -8.18208e-09 -3.43274e-10
0.0273757 -1.06075e-08 -2.36705e-09
0.0273757 -1.42807e-08 -1.23042e-08
0.0273757 -1.63682e-08 -2.02439e-08
0.018 -3.04131e-08 -1.28141e-08
0.018 -0.00680365 -0.00320554
0.0195563 -0.0170578 -0.00761448
0.0199565 -0.0207337 -0.00750144
0.0162423 -0.0220144 -0.00495609
-1.14196e-08 -0.0115349 -0.0018636
1.69984e-06 6.46681e-07 5.54317e-09
-7.10131e-07 7.5866e-07 0.000197821
0.00855876 0.00622005 0.000396471
0.0175198 0.0129143 0.0003184
0.0203863 0.0118054 0.000113878
0.0218252 0.00838839 -6.56897e-05
0.0234107 0.00514834 -0.000104285
0.0247699 0.00289966 -6.17647e-05
0.0257459 0.00157304 -1.85576e-05
0.0263955 0.000819033 3.27232e-06
0.0268098 0.000404443 9.69399e-06
0.0270661 0.000185422 9.21809e-06
0.0272213 7.47706e-05 6.7856e-06
0.0273139 2.18763e-05 4.42345e-06
0.0273686 -1.38201e-06 2.68312e-06
0.0274008 -1.0068e-05 1.55005e-06
0.0274197 -1.19956e-05 8.62741e-07
0.0274308 -1.10841e-05 4.64715e-07
0.0274373 -9.21705e-06 2.41949e-07
0.0274412 -7.24217e-06 1.20785e-07
0.0274436 -5.49651e-06 5.66988e-08
0.027445 -4.07695e-06 2.38732e-08
0.0274458 -2.97583e-06 7.77128e-09
0.0274464 -2.14678e-06 3.90902e-10
0.0274467 -1.53499e-06 -2.58448e-09
0.0274469 -1.08993e-06 -3.43547e-09
0.0274471 -7.69562e-07 -3.33762e-09
0.0274472 -5.40798e-07 -2.87707e-09
0.0274472 -3.78484e-07 -2.33161e-09
0.0274473 -2.63918e-07 -1.82173e-09
0.0274473 -1.83412e-07 -1.39055e-09
0.0274473 -1.27062e-07 -1.04521e-09
0.0274473 -8.77662e-08 -7.77896e-10
0.0274473 -6.04669e-08 -5.76143e-10
0.0274473 -4.15846e-08 -4.27663e-10
0.0274473 -2.86034e-08 -3.22675e-10
0.0274473 -1.97703e-08 -2.55317e-10
0.0274473 -1.38771e-08 -2.25423e-10
0.0274473 -1.00849e-08 -2.43314e-10
0.0274473 -7.7921e-09 -3.34773e-10
0.0274473 -6.58177e-09 -4.8089e-10
0.0274473 -6.16749e-09 -5.78043e-10
0.0274473 -6.52256e-09 -2.55097e-09
0.0274473 -7.5435e-09 -1.21444e-08
0.0274473 -8.17017e-09 -1.97844e-08
0.0196 -3.5704e-08 -2.94863e-08
0.0196 -0.00492557 -0.00381669
0.0191009 -0.0110795 -0.00870499
0.0170949 -0.0124755 -0.0079423
0.012901 -0.0103768 -0.00500933
0.00319837 -0.00405525 -0.00240337
1.30918e-06 -1.21276e-06 -0.000448017
5.02631e-07 -5.02631e-07 -9.00214e-10
-6.8556e-07 7.34701e-07 3.70331e-05
0.00620856 0.00443223 9.45878e-05
0.0128907 0.00847792 7.39042e-05
0.016059 0.00608318 -5.49015e-05
0.0198027 0.00287267 -0.000134814
0.0228083 0.00113735 -9.13654e-05
0.0247682 0.000376319 -3.21959e-05
0.0259382 5.83229e-05 -1.0603e-07
0.0266102 -5.9593e-05 9.7572e-06
0.0269885 -8.97246e-05 9.70364e-06
0.0271989 -8.52072e-05 6.98102e-06
0.0273149 -6.9902e-05 4.36888e-06
0.0273784 -5.35622e-05 2.52422e-06
0.0274129 -3.95607e-05 1.37987e-06
0.0274316 -2.86056e-05 7.19673e-07
0.0274416 -2.04219e-05 3.56869e-07
0.027447 -1.44648e-05 1.65141e-07
0.0274498 -1.01938e-05 6.76961e-08
0.0274513 -7.15985e-06 2.05239e-08
0.027452 -5.01695e-06 -6.63206e-10
0.0274523 -3.50898e-06 -8.89394e-09
0.0274525 -2.45046e-06 -1.09833e-08
0.0274526 -1.70879e-06 -1.0399e-08
0.0274526 -1.18989e-06 -8.84307e-09
0.0274526 -8.27328e-07 -7.10602e-09
0.0274526 -5.74319e-07 -5.52001e-09
0.0274526 -3.97995e-07 -4.19558e-09
0.0274526 -2.75287e-07 -3.14255e-09
0.0274526 -1.90024e-07 -2.33019e-09
0.0274525 -1.30885e-07 -1.71594e-09
0.0274525 -8.99482e-08 -1.25826e-09
0.0274525 -6.16817e-08 -9.21646e-10
0.0274525 -4.22254e-08 -6.78185e-10
0.0274525 -2.88904e-08 -5.07847e-10
0.0274525 -1.98039e-08 -3.9867e-10
0.0274525 -1.36567e-08 -3.47326e-10
0.0274525 -9.52476e-09 -3.60023e-10
0.0274525 -6.73575e-09 -4.52412e-10
0.0274525 -4.76802e-09 -5.96588e-10
0.0274525 -3.19477e-09 -6.78669e-10
0.0274525 -1.80027e-09 -2.61202e-09
0.0274525 -5.15361e-10 -1.20689e-08
0.0274525 1.11473e-10 -1.9599e-08
0.0196 -1.94682e-08 -4.3512e-08
0.0196 -0.0026092 -0.00401557
0.0192547 -0.00532784 -0.00869371
0.0185764 -0.00472272 -0.00769359
0.0157673 -0.00131927 -0.00468146
0.0118531 0.00444023 -0.00253735
0.00718698 0.00375545 -0.0010862
1.31131e-06 -1.11421e-06 -0.000214911
4.2865e-07 -4.2865e-07 -1.82796e-09
-6.56588e-07 7.14533e-07 9.81438e-06
0.00442922 0.00194237 0.000191628
0.0100244 0.00150731 0.000125023
0.0168752 -0.00154159 -0.000186566
0.021901 -0.00202416 -0.000207865
0.0246863 -0.0015393 -0.000105516
0.0260791 -0.00101959 -3.25239e-05
0.0267684 -0.000647892 -3.83831e-06
0.0271126 -0.000406256 3.2948e-06
0.0272851 -0.000253967 3.51996e-06
0.0273713 -0.000159154 2.35819e-06
0.0274137 -0.000100348 1.33147e-06
0.0274342 -6.38111e-05 6.7385e-07
0.0274437 -4.09789e-05 3.05335e-07
0.0274478 -2.65893e-05 1.15737e-07
0.0274492 -1.74276e-05 2.56399e-08
0.0274495 -1.15304e-05 -1.27744e-08
0.0274494 -7.69256e-06 -2.5906e-08
0.027449 -5.16893e-06 -2.75418e-08
0.0274487 -3.49372e-06 -2.45539e-08
0.0274483 -2.37249e-06 -2.01929e-08
0.0274481 -1.6168e-06 -1.58816e-08
0.0274479 -1.10457e-06 -1.21554e-08
0.0274477 -7.55821e-07 -9.14108e-09
0.0274476 -5.17582e-07 -6.7933e-09
0.0274475 -3.54457e-07 -5.00743e-09
0.0274475 -2.42602e-07 -3.66998e-09
0.0274474 -1.65856e-07 -2.67908e-09
0.0274474 -1.13203e-07 -1.95074e-09
0.0274474 -7.71076e-08 -1.419e-09
0.0274474 -5.23992e-08 -1.03386e-09
0.0274474 -3.55206e-08 -7.58779e-10
0.0274474 -2.4019e-08 -5.68487e-10
0.0274473 -1.6196e-08 -4.47508e-10
0.0274473 -1.08647e-08 -3.89495e-10
0.0274473 -7.17633e-09 -3.98699e-10
0.0274473 -4.49117e-09 -4.90457e-10
0.0274473 -2.26398e-09 -6.34842e-10
0.0274473 5.91008e-11 -7.04904e-10
0.0274473 2.9677e-09 -2.61043e-09
0.0274473 6.49799e-09 -1.20792e-08
0.0274473 8.37782e-09 -1.96372e-08
0.018 -1.19268e-08 -4.41585e-08
0.018 -0.00074412 -0.00390872
0.0188683 -0.000943751 -0.00818862
0.0200761 0.00039577 -0.00696799
0.020056 0.00276921 -0.00415517
0.0198677 0.00794679 -0.00227332
0.0201649 0.0132148 -0.00116193
0.0124808 0.00744179 -0.00053238
1.34287e-06 -8.85555e-07 -0.000176652
-5.36936e-07 -9.9487e-07 9.22223e-09
1.24099e-07 -0.00160063 0.000671679
0.00989402 -0.00637973 0.000754114
0.0184443 -0.00891618 -6.83987e-05
0.0236556 -0.00658722 -0.000270021
0.0260258 -0.00375561 -0.000171692
0.026934 -0.00200674 -7.05592e-05
0.0272608 -0.00108899 -2.34655e-05
0.0273731 -0.000606569 -6.86983e-06
0.0274065 -0.000344754 -1.79436e-06
0.0274116 -0.00019922 -4.16006e-07
0.0274074 -0.000116943 -1.0424e-07
0.027401 -6.974e-05 -5.90095e-08
0.0273949 -4.22589e-05 -6.11173e-08
0.0273899 -2.60146e-05 -6.16395e-08
0.027386 -1.62607e-05 -5.56003e-08
0.0273832 -1.03103e-05 -4.62367e-08
0.027381 -6.62313e-06 -3.64866e-08
0.0273795 -4.30374e-06 -2.78512e-08
0.0273784 -2.82421e-06 -2.08168e-08
0.0273776 -1.86842e-06 -1.53537e-08
0.0273771 -1.2441e-06 -1.12303e-08
0.0273767 -8.32441e-07 -8.17191e-09
0.0273764 -5.58908e-07 -5.92765e-09
0.0273762 -3.76045e-07 -4.29166e-09
0.027376 -2.53239e-07 -3.10389e-09
0.027376 -1.70504e-07 -2.24373e-09
0.0273759 -1.14661e-07 -1.62192e-09
0.0273758 -7.69409e-08 -1.17321e-09
0.0273758 -5.14708e-08 -8.50424e-10
0.0273758 -3.42934e-08 -6.1991e-10
0.0273758 -2.27297e-08 -4.58346e-10
0.0273757 -1.49558e-08 -3.50658e-10
0.0273757 -9.71947e-09 -2.88922e-10
0.0273757 -6.14601e-09 -2.72211e-10
0.0273757 -3.59972e-09 -3.08548e-10
0.0273757 -1.57831e-09 -4.17197e-10
0.0273757 3.97236e-10 -5.73039e-10
0.0273757 2.97709e-09 -6.39016e-10
0.0273757 7.13459e-09 -2.51296e-09
0.0273757 1.31381e-08 -1.21394e-08
0.0273757 1.65254e-08 -1.98775e-08
0.0148 -8.7381e-09 -3.90317e-08
0.0148 0.000248795 -0.00364881
0.0173281 0.00117335 -0.0073093
0.0205666 0.00256083 -0.00586759
0.0230151 0.0045853 -0.00343708
0.0248857 0.00747122 -0.00204951
0.027952 0.0126829 -0.00127478
0.0311407 0.0207483 -0.000690815
0.0254898 0.0125876 -5.13792e-05
0.0269758 1.51284e-14 0.000622869
0.031869 -0.00816579 0.00159832
0.035254 -0.0171575 0.00159892
0.0332471 -0.0152438 0.000355431
0.0304754 -0.00948922 -0.000247684
0.0287274 -0.00474258 -0.000255427
0.0278025 -0.00222067 -0.000129192
0.0273139 -0.00107415 -5.12498e-05
0.0270458 -0.000547623 -1.84142e-05
0.0268934 -0.000291171 -6.299e-06
0.0268044 -0.000159615 -2.06538e-06
0.0267514 -8.95829e-05 -6.28782e-07
0.0267191 -5.12832e-05 -1.54896e-07
0.0266992 -2.98854e-05 -6.50384e-09
0.0266867 -1.77077e-05 3.37867e-08
0.0266786 -1.06582e-05 3.93613e-08
0.0266735 -6.51011e-06 3.47607e-08
0.0266701 -4.03045e-06 2.80486e-08
0.0266678 -2.52547e-06 2.17412e-08
0.0266663 -1.59889e-06 1.64932e-08
0.0266653 -1.02088e-06 1.2347e-08
0.0266646 -6.56067e-07 9.15943e-09
0.0266641 -4.23502e-07 6.7496e-09
0.0266638 -2.74028e-07 4.94851e-09
0.0266635 -1.77358e-07 3.61359e-09
0.0266634 -1.14569e-07 2.63041e-09
0.0266633 -7.36919e-08 1.90975e-09
0.0266632 -4.70709e-08 1.38336e-09
0.0266631 -2.9763e-08 9.99667e-10
0.0266631 -1.85518e-08 7.19957e-10
0.0266631 -1.13306e-08 5.15111e-10
0.0266631 -6.71142e-09 3.62869e-10
0.0266631 -3.77235e-09 2.45449e-10
0.026663 -1.89221e-09 1.47375e-10
0.026663 -6.37654e-10 5.32941e-11
0.026663 3.19079e-10 -5.53257e-11
0.026663 1.26784e-09 -2.04045e-10
0.026663 2.53625e-09 -3.78291e-10
0.026663 4.74306e-09 -4.55693e-10
0.026663 9.52932e-09 -2.26569e-09
0.026663 1.80929e-08 -1.20044e-08
0.026663 2.3317e-08 -1.99244e-08
0.01 -1.53568e-08 -3.66333e-08
0.01 0.000244845 -0.00308159
0.0133546 0.00102223 -0.00573499
0.0174656 0.00191947 -0.00415935
0.0212032 0.00318247 -0.00234426
0.0253638 0.00572869 -0.00155178
0.0306456 0.00841133 -0.00143836
0.0392779 0.0105055 -0.00107698
0.0519964 0.0041858 -1.65523e-05