# vtk DataFile Version 2.0
Tobias Weinzierl: CPU, Manycore and Cluster Computing
ASCII

DATASET STRUCTURED_POINTS
DIMENSIONS  51 11 6

ORIGIN 0 0 0 

SPACING 0.1 0.1 0.1 

POINT_DATA 3366

VECTORS velocity float
0 0 0
4.17577e-15 0 0
-1.48264e-09 0 0
-3.72963e-09 0 0
-4.94971e-09 0 0
-1.63368e-09 0 0
-3.11813e-10 0 0
1.49575e-10 0 0
-1.53842e-10 0 0
-1.12028e-09 0 0
-2.0392e-09 0 0
-2.51154e-09 0 0
-2.59556e-09 0 0
-2.50873e-09 0 0
-2.40999e-09 0 0
-2.36001e-09 0 0
-2.35598e-09 0 0
-2.37608e-09 0 0
-2.40249e-09 0 0
-2.42599e-09 0 0
-2.44357e-09 0 0
-2.45535e-09 0 0
-2.46259e-09 0 0
-2.46666e-09 0 0
-2.4687e-09 0 0
-2.46954e-09 0 0
-2.46972e-09 0 0
-2.46958e-09 0 0
-2.46929e-09 0 0
-2.46898e-09 0 0
-2.46869e-09 0 0
-2.46844e-09 0 0
-2.46824e-09 0 0
-2.46808e-09 0 0
-2.46795e-09 0 0
-2.46786e-09 0 0
-2.46778e-09 0 0
-2.46773e-09 0 0
-2.46769e-09 0 0
-2.46766e-09 0 0
-2.46764e-09 0 0
-2.46762e-09 0 0
-2.46761e-09 0 0
-2.4676e-09 0 0
-2.4676e-09 0 0
-2.46759e-09 0 0
-2.46759e-09 0 0
-2.46759e-09 0 0
-2.46759e-09 0 0
-2.46759e-09 0 0
0.00254835 0 0
0 6.97691e-09 0
1.95404e-14 6.46174e-10 0
-2.62639e-09 1.39174e-09 0
-6.99648e-09 1.40372e-09 0
-8.68487e-09 9.77012e-10 0
-3.28126e-09 1.21202e-09 0
-1.5303e-09 1.84588e-09 0
-8.23495e-10 1.64212e-09 0
-6.08357e-10 1.44894e-09 0
-1.69549e-09 1.43284e-09 0
-3.1313e-09 1.09134e-09 0
-4.01894e-09 5.82265e-10 0
-4.2967e-09 1.7937e-10 0
-4.30081e-09 -1.44985e-11 0
-4.30372e-09 -4.8618e-11 0
-4.39001e-09 -1.71127e-11 0
-4.52994e-09 1.62184e-11 0
-4.67506e-09 3.18536e-11 0
-4.79676e-09 3.28941e-11 0
-4.88668e-09 2.68625e-11 0
-4.94761e-09 1.91065e-11 0
-4.98621e-09 1.22274e-11 0
-5.00923e-09 7.05741e-12 0
-5.02213e-09 3.565e-12 0
-5.02882e-09 1.40347e-12 0
-5.0319e-09 1.80644e-13 0
-5.033e-09 -4.33909e-13 0
-5.03309e-09 -6.82741e-13 0
-5.03273e-09 -7.28736e-13 0
-5.03221e-09 -6.73847e-13 0
-5.03168e-09 -5.7781e-13 0
-5.03121e-09 -4.73115e-13 0
-5.03081e-09 -3.75705e-13 0
-5.0305e-09 -2.92049e-13 0
-5.03025e-09 -2.23565e-13 0
-5.03006e-09 -1.69225e-13 0
-5.02992e-09 -1.27024e-13 0
-5.02981e-09 -9.47438e-14 0
-5.02973e-09 -7.03223e-14 0
-5.02967e-09 -5.19917e-14 0
-5.02963e-09 -3.83097e-14 0
-5.0296e-09 -2.81343e-14 0
-5.02958e-09 -2.05806e-14 0
-5.02956e-09 -1.49734e-14 0
-5.02955e-09 -1.07956e-14 0
-5.02954e-09 -7.6406e-15 0
-5.02953e-09 -5.21208e-15 0
-5.02953e-09 -3.24081e-15 0
-5.02953e-09 -4.18914e-16 0
-5.02954e-09 6.50246e-15 0
0.00693046 -2.83483e-09 0
0 2.95263e-10 0
3.68156e-14 7.35344e-10 0
-1.26195e-09 6.90952e-10 0
-4.81603e-09 -1.15008e-09 0
-4.75791e-09 -1.55717e-09 0
-9.84244e-10 8.61976e-10 0
-1.95017e-09 2.7816e-09 0
-2.23314e-09 1.76478e-09 0
-1.73847e-09 3.33754e-10 0
-1.82185e-09 8.7977e-11 0
-2.68253e-09 2.66905e-10 0
-3.30051e-09 6.45794e-10 0
-3.50202e-09 9.34763e-10 0
-3.47434e-09 9.56747e-10 0
-3.46958e-09 8.10993e-10 0
-3.57886e-09 6.28534e-10 0
-3.75711e-09 4.6203e-10 0
-3.93795e-09 3.24813e-10 0
-4.08468e-09 2.18821e-10 0
-4.18895e-09 1.41412e-10 0
-4.25661e-09 8.76233e-11 0
-4.29752e-09 5.18886e-11 0
-4.32071e-09 2.91287e-11 0
-4.33296e-09 1.52284e-11 0
-4.33885e-09 7.11153e-12 0
-4.34124e-09 2.61568e-12 0
-4.34185e-09 2.95254e-13 0
-4.34161e-09 -7.74529e-13 0
-4.34106e-09 -1.16182e-12 0
-4.34043e-09 -1.20202e-12 0
-4.33985e-09 -1.08479e-12 0
-4.33935e-09 -9.12061e-13 0
-4.33896e-09 -7.34823e-13 0
-4.33865e-09 -5.75768e-13 0
-4.33841e-09 -4.42602e-13 0
-4.33823e-09 -3.35663e-13 0
-4.3381e-09 -2.52082e-13 0
-4.338e-09 -1.87952e-13 0
-4.33793e-09 -1.39378e-13 0
-4.33787e-09 -1.02918e-13 0
-4.33784e-09 -7.57208e-14 0
-4.33781e-09 -5.5512e-14 0
-4.33779e-09 -4.05169e-14 0
-4.33777e-09 -2.93693e-14 0
-4.33776e-09 -2.10224e-14 0
-4.33775e-09 -1.46217e-14 0
-4.33775e-09 -9.22887e-15 0
-4.33775e-09 -3.73175e-15 0
-4.33775e-09 2.17501e-15 0
-4.33775e-09 8.14385e-15 0
0.00923906 -4.01057e-09 0
0 -9.32829e-09 0
4.23144e-14 9.71327e-11 0
-5.32238e-13 -1.19335e-09 0
-3.09873e-09 -4.18387e-09 0
-3.12707e-09 -5.12175e-09 0
6.63338e-10 -2.22838e-09 0
-7.31691e-10 -3.20933e-14 0
-1.26007e-09 -9.10507e-10 0
-2.92726e-09 -2.35452e-09 0
-3.33271e-09 -2.47791e-09 0
-3.92419e-09 -1.33922e-09 0
-4.33942e-09 1.44411e-10 0
-4.32481e-09 1.19008e-09 0
-3.9516e-09 1.43134e-09 0
-3.52233e-09 1.23851e-09 0
-3.25211e-09 9.51757e-10 0
-3.15197e-09 6.86839e-10 0
-3.14685e-09 4.69955e-10 0
-3.1728e-09 3.05506e-10 0
-3.19869e-09 1.88976e-10 0
-3.21554e-09 1.11128e-10 0
-3.22377e-09 6.17343e-11 0
-3.2263e-09 3.18565e-11 0
-3.22579e-09 1.46386e-11 0
-3.22399e-09 5.2505e-12 0
-3.22189e-09 4.93543e-13 0
-3.21995e-09 -1.6477e-12 0
-3.21832e-09 -2.38925e-12 0
-3.21705e-09 -2.43502e-12 0
-3.21607e-09 -2.17496e-12 0
-3.21535e-09 -1.81392e-12 0
-3.21481e-09 -1.45173e-12 0
-3.21442e-09 -1.13114e-12 0
-3.21414e-09 -8.65362e-13 0
-3.21394e-09 -6.5357e-13 0
-3.21379e-09 -4.89077e-13 0
-3.21368e-09 -3.63533e-13 0
-3.2136e-09 -2.68878e-13 0
-3.21355e-09 -1.98123e-13 0
-3.21351e-09 -1.45551e-13 0
-3.21348e-09 -1.06641e-13 0
-3.21346e-09 -7.79008e-14 0
-3.21344e-09 -5.66658e-14 0
-3.21343e-09 -4.0902e-14 0
-3.21342e-09 -2.90266e-14 0
-3.21342e-09 -1.98239e-14 0
-3.21342e-09 -1.25079e-14 0
-3.21341e-09 -6.58734e-15 0
-3.21341e-09 -1.367e-15 0
-3.21341e-09 3.92394e-15 0
0.00980572 -3.07164e-09 0
0 -1.80172e-08 0
2.25546e-14 -7.91491e-10 0
-2.53216e-10 -2.54147e-09 0
-3.4783e-09 -3.82603e-09 0
-4.80236e-09 -3.15324e-09 0
-1.91196e-14 -1.07722e-09 0
-1.69157e-13 -1.9414e-13 0
1.63744e-13 -1.84371e-13 0
-1.64331e-09 -1.65312e-09 0
-4.12696e-09 -3.09828e-09 0
-4.66764e-09 -1.8882e-09 0
-5.02008e-09 -1.82866e-11 0
-5.17177e-09 1.10011e-09 0
-4.84001e-09 1.24259e-09 0
-4.21408e-09 9.91008e-10 0
-3.64611e-09 7.33101e-10 0
-3.27941e-09 5.23871e-10 0
-3.07885e-09 3.52366e-10 0
-2.97256e-09 2.19082e-10 0
-2.91225e-09 1.24793e-10 0
-2.87442e-09 6.40011e-11 0
-2.849e-09 2.79658e-11 0
-2.83149e-09 8.31991e-12 0
-2.81944e-09 -1.35567e-12 0
-2.81127e-09 -5.39602e-12 0
-2.8058e-09 -6.4858e-12 0
-2.80219e-09 -6.17788e-12 0
-2.79982e-09 -5.31531e-12 0
-2.79827e-09 -4.32414e-12 0
-2.79727e-09 -3.39875e-12 0
-2.79661e-09 -2.61187e-12 0
-2.79617e-09 -1.97666e-12 0
-2.79588e-09 -1.48006e-12 0
-2.79569e-09 -1.0999e-12 0
-2.79556e-09 -8.13014e-13 0
-2.79547e-09 -5.98651e-13 0
-2.79541e-09 -4.39593e-13 0
-2.79537e-09 -3.22145e-13 0
-2.79534e-09 -2.35714e-13 0
-2.79532e-09 -1.72246e-13 0
-2.7953e-09 -1.25688e-13 0
-2.79529e-09 -9.15272e-14 0
-2.79528e-09 -6.64134e-14 0
-2.79528e-09 -4.78777e-14 0
-2.79527e-09 -3.41276e-14 0
-2.79527e-09 -2.38559e-14 0
-2.79527e-09 -1.60551e-14 0
-2.79526e-09 -9.89863e-15 0
-2.79526e-09 -4.5892e-15 0
-2.79526e-09 5.75205e-16 0
0.00991134 -1.40995e-09 0
0 -1.609e-08 0
7.44847e-15 -9.94217e-10 0
-7.31539e-10 -2.28168e-09 0
-3.80728e-09 -3.0963e-09 0
-5.89929e-09 -3.42479e-09 0
-2.25222e-09 -1.61595e-09 0
-1.6364e-13 1.59487e-13 0
4.25464e-15 -4.25464e-15 0
1.49996e-13 -1.77481e-13 0
-2.0409e-09 -1.39194e-09 0
-3.85319e-09 -1.87628e-09 0
-4.2319e-09 1.63576e-10 0
-5.10972e-09 1.46061e-09 0
-5.46654e-09 1.31933e-09 0
-4.97458e-09 7.69474e-10 0
-4.19416e-09 4.02394e-10 0
-3.58204e-09 2.11053e-10 0
-3.21045e-09 9.94133e-11 0
-3.00245e-09 2.9622e-11 0
-2.8851e-09 -9.71408e-12 0
-2.81661e-09 -2.72828e-11 0
-2.77567e-09 -3.16354e-11 0
-2.75099e-09 -2.9364e-11 0
-2.73618e-09 -2.45729e-11 0
-2.72737e-09 -1.94123e-11 0
-2.72219e-09 -1.48169e-11 0
-2.71919e-09 -1.1073e-11 0
-2.71746e-09 -8.16841e-12 0
-2.71648e-09 -5.97861e-12 0
-2.71594e-09 -4.35588e-12 0
-2.71564e-09 -3.16572e-12 0
-2.71547e-09 -2.29806e-12 0
-2.71539e-09 -1.66763e-12 0
-2.71534e-09 -1.21031e-12 0
-2.71532e-09 -8.78777e-13 0
-2.71531e-09 -6.38412e-13 0
-2.71531e-09 -4.64069e-13 0
-2.71531e-09 -3.37528e-13 0
-2.71531e-09 -2.456e-13 0
-2.71531e-09 -1.78748e-13 0
-2.71531e-09 -1.30068e-13 0
-2.71531e-09 -9.45615e-14 0
-2.71531e-09 -6.86098e-14 0
-2.71531e-09 -4.9581e-14 0
-2.71531e-09 -3.55503e-14 0
-2.71531e-09 -2.51146e-14 0
-2.71531e-09 -1.72685e-14 0
-2.71531e-09 -1.1258e-14 0
-2.71531e-09 -6.34505e-15 0
-2.71531e-09 -1.80052e-15 0
0.00992512 3.55041e-10 0
0 -1.13596e-08 0
9.75382e-15 -9.41435e-10 0
-7.86913e-10 -2.21129e-09 0
-3.75057e-09 -2.32957e-09 0
-6.21511e-09 -1.85156e-09 0
-5.0164e-09 -1.21675e-09 0
-1.46843e-09 -4.24897e-10 0
-1.61843e-13 1.57125e-13 0
-7.12932e-15 7.12932e-15 0
1.30018e-13 -1.69967e-13 0
-1.51931e-09 -2.99018e-10 0
-2.04766e-09 1.04827e-09 0
-3.94142e-09 2.67361e-09 0
-5.64234e-09 1.88182e-09 0
-5.66641e-09 6.22234e-10 0
-4.72162e-09 -2.38695e-11 0
-3.83982e-09 -2.07728e-10 0
-3.30972e-09 -2.25059e-10 0
-3.04045e-09 -1.97237e-10 0
-2.91056e-09 -1.58184e-10 0
-2.84821e-09 -1.19478e-10 0
-2.81823e-09 -8.64369e-11 0
-2.80398e-09 -6.07684e-11 0
-2.79742e-09 -4.20118e-11 0
-2.79462e-09 -2.88182e-11 0
-2.79361e-09 -1.97382e-11 0
-2.79342e-09 -1.35548e-11 0
-2.79357e-09 -9.35606e-12 0
-2.79384e-09 -6.49894e-12 0
-2.79412e-09 -4.54472e-12 0
-2.79438e-09 -3.19897e-12 0
-2.79459e-09 -2.26538e-12 0
-2.79475e-09 -1.61294e-12 0
-2.79488e-09 -1.15383e-12 0
-2.79498e-09 -8.28721e-13 0
-2.79505e-09 -5.97239e-13 0
-2.79511e-09 -4.31628e-13 0
-2.79515e-09 -3.12654e-13 0
-2.79518e-09 -2.26879e-13 0
-2.7952e-09 -1.64847e-13 0
-2.79522e-09 -1.1986e-13 0
-2.79523e-09 -8.71436e-14 0
-2.79524e-09 -6.32775e-14 0
-2.79524e-09 -4.58004e-14 0
-2.79525e-09 -3.29376e-14 0
-2.79525e-09 -2.34134e-14 0
-2.79525e-09 -1.634e-14 0
-2.79526e-09 -1.11279e-14 0
-2.79526e-09 -7.251e-15 0
-2.79526e-09 -3.98712e-15 0
0.00991134 2.06171e-09 0
0 -8.07944e-09 0
1.03998e-14 -8.95393e-10 0
-9.89163e-10 -1.97149e-09 0
-3.85578e-09 -1.83042e-09 0
-5.99009e-09 -9.66042e-10 0
-5.40909e-09 -4.07057e-10 0
-3.44813e-09 -8.72964e-10 0
-1.74265e-09 -6.77624e-10 0
-1.70046e-13 1.44197e-13 0
1.20062e-13 1.48419e-13 0
-1.43379e-14 8.54378e-11 0
-4.56404e-10 2.33598e-09 0
-1.55853e-09 4.332e-09 0
-3.83339e-09 2.74455e-09 0
-5.02286e-09 5.11578e-10 0
-4.69971e-09 -4.73571e-10 0
-3.98175e-09 -6.01144e-10 0
-3.49494e-09 -4.84945e-10 0
-3.26963e-09 -3.48657e-10 0
-3.19e-09 -2.3824e-10 0
-3.17207e-09 -1.57698e-10 0
-3.17538e-09 -1.02406e-10 0
-3.18378e-09 -6.59687e-11 0
-3.19181e-09 -4.25322e-11 0
-3.1981e-09 -2.76153e-11 0
-3.20267e-09 -1.81239e-11 0
-3.20589e-09 -1.20451e-11 0
-3.20813e-09 -8.10977e-12 0
-3.20968e-09 -5.52902e-12 0
-3.21077e-09 -3.81329e-12 0
-3.21153e-09 -2.65717e-12 0
-3.21206e-09 -1.86821e-12 0
-3.21244e-09 -1.32359e-12 0
-3.21271e-09 -9.43796e-13 0
-3.2129e-09 -6.76591e-13 0
-3.21304e-09 -4.87177e-13 0
-3.21314e-09 -3.52049e-13 0
-3.21321e-09 -2.55131e-13 0
-3.21326e-09 -1.85307e-13 0
-3.2133e-09 -1.34808e-13 0
-3.21333e-09 -9.81636e-14 0
-3.21335e-09 -7.14895e-14 0
-3.21336e-09 -5.2012e-14 0
-3.21337e-09 -3.77422e-14 0
-3.21338e-09 -2.72525e-14 0
-3.21338e-09 -1.95187e-14 0
-3.21339e-09 -1.38397e-14 0
-3.21339e-09 -9.87844e-15 0
-3.21339e-09 -7.6012e-15 0
-3.21339e-09 -6.57646e-15 0
0.00980572 3.51961e-09 0
0 -7.20546e-09 0
1.23306e-14 -7.46115e-10 0
-1.46081e-09 -1.6512e-09 0
-4.33036e-09 -1.47361e-09 0
-6.18559e-09 -6.82227e-10 0
-5.81098e-09 -2.42598e-11 0
-4.24763e-09 -3.60889e-10 0
-3.40563e-09 -1.82032e-09 0
-1.86272e-09 -1.36998e-09 0
-2.68428e-09 -1.06664e-17 0
-4.937e-09 7.53827e-10 0
-4.73549e-09 2.64126e-09 0
-1.84997e-09 3.82043e-09 0
-1.73409e-09 2.72972e-09 0
-3.57975e-09 7.51187e-10 0
-4.46016e-09 -3.34711e-10 0
-4.40948e-09 -5.4523e-10 0
-4.23855e-09 -4.28456e-10 0
-4.1794e-09 -2.7912e-10 0
-4.19342e-09 -1.71468e-10 0
-4.22858e-09 -1.04282e-10 0
-4.2616e-09 -6.40927e-11 0
-4.28647e-09 -4.01536e-11 0
-4.30363e-09 -2.57048e-11 0
-4.31503e-09 -1.67997e-11 0
-4.32252e-09 -1.11844e-11 0
-4.32743e-09 -7.5657e-12 0
-4.33068e-09 -5.18801e-12 0
-4.33285e-09 -3.59909e-12 0
-4.33432e-09 -2.52159e-12 0
-4.33533e-09 -1.78155e-12 0
-4.33602e-09 -1.26763e-12 0
-4.33651e-09 -9.07315e-13 0
-4.33685e-09 -6.52627e-13 0
-4.3371e-09 -4.71343e-13 0
-4.33727e-09 -3.41547e-13 0
-4.3374e-09 -2.48158e-13 0
-4.33749e-09 -1.80686e-13 0
-4.33755e-09 -1.3177e-13 0
-4.3376e-09 -9.62024e-14 0
-4.33763e-09 -7.0273e-14 0
-4.33766e-09 -5.13247e-14 0
-4.33768e-09 -3.74463e-14 0
-4.33769e-09 -2.72604e-14 0
-4.3377e-09 -1.97793e-14 0
-4.33771e-09 -1.43003e-14 0
-4.33771e-09 -1.03387e-14 0
-4.33772e-09 -7.77593e-15 0
-4.33772e-09 -7.29045e-15 0
-4.33772e-09 -9.3874e-15 0
0.00923905 4.06907e-09 0
0 -7.65815e-09 0
1.28431e-14 -4.12942e-10 0
-1.87144e-09 -9.27606e-10 0
-4.49656e-09 -8.01851e-10 0
-5.99083e-09 -4.09531e-10 0
-6.09273e-09 -3.91192e-10 0
-5.16719e-09 -8.5771e-10 0
-4.58033e-09 -1.66946e-09 0
-5.0505e-09 -6.76504e-10 0
-5.00288e-09 2.26511e-09 0
-5.77422e-09 3.25565e-09 0
-4.6529e-09 1.09711e-09 0
-2.33058e-09 -1.31826e-09 0
-2.39925e-09 -1.74293e-09 0
-4.26777e-09 -8.73737e-10 0
-5.26865e-09 -9.50276e-12 0
-5.28064e-09 3.03787e-10 0
-5.08811e-09 2.60074e-10 0
-4.97886e-09 1.43249e-10 0
-4.94921e-09 6.06189e-11 0
-4.95535e-09 1.8504e-11 0
-4.97141e-09 9.51443e-13 0
-4.98705e-09 -4.84103e-12 0
-4.99942e-09 -5.81313e-12 0
-5.00842e-09 -5.13016e-12 0
-5.01476e-09 -4.06968e-12 0
-5.01916e-09 -3.08014e-12 0
-5.02222e-09 -2.27993e-12 0
-5.02434e-09 -1.67001e-12 0
-5.02582e-09 -1.21764e-12 0
-5.02687e-09 -8.86383e-13 0
-5.02761e-09 -6.4516e-13 0
-5.02814e-09 -4.69853e-13 0
-5.02851e-09 -3.42472e-13 0
-5.02879e-09 -2.49854e-13 0
-5.02898e-09 -1.8244e-13 0
-5.02913e-09 -1.33314e-13 0
-5.02923e-09 -9.74735e-14 0
-5.02931e-09 -7.12961e-14 0
-5.02936e-09 -5.21565e-14 0
-5.0294e-09 -3.81478e-14 0
-5.02943e-09 -2.78835e-14 0
-5.02945e-09 -2.03552e-14 0
-5.02947e-09 -1.48305e-14 0
-5.02948e-09 -1.07826e-14 0
-5.02949e-09 -7.84441e-15 0
-5.02949e-09 -5.77095e-15 0
-5.0295e-09 -4.53598e-15 0
-5.0295e-09 -4.9613e-15 0
-5.02951e-09 -8.40494e-15 0
0.00693046 2.54484e-09 0
0 0 0
6.91572e-15 0 0
-9.73539e-10 0 0
-2.14993e-09 0 0
-2.78147e-09 0 0
-2.92665e-09 0 0
-2.89926e-09 0 0
-2.91734e-09 0 0
-3.1878e-09 0 0
-2.31861e-09 0 0
-8.37239e-10 0 0
-8.42816e-11 0 0
-5.59606e-10 0 0
-1.75208e-09 0 0
-2.75145e-09 0 0
-3.03789e-09 0 0
-2.88453e-09 0 0
-2.67426e-09 0 0
-2.54092e-09 0 0
-2.47852e-09 0 0
-2.4558e-09 0 0
-2.45072e-09 0 0
-2.45213e-09 0 0
-2.45522e-09 0 0
-2.45824e-09 0 0
-2.46071e-09 0 0
-2.46258e-09 0 0
-2.46396e-09 0 0
-2.46496e-09 0 0
-2.46568e-09 0 0
-2.46621e-09 0 0
-2.46658e-09 0 0
-2.46685e-09 0 0
-2.46705e-09 0 0
-2.46719e-09 0 0
-2.4673e-09 0 0
-2.46737e-09 0 0
-2.46743e-09 0 0
-2.46747e-09 0 0
-2.4675e-09 0 0
-2.46752e-09 0 0
-2.46754e-09 0 0
-2.46755e-09 0 0
-2.46755e-09 0 0
-2.46756e-09 0 0
-2.46757e-09 0 0
-2.46757e-09 0 0
-2.46757e-09 0 0
-2.46757e-09 0 0
-2.46758e-09 0 0
0.00254835 0 0
0 0 8.51239e-09
2.83275e-14 0 8.3647e-10
-2.58217e-09 0 2.3379e-09
-7.79793e-09 0 2.06335e-09
-1.36115e-08 0 -3.07297e-09
-4.01527e-09 0 -5.84992e-09
3.62988e-10 0 -3.62914e-09
2.34461e-09 0 -1.80009e-09
2.42516e-09 0 -1.79083e-10
9.3033e-10 0 4.52514e-10
-9.60817e-10 0 2.9992e-10
-2.4373e-09 0 -2.59002e-11
-3.33997e-09 0 -1.82177e-10
-3.83566e-09 0 -1.7107e-10
-4.12641e-09 0 -1.00105e-10
-4.34741e-09 0 -3.6901e-11
-4.54329e-09 0 -1.43555e-13
-4.71164e-09 0 1.46574e-11
-4.84415e-09 0 1.70108e-11
-4.9401e-09 0 1.42147e-11
-5.00494e-09 0 1.02575e-11
-5.04628e-09 0 6.79235e-12
-5.07127e-09 0 4.24778e-12
-5.08555e-09 0 2.54925e-12
-5.09319e-09 0 1.48241e-12
-5.09689e-09 0 8.40386e-13
-5.09838e-09 0 4.66281e-13
-5.09872e-09 0 2.53871e-13
-5.0985e-09 0 1.35898e-13
-5.09806e-09 0 7.16568e-14
-5.09757e-09 0 3.73172e-14
-5.09712e-09 0 1.92865e-14
-5.09673e-09 0 9.98232e-15
-5.09642e-09 0 5.25837e-15
-5.09617e-09 0 2.89099e-15
-5.09598e-09 0 1.71028e-15
-5.09583e-09 0 1.11409e-15
-5.09572e-09 0 7.99341e-16
-5.09564e-09 0 6.18218e-16
-5.09558e-09 0 5.01242e-16
-5.09554e-09 0 4.17898e-16
-5.0955e-09 0 3.56108e-16
-5.09548e-09 0 3.12577e-16
-5.09546e-09 0 2.89726e-16
-5.09545e-09 0 2.98001e-16
-5.09544e-09 0 3.61049e-16
-5.09544e-09 0 4.51968e-16
-5.09543e-09 0 4.96442e-16
-5.09543e-09 0 1.44328e-15
-5.09544e-09 0 6.51529e-15
0.00691815 0 -2.10037e-09
0.0036 -8.38747e-10 1.56573e-09
0.0036 -0.00139923 -0.000125979
0.00710577 -0.00445274 -0.000767985
0.0147181 -0.00791269 -0.00252396
0.0261858 -0.0137193 -0.00512689
0.0463622 -0.0102862 -0.00421156
0.0490463 -0.000646113 -0.0010217
0.048477 0.00331416 0.000428607
0.0432037 0.00530067 0.000857387
0.037563 0.00512708 0.00044156
0.0325542 0.00415479 -7.99425e-05
0.0284164 0.00305397 -0.000355376
0.0252639 0.00209406 -0.000374099
0.0230522 0.0013712 -0.000266981
0.0215871 0.000879826 -0.000149884
0.0206482 0.000560652 -6.95801e-05
0.0200608 0.000354146 -2.65044e-05
0.0197013 0.000220425 -7.22053e-06
0.0194861 0.000134673 -7.24416e-08
0.0193602 8.06564e-05 1.8229e-06
0.0192882 4.73305e-05 1.81639e-06
0.0192481 2.71971e-05 1.31695e-06
0.0192263 1.52805e-05 8.24632e-07
0.019215 8.36926e-06 4.66498e-07
0.0192093 4.44416e-06 2.39478e-07
0.0192068 2.26538e-06 1.08014e-07
0.0192058 1.08764e-06 3.76361e-08
0.0192055 4.71814e-07 3.19771e-09
0.0192056 1.64095e-07 -1.14705e-08
0.0192058 2.06683e-08 -1.59898e-08
0.019206 -3.82547e-08 -1.57528e-08
0.0192062 -5.58825e-08 -1.36151e-08
0.0192064 -5.49298e-08 -1.09911e-08
0.0192065 -4.6874e-08 -8.51566e-09
0.0192066 -3.71835e-08 -6.42326e-09
0.0192067 -2.82146e-08 -4.75679e-09
0.0192067 -2.07819e-08 -3.47711e-09
0.0192068 -1.49865e-08 -2.51784e-09
0.0192068 -1.06389e-08 -1.8107e-09
0.0192068 -7.46335e-09 -1.29587e-09
0.0192068 -5.18952e-09 -9.24989e-10
0.0192069 -3.58735e-09 -6.61007e-10
0.0192069 -2.47499e-09 -4.77036e-10
0.0192069 -1.7153e-09 -3.54691e-10
0.0192069 -1.20722e-09 -2.81088e-10
0.0192069 -8.85679e-10 -2.52588e-10
0.0192069 -7.22762e-10 -2.64454e-10
0.0192069 -6.6712e-10 -1.88328e-10
0.0192069 -1.34503e-09 -3.94605e-10
0.0192069 -5.48776e-09 -3.36996e-09
0.0192069 -8.94017e-09 -6.04856e-09
0.01 -4.74518e-10 -1.75301e-08
0.01 -0.00327011 -0.000582917
0.0150246 -0.0106039 -0.0015177
0.0240277 -0.01841 -0.00316345
0.037067 -0.0296379 -0.00435397
0.0564912 -0.0206171 -0.00122931
0.0547135 -0.00137357 0.00200198
0.0549368 0.00581694 0.00238984
0.049416 0.0107108 0.00217292
0.0437792 0.0106565 0.00114101
0.0389464 0.00935778 8.10484e-05
0.0348054 0.00756106 -0.000479269
0.0316064 0.00558618 -0.000572665
0.0294265 0.00381629 -0.000428839
0.0280346 0.00247478 -0.000247241
0.0271744 0.00155532 -0.000117226
0.0266568 0.000955469 -4.58061e-05
0.0263544 0.000575088 -1.3091e-05
0.0261831 0.000339234 -5.33792e-07
0.0260894 0.000196011 3.08079e-06
0.0260403 0.000110776 3.31554e-06
0.0260157 6.10565e-05 2.57295e-06
0.0260044 3.26473e-05 1.74979e-06
0.0259999 1.67742e-05 1.10624e-06
0.0259987 8.13179e-06 6.67142e-07
0.0259989 3.57473e-06 3.88923e-07
0.0259997 1.27406e-06 2.20778e-07
0.0260006 1.8658e-07 1.22508e-07
0.0260014 -2.70536e-07 6.6543e-08
0.0260021 -4.15461e-07 3.5354e-08
0.0260026 -4.17069e-07 1.83127e-08
0.026003 -3.61748e-07 9.18387e-09
0.0260033 -2.91381e-07 4.39911e-09
0.0260035 -2.2454e-07 1.95697e-09
0.0260037 -1.68076e-07 7.5427e-10
0.0260038 -1.23288e-07 1.92907e-10
0.0260039 -8.91138e-08 -4.59717e-11
0.0260039 -6.37083e-08 -1.29159e-10
0.026004 -4.51673e-08 -1.41932e-10
0.026004 -3.18207e-08 -1.2667e-10
0.026004 -2.23164e-08 -1.03755e-10
0.026004 -1.561e-08 -8.27319e-11
0.026004 -1.09207e-08 -6.83333e-11
0.026004 -7.6821e-09 -6.39867e-11
0.026004 -5.49703e-09 -6.93534e-11
0.026004 -4.09884e-09 -7.60405e-11
0.0260041 -3.47028e-09 -8.96496e-11
0.0260041 -4.14441e-09 -3.38371e-11
0.0260041 -6.55117e-09 -4.84069e-10
0.0260041 -1.04967e-08 -4.72018e-09
0.0260041 -1.28096e-08 -8.43875e-09
0.0148 -1.4618e-08 -2.25101e-08
0.0148 -0.00541694 -0.00110655
0.0198137 -0.0163232 -0.0029422
0.0259358 -0.0273075 -0.00497212
0.0303437 -0.0423091 -0.00518677
0.0288362 -0.0259082 -0.000807925
0.0261271 -1.6988e-07 0.00224554
0.026249 0.00755888 0.00233051
0.0308028 0.0157546 0.00225635
0.0310394 0.0154654 0.00132106
0.0297611 0.0134026 0.000354659
0.0285451 0.010786 -0.000237091
0.0277478 0.00780427 -0.000394251
0.0274645 0.00515697 -0.000316758
0.0274217 0.00324394 -0.000177604
0.0274517 0.00198622 -7.11666e-05
0.0274969 0.00118962 -1.39459e-05
0.0275422 0.000696211 8.83323e-06
0.027583 0.000397411 1.40579e-05
0.027617 0.000220771 1.24189e-05
0.0276437 0.00011889 9.08276e-06
0.0276637 6.15928e-05 6.03025e-06
0.027678 3.02343e-05 3.77237e-06
0.0276881 1.36094e-05 2.26591e-06
0.0276951 5.15081e-06 1.32084e-06
0.0276998 1.09735e-06 7.51898e-07
0.0277029 -6.56703e-07 4.19457e-07
0.027705 -1.26264e-06 2.29648e-07
0.0277065 -1.33295e-06 1.23336e-07
0.0277074 -1.18236e-06 6.4811e-08
0.0277081 -9.64927e-07 3.31354e-08
0.0277085 -7.50331e-07 1.63052e-08
0.0277088 -5.65608e-07 7.55839e-09
0.027709 -4.17366e-07 3.14361e-09
0.0277091 -3.03303e-07 1.00827e-09
0.0277092 -2.1793e-07 4.5014e-11
0.0277093 -1.55248e-07 -3.34413e-10
0.0277093 -1.09866e-07 -4.36717e-10
0.0277094 -7.73533e-08 -4.17961e-10
0.0277094 -5.42524e-08 -3.54881e-10
0.0277094 -3.79519e-08 -2.83361e-10
0.0277094 -2.65246e-08 -2.18903e-10
0.0277094 -1.85756e-08 -1.66971e-10
0.0277094 -1.31151e-08 -1.27417e-10
0.0277094 -9.48794e-09 -9.75715e-11
0.0277094 -7.35919e-09 -8.28249e-11
0.0277094 -6.54489e-09 -1.25649e-10
0.0277094 -6.76157e-09 -2.28592e-10
0.0277094 -7.81623e-09 -1.03381e-09
0.0277094 -9.3896e-09 -5.40413e-09
0.0277094 -1.02278e-08 -9.02749e-09
0.018 -3.10047e-08 -2.57287e-08
0.018 -0.00659884 -0.00193351
0.020179 -0.017603 -0.0052661
0.0199552 -0.0229627 -0.00685478
0.0159043 -0.0249364 -0.00680242
-1.93339e-08 -0.012978 -0.00328025
1.57524e-06 5.0691e-07 1.06333e-08
-5.97063e-07 6.28141e-07 0.000444014
0.00734895 0.00508235 0.000909316
0.015404 0.0114377 0.000777237
0.0187926 0.0119733 0.000381123
0.0204 0.00983992 -3.87642e-05
0.0221317 0.00691327 -0.000247834
0.0238771 0.00430749 -0.000232112
0.0252965 0.00257084 -0.000128268
0.0262983 0.00150911 -3.69152e-05
0.0269537 0.000867191 1.21899e-05
0.0273682 0.000481864 2.7932e-05
0.0276267 0.000256129 2.6846e-05
0.0277862 0.00012859 2.0308e-05
0.0278838 5.94898e-05 1.36359e-05
0.0279429 2.3802e-05 8.5196e-06
0.0279784 6.46207e-06 5.07092e-06
0.0279995 -1.21352e-06 2.91275e-06
0.0280121 -4.0382e-06 1.62613e-06
0.0280195 -4.58324e-06 8.8517e-07
0.0280239 -4.16881e-06 4.69745e-07
0.0280264 -3.43998e-06 2.42104e-07
0.028028 -2.68949e-06 1.20069e-07
0.0280289 -2.03323e-06 5.61919e-08
0.0280294 -1.5029e-06 2.37307e-08
0.0280297 -1.09347e-06 7.90471e-09
0.0280299 -7.86473e-07 6.8245e-10
0.0280301 -5.60804e-07 -2.22589e-09
0.0280301 -3.9725e-07 -3.0682e-09
0.0280302 -2.79943e-07 -2.99442e-09
0.0280302 -1.96468e-07 -2.57339e-09
0.0280302 -1.37431e-07 -2.0723e-09
0.0280303 -9.58854e-08 -1.60565e-09
0.0280303 -6.67717e-08 -1.21354e-09
0.0280303 -4.64507e-08 -9.0194e-10
0.0280303 -3.23303e-08 -6.62961e-10
0.0280303 -2.25863e-08 -4.85189e-10
0.0280303 -1.59586e-08 -3.5936e-10
0.0280303 -1.15748e-08 -2.8186e-10
0.0280303 -8.78695e-09 -2.73552e-10
0.0280303 -7.09658e-09 -3.92898e-10
0.0280303 -6.10456e-09 -5.91236e-10
0.0280303 -5.60118e-09 -1.48928e-09
0.0280303 -5.36688e-09 -5.65361e-09
0.0280303 -5.26767e-09 -9.01726e-09
0.0196 -3.97129e-08 -4.07609e-08
0.0196 -0.00525447 -0.00275454
0.0191001 -0.0118888 -0.00669734
0.0162393 -0.0143665 -0.007221
0.0115229 -0.0129419 -0.00651117
0.00234089 -0.00520976 -0.00409867
1.19387e-06 -1.09967e-06 -0.000865655
5.02604e-07 -5.02604e-07 -7.11101e-10
-5.80941e-07 6.13184e-07 0.000124735
0.00504602 0.00383157 0.000258518
0.0113776 0.0083825 0.000206026
0.0141476 0.00755068 -3.67093e-05
0.0175133 0.00448435 -0.000276424
0.0208609 0.00211975 -0.000301121
0.0235448 0.000890276 -0.000199754
0.0253743 0.000348182 -8.05249e-05
0.0265054 0.000113518 -5.2952e-06
0.0271741 9.15079e-06 2.34033e-05
0.0275624 -3.38983e-05 2.62834e-05
0.0277856 -4.62337e-05 2.02394e-05
0.0279128 -4.42486e-05 1.3322e-05
0.0279845 -3.6906e-05 8.03567e-06
0.0280245 -2.86445e-05 4.57974e-06
0.0280466 -2.13145e-05 2.50229e-06
0.0280588 -1.54533e-05 1.31808e-06
0.0280653 -1.10216e-05 6.68374e-07
0.0280688 -7.77892e-06 3.23052e-07
0.0280707 -5.45357e-06 1.45124e-07
0.0280716 -3.80684e-06 5.67306e-08
0.0280721 -2.64986e-06 1.50027e-08
0.0280723 -1.84104e-06 -3.09015e-09
0.0280724 -1.27741e-06 -9.65204e-09
0.0280724 -8.85455e-07 -1.08998e-08
0.0280724 -6.1327e-07 -9.93687e-09
0.0280724 -4.24447e-07 -8.25142e-09
0.0280724 -2.93561e-07 -6.51134e-09
0.0280724 -2.02901e-07 -4.98055e-09
0.0280724 -1.40151e-07 -3.73277e-09
0.0280724 -9.67546e-08 -2.75892e-09
0.0280724 -6.67752e-08 -2.01949e-09
0.0280724 -4.60966e-08 -1.4689e-09
0.0280724 -3.18695e-08 -1.06615e-09
0.0280724 -2.21202e-08 -7.79489e-10
0.0280724 -1.54714e-08 -5.89309e-10
0.0280723 -1.09519e-08 -4.85781e-10
0.0280723 -7.86584e-09 -4.73623e-10
0.0280723 -5.69097e-09 -5.93306e-10
0.0280723 -3.97648e-09 -7.80611e-10
0.0280723 -2.38091e-09 -1.6568e-09
0.0280723 -6.92708e-10 -5.67445e-09
0.0280723 1.97404e-10 -8.90233e-09
0.0196 -1.97449e-08 -5.45964e-08
0.0196 -0.00318238 -0.00309242
0.0190283 -0.00670019 -0.00675925
0.0177685 -0.00629802 -0.00677702
0.0141219 -0.00264224 -0.00569178
0.0103042 0.00350748 -0.00422994
0.00654861 0.00336953 -0.00202074
1.19448e-06 -1.00485e-06 -0.000372442
4.23908e-07 -4.23908e-07 -2.017e-09
-5.62258e-07 5.99624e-07 3.4231e-05
0.00382218 0.00283972 0.00033706
0.00843577 0.00377098 0.000373655
0.0140038 0.000375751 -6.92252e-05
0.0190834 -0.00154489 -0.000347938
0.0229046 -0.00182473 -0.000354288
0.0253016 -0.00140142 -0.000209859
0.0266249 -0.000925074 -7.87346e-05
0.027315 -0.000584545 -1.30925e-05
0.0276696 -0.000367425 7.62222e-06
0.0278513 -0.000231252 9.81174e-06
0.0279439 -0.000145559 7.12226e-06
0.0279904 -9.1612e-05 4.28097e-06
0.0280133 -5.77453e-05 2.31974e-06
0.0280242 -3.6534e-05 1.16123e-06
0.0280292 -2.3247e-05 5.33857e-07
0.0280312 -1.48987e-05 2.15383e-07
0.0280318 -9.62453e-06 6.38349e-08
0.0280318 -6.26824e-06 -2.22787e-09
0.0280316 -4.11467e-06 -2.66827e-08
0.0280314 -2.72078e-06 -3.21238e-08
0.0280311 -1.81086e-06 -2.97188e-08
0.0280309 -1.21206e-06 -2.47312e-08
0.0280308 -8.15125e-07 -1.94756e-08
0.0280306 -5.50311e-07 -1.48464e-08
0.0280305 -3.72674e-07 -1.10875e-08
0.0280305 -2.52976e-07 -8.16891e-09
0.0280304 -1.72026e-07 -5.96336e-09
0.0280304 -1.17128e-07 -4.32561e-09
0.0280303 -7.98232e-08 -3.12391e-09
0.0280303 -5.44424e-08 -2.25e-09
0.0280303 -3.71652e-08 -1.61987e-09
0.0280303 -2.54037e-08 -1.17129e-09
0.0280303 -1.73937e-08 -8.60367e-10
0.0280303 -1.19227e-08 -6.57861e-10
0.0280303 -8.14229e-09 -5.45039e-10
0.0280303 -5.43954e-09 -5.22237e-10
0.0280303 -3.33748e-09 -6.32491e-10
0.0280303 -1.36718e-09 -8.02389e-10
0.0280303 9.82241e-10 -1.61679e-09
0.0280303 3.97332e-09 -5.55682e-09
0.0280303 5.63038e-09 -8.75512e-09
0.018 -1.23154e-08 -5.35568e-08
0.018 -0.00152938 -0.00303825
0.0185142 -0.00256902 -0.0064189
0.0189483 -0.000974837 -0.00601396
0.0184661 0.00201476 -0.00468005
0.0184359 0.00767818 -0.00345227
0.0189391 0.0127265 -0.00200031
0.0116835 0.00699827 -0.000890342
1.22225e-06 -7.87445e-07 -0.000295499
-4.53777e-07 -9.04151e-07 8.17019e-09
1.23398e-07 -0.000183072 0.000875498
0.0094372 -0.00273837 0.0013747
0.0171221 -0.00603052 0.000603875
0.0220467 -0.00652428 -5.04394e-05
0.0249981 -0.00509999 -0.000342243
0.0265915 -0.00324072 -0.000301623
0.0273315 -0.00184816 -0.000165632
0.0276287 -0.00102403 -7.02816e-05
0.0277305 -0.00057235 -2.56163e-05
0.0277555 -0.000324826 -8.5722e-06
0.0277538 -0.000186661 -2.80105e-06
0.027745 -0.000108381 -9.89996e-07
0.0277359 -6.35763e-05 -4.42796e-07
0.0277285 -3.77068e-05 -2.67803e-07
0.0277229 -2.26307e-05 -1.94459e-07
0.0277188 -1.3752e-05 -1.48632e-07
0.027716 -8.46227e-06 -1.12943e-07
0.027714 -5.27163e-06 -8.41619e-08
0.0277126 -3.32261e-06 -6.15664e-08
0.0277116 -2.11697e-06 -4.44168e-08
0.027711 -1.36204e-06 -3.17494e-08
0.0277105 -8.83869e-07 -2.25697e-08
0.0277102 -5.778e-07 -1.59994e-08
0.02771 -3.80037e-07 -1.13314e-08
0.0277098 -2.51202e-07 -8.0275e-09
0.0277097 -1.66685e-07 -5.69249e-09
0.0277096 -1.10923e-07 -4.04217e-09
0.0277096 -7.39656e-08 -2.87482e-09
0.0277095 -4.93872e-08 -2.0484e-09
0.0277095 -3.30011e-08 -1.4634e-09
0.0277095 -2.20566e-08 -1.0506e-09
0.0277095 -1.47317e-08 -7.62345e-10
0.0277095 -9.80739e-09 -5.66904e-10
0.0277094 -6.45509e-09 -4.44751e-10
0.0277094 -4.09374e-09 -3.83986e-10
0.0277094 -2.29022e-09 -3.88646e-10
0.0277094 -6.87916e-10 -5.06912e-10
0.0277094 1.12854e-09 -6.57953e-10
0.0277094 3.89281e-09 -1.34829e-09
0.0277094 8.05867e-09 -5.20956e-09
0.0277094 1.04842e-08 -8.43418e-09
0.0148 -7.45003e-09 -4.64508e-08
0.0148 -0.00062555 -0.00284085
0.0165643 -0.000512084 -0.00575925
0.0188294 0.00140697 -0.00503926
0.0209492 0.00426074 -0.00366621
0.0230655 0.00759637 -0.00277792
0.0265763 0.0126828 -0.00189933
0.0296566 0.0199312 -0.00103034
0.0240905 0.0118776 -0.000133529
0.0245131 1.44471e-14 0.00053629
0.0282888 -0.00701562 0.00154319
0.0331491 -0.01395 0.00244055
0.0341056 -0.0123836 0.00195698
0.0323769 -0.00925242 0.000862801
0.0300835 -0.00610432 -9.73925e-05
0.028367 -0.0035335 -0.000407528
0.0273334 -0.00185638 -0.000313924
0.026754 -0.000939578 -0.000165051
0.0264323 -0.000478709 -7.33908e-05
0.0262521 -0.000249805 -3.02539e-05
0.0261497 -0.00013381 -1.20835e-05
0.0260909 -7.33896e-05 -4.78651e-06
0.0260566 -4.10848e-05 -1.90779e-06
0.0260364 -2.3413e-05 -7.72371e-07
0.0260242 -1.3553e-05 -3.18835e-07
0.0260168 -7.95618e-06 -1.33522e-07
0.0260122 -4.7305e-06 -5.56456e-08
0.0260093 -2.84557e-06 -2.2068e-08
0.0260075 -1.72998e-06 -7.42001e-09
0.0260063 -1.06183e-06 -1.14732e-09
0.0260056 -6.57209e-07 1.33168e-09
0.0260051 -4.09667e-07 2.09177e-09
0.0260047 -2.56821e-07 2.103e-09
0.0260045 -1.6168e-07 1.82441e-09
0.0260044 -1.02052e-07 1.46956e-09
0.0260043 -6.4477e-08 1.13164e-09
0.0260042 -4.07048e-08 8.45168e-10
0.0260042 -2.56288e-08 6.17004e-10
0.0260041 -1.60594e-08 4.42014e-10
0.0260041 -9.98822e-09 3.10773e-10
0.0260041 -6.13988e-09 2.1306e-10
0.0260041 -3.69692e-09 1.39154e-10
0.0260041 -2.12731e-09 7.98486e-11
0.0260041 -1.07457e-09 2.58228e-11
0.0260041 -2.84082e-10 -3.11239e-11
0.0260041 4.55202e-10 -1.05368e-10
0.0260041 1.35232e-09 -2.43622e-10
0.0260041 2.69254e-09 -3.79963e-10
0.0260041 5.33531e-09 -9.30222e-10
0.0260041 1.00165e-08 -4.56945e-09
0.0260041 1.28803e-08 -7.7007e-09
0.01 -1.44343e-08 -4.14443e-08
0.01 -0.000382715 -0.00238005
0.0118831 -7.77719e-05 -0.00453002
0.0147457 0.00126323 -0.00356139