# vtk DataFile Version 2.0
Tobias Weinzierl: CPU, Manycore and Cluster Computing
ASCII

DATASET STRUCTURED_POINTS
DIMENSIONS  51 11 6

ORIGIN 0 0 0 

SPACING 0.1 0.1 0.1 

POINT_DATA 3366

VECTORS velocity float
0 0 0
-1.10416e-14 0 0
-1.13413e-08 0 0
-1.5179e-08 0 0
-1.46839e-08 0 0
-1.11234e-08 0 0
-1.44191e-08 0 0
-1.61009e-08 0 0
-1.62769e-08 0 0
-1.55227e-08 0 0
-1.4943e-08 0 0
-1.4754e-08 0 0
-1.48236e-08 0 0
-1.50178e-08 0 0
-1.52541e-08 0 0
-1.54833e-08 0 0
-1.5682e-08 0 0
-1.58433e-08 0 0
-1.5969e-08 0 0
-1.60647e-08 0 0
-1.61364e-08 0 0
-1.61896e-08 0 0
-1.62289e-08 0 0
-1.62578e-08 0 0
-1.62791e-08 0 0
-1.62948e-08 0 0
-1.63063e-08 0 0
-1.63147e-08 0 0
-1.6321e-08 0 0
-1.63256e-08 0 0
-1.63289e-08 0 0
-1.63314e-08 0 0
-1.63333e-08 0 0
-1.63346e-08 0 0
-1.63356e-08 0 0
-1.63363e-08 0 0
-1.63369e-08 0 0
-1.63373e-08 0 0
-1.63376e-08 0 0
-1.63378e-08 0 0
-1.6338e-08 0 0
-1.63381e-08 0 0
-1.63382e-08 0 0
-1.63382e-08 0 0
-1.63383e-08 0 0
-1.63383e-08 0 0
-1.63383e-08 0 0
-1.63383e-08 0 0
-1.63384e-08 0 0
-1.63384e-08 0 0
0.00487682 0 0
0 7.68976e-09 0
-3.91142e-15 7.91056e-09 0
-2.11988e-08 1.19845e-08 0
-2.46135e-08 5.32411e-09 0
-2.12398e-08 -4.99583e-10 0
-1.08197e-08 1.5235e-09 0
-1.62021e-08 4.52845e-09 0
-1.8421e-08 1.09217e-09 0
-1.77361e-08 -9.23206e-10 0
-1.69709e-08 -1.21203e-09 0
-1.71404e-08 -5.14685e-10 0
-1.82096e-08 9.01574e-11 0
-1.93899e-08 3.9229e-10 0
-2.04215e-08 4.96889e-10 0
-2.12674e-08 4.96056e-10 0
-2.19313e-08 4.41234e-10 0
-2.24344e-08 3.66009e-10 0
-2.28062e-08 2.90323e-10 0
-2.3077e-08 2.23678e-10 0
-2.32726e-08 1.69115e-10 0
-2.34136e-08 1.26342e-10 0
-2.35152e-08 9.36991e-11 0
-2.35887e-08 6.91952e-11 0
-2.3642e-08 5.09836e-11 0
-2.36807e-08 3.7526e-11 0
-2.3709e-08 2.76118e-11 0
-2.37297e-08 2.03182e-11 0
-2.37449e-08 1.49548e-11 0
-2.3756e-08 1.10105e-11 0
-2.37642e-08 8.10878e-12 0
-2.37703e-08 5.97316e-12 0
-2.37747e-08 4.40074e-12 0
-2.3778e-08 3.24259e-12 0
-2.37804e-08 2.38933e-12 0
-2.37822e-08 1.76058e-12 0
-2.37835e-08 1.2972e-12 0
-2.37845e-08 9.5566e-13 0
-2.37852e-08 7.0391e-13 0
-2.37858e-08 5.18328e-13 0
-2.37861e-08 3.81501e-13 0
-2.37864e-08 2.80589e-13 0
-2.37866e-08 2.06122e-13 0
-2.37868e-08 1.51118e-13 0
-2.37869e-08 1.10435e-13 0
-2.3787e-08 8.03137e-14 0
-2.37871e-08 5.80908e-14 0
-2.37871e-08 4.23006e-14 0
-2.37871e-08 3.38048e-14 0
-2.37872e-08 4.10807e-14 0
-2.37872e-08 8.64968e-14 0
0.0108513 -1.76692e-08 0
0 2.82582e-10 0
6.94048e-14 1.03222e-08 0
-2.1038e-08 1.51157e-08 0
-1.77433e-08 6.55595e-09 0
-1.14414e-08 -3.82072e-09 0
-1.42592e-08 -7.29061e-10 0
-1.5427e-08 5.71003e-09 0
-1.84362e-08 -9.31637e-10 0
-4.52346e-09 -2.24427e-09 0
-2.50484e-09 3.8259e-10 0
-3.86057e-09 2.43199e-09 0
-6.33676e-09 3.08803e-09 0
-8.45822e-09 2.69066e-09 0
-9.98694e-09 2.11781e-09 0
-1.10785e-08 1.61946e-09 0
-1.1845e-08 1.21349e-09 0
-1.23737e-08 8.9374e-10 0
-1.27348e-08 6.50278e-10 0
-1.29812e-08 4.69879e-10 0
-1.31504e-08 3.38616e-10 0
-1.32678e-08 2.44081e-10 0
-1.33501e-08 1.76293e-10 0
-1.34084e-08 1.27704e-10 0
-1.34503e-08 9.28036e-11 0
-1.34804e-08 6.76509e-11 0
-1.35024e-08 4.94531e-11 0
-1.35184e-08 3.62367e-11 0
-1.35302e-08 2.66042e-11 0
-1.35388e-08 1.95623e-11 0
-1.35452e-08 1.44014e-11 0
-1.35499e-08 1.06114e-11 0
-1.35534e-08 7.82364e-12 0
-1.3556e-08 5.77074e-12 0
-1.35579e-08 4.25764e-12 0
-1.35593e-08 3.1417e-12 0
-1.35603e-08 2.31832e-12 0
-1.35611e-08 1.71062e-12 0
-1.35617e-08 1.26201e-12 0
-1.35621e-08 9.30788e-13 0
-1.35624e-08 6.8619e-13 0
-1.35626e-08 5.05514e-13 0
-1.35628e-08 3.72006e-13 0
-1.35629e-08 2.73313e-13 0
-1.3563e-08 2.00378e-13 0
-1.35631e-08 1.4667e-13 0
-1.35631e-08 1.07652e-13 0
-1.35632e-08 8.02728e-14 0
-1.35632e-08 6.3027e-14 0
-1.35632e-08 5.63027e-14 0
-1.35632e-08 6.20326e-14 0
0.0120145 -1.39983e-08 0
0 -9.01007e-09 0
1.7296e-13 8.27929e-09 0
-2.41606e-08 1.1226e-08 0
-1.68538e-08 5.15266e-09 0
-8.27318e-09 7.32384e-09 0
-1.45629e-08 5.11792e-09 0
-1.36441e-08 2.03976e-14 0
-1.61161e-08 -1.71631e-08 0
-2.11403e-08 -1.97418e-08 0
-1.14266e-08 -4.09126e-10 0
-8.64535e-09 5.49858e-09 0
-8.63457e-09 6.11597e-09 0
-9.34601e-09 4.80627e-09 0
-1.00777e-08 3.47696e-09 0
-1.06875e-08 2.50328e-09 0
-1.11324e-08 1.78909e-09 0
-1.14376e-08 1.26927e-09 0
-1.16439e-08 8.97849e-10 0
-1.17845e-08 6.36019e-10 0
-1.18821e-08 4.52463e-10 0
-1.19514e-08 3.23681e-10 0
-1.20013e-08 2.3291e-10 0
-1.20378e-08 1.68514e-10 0
-1.20646e-08 1.22508e-10 0
-1.20845e-08 8.94187e-11 0
-1.20993e-08 6.5478e-11 0
-1.21102e-08 4.80683e-11 0
-1.21184e-08 3.53558e-11 0
-1.21245e-08 2.60426e-11 0
-1.2129e-08 1.92026e-11 0
-1.21323e-08 1.41694e-11 0
-1.21348e-08 1.04606e-11 0
-1.21367e-08 7.72479e-12 0
-1.2138e-08 5.70539e-12 0
-1.2139e-08 4.21407e-12 0
-1.21398e-08 3.11241e-12 0
-1.21404e-08 2.29844e-12 0
-1.21408e-08 1.69697e-12 0
-1.21411e-08 1.25249e-12 0
-1.21413e-08 9.2396e-13 0
-1.21415e-08 6.8108e-13 0
-1.21416e-08 5.01432e-13 0
-1.21417e-08 3.68445e-13 0
-1.21417e-08 2.69863e-13 0
-1.21418e-08 1.96621e-13 0
-1.21418e-08 1.421e-13 0
-1.21419e-08 1.01944e-13 0
-1.21419e-08 7.36267e-14 0
-1.21419e-08 5.57397e-14 0
-1.21419e-08 4.56991e-14 0
0.0120826 -8.93742e-09 0
0 -1.58501e-08 0
2.35959e-13 4.1876e-09 0
-2.84853e-08 4.17005e-09 0
-2.11348e-08 1.71226e-09 0
-1.01181e-08 5.04655e-09 0
-3.58663e-14 3.31672e-09 0
-8.16368e-13 -8.16561e-13 0
7.10144e-13 -8.59338e-13 0
-1.8076e-08 -1.11887e-08 0
-2.17169e-08 -1.27488e-08 0
-1.4154e-08 6.40862e-10 0
-1.28142e-08 4.8357e-09 0
-1.22252e-08 4.77785e-09 0
-1.19872e-08 3.75575e-09 0
-1.19271e-08 2.77122e-09 0
-1.19136e-08 1.97455e-09 0
-1.19155e-08 1.38879e-09 0
-1.19259e-08 9.77431e-10 0
-1.19412e-08 6.92623e-10 0
-1.19582e-08 4.95027e-10 0
-1.19749e-08 3.56698e-10 0
-1.19901e-08 2.58802e-10 0
-1.20031e-08 1.88802e-10 0
-1.20139e-08 1.38307e-10 0
-1.20226e-08 1.01628e-10 0
-1.20295e-08 7.48395e-11 0
-1.20348e-08 5.5197e-11 0
-1.20389e-08 4.07525e-11 0
-1.2042e-08 3.01085e-11 0
-1.20444e-08 2.22539e-11 0
-1.20461e-08 1.64521e-11 0
-1.20475e-08 1.21639e-11 0
-1.20485e-08 8.99332e-12 0
-1.20492e-08 6.64858e-12 0
-1.20498e-08 4.91445e-12 0
-1.20502e-08 3.63192e-12 0
-1.20505e-08 2.68344e-12 0
-1.20507e-08 1.98204e-12 0
-1.20509e-08 1.46338e-12 0
-1.2051e-08 1.07983e-12 0
-1.20511e-08 7.96106e-13 0
-1.20511e-08 5.861e-13 0
-1.20512e-08 4.30458e-13 0
-1.20512e-08 3.14844e-13 0
-1.20512e-08 2.28696e-13 0
-1.20513e-08 1.64299e-13 0
-1.20513e-08 1.16024e-13 0
-1.20513e-08 7.98321e-14 0
-1.20513e-08 5.27509e-14 0
-1.20513e-08 3.13712e-14 0
0.0120853 -4.33279e-09 0
0 -1.33905e-08 0
2.92416e-13 1.48786e-09 0
-3.12359e-08 1.57103e-09 0
-2.54805e-08 -4.47462e-10 0
-1.54569e-08 -1.19666e-09 0
-6.49025e-09 -6.66028e-10 0
-8.11369e-13 7.57919e-13 0
-4.77757e-14 4.77757e-14 0
6.82489e-13 -7.37798e-13 0
-1.1347e-08 -6.01982e-09 0
-1.32378e-08 -3.94131e-09 0
-1.58217e-08 4.56453e-09 0
-1.51712e-08 4.42741e-09 0
-1.40209e-08 3.38003e-09 0
-1.3196e-08 2.45936e-09 0
-1.26894e-08 1.74158e-09 0
-1.23991e-08 1.2355e-09 0
-1.22378e-08 8.86453e-10 0
-1.21492e-08 6.43202e-10 0
-1.2101e-08 4.70741e-10 0
-1.2075e-08 3.4656e-10 0
-1.20611e-08 2.56089e-10 0
-1.20539e-08 1.89646e-10 0
-1.20502e-08 1.40599e-10 0
-1.20484e-08 1.04286e-10 0
-1.20476e-08 7.73554e-11 0
-1.20473e-08 5.73696e-11 0
-1.20472e-08 4.25347e-11 0
-1.20472e-08 3.15246e-11 0
-1.20473e-08 2.33556e-11 0
-1.20474e-08 1.72968e-11 0
-1.20474e-08 1.2805e-11 0
-1.20475e-08 9.47621e-12 0
-1.20475e-08 7.01033e-12 0
-1.20476e-08 5.18434e-12 0
-1.20476e-08 3.83266e-12 0
-1.20476e-08 2.83239e-12 0
-1.20476e-08 2.09236e-12 0
-1.20476e-08 1.54495e-12 0
-1.20476e-08 1.14003e-12 0
-1.20476e-08 8.4044e-13 0
-1.20477e-08 6.18633e-13 0
-1.20477e-08 4.54176e-13 0
-1.20477e-08 3.31906e-13 0
-1.20477e-08 2.40542e-13 0
-1.20477e-08 1.71673e-13 0
-1.20477e-08 1.19e-13 0
-1.20476e-08 7.78021e-14 0
-1.20476e-08 4.43574e-14 0
-1.20477e-08 1.53378e-14 0
0.0120854 8.36488e-11 0
0 -8.99857e-09 0
3.13986e-13 -1.1929e-09 0
-3.0671e-08 -1.86537e-09 0
-2.55234e-08 -1.31524e-09 0
-1.75253e-08 -1.31556e-09 0
-1.27678e-08 -6.30229e-09 0
-9.13178e-09 -5.62948e-09 0
-8.2294e-13 6.92899e-13 0
-1.04094e-14 1.04094e-14 0
6.93372e-13 -6.71606e-13 0
-6.06595e-09 4.7674e-09 0
-2.09725e-08 7.11454e-09 0
-1.94991e-08 3.55844e-09 0
-1.58592e-08 2.05849e-09 0
-1.39551e-08 1.4884e-09 0
-1.30743e-08 1.13966e-09 0
-1.26414e-08 8.8647e-10 0
-1.24126e-08 6.88069e-10 0
-1.22836e-08 5.3036e-10 0
-1.22066e-08 4.05867e-10 0
-1.21582e-08 3.08627e-10 0
-1.21266e-08 2.33428e-10 0
-1.21052e-08 1.75769e-10 0
-1.20903e-08 1.31873e-10 0
-1.20797e-08 9.86476e-11 0
-1.20722e-08 7.36174e-11 0
-1.20667e-08 5.48323e-11 0
-1.20627e-08 4.07768e-11 0
-1.20597e-08 3.02857e-11 0
-1.20575e-08 2.24703e-11 0
-1.20559e-08 1.66573e-11 0
-1.20547e-08 1.23392e-11 0
-1.20539e-08 9.13484e-12 0
-1.20532e-08 6.75899e-12 0
-1.20527e-08 4.99869e-12 0
-1.20524e-08 3.69522e-12 0
-1.20521e-08 2.73048e-12 0
-1.20519e-08 2.01672e-12 0
-1.20517e-08 1.48878e-12 0
-1.20516e-08 1.09832e-12 0
-1.20516e-08 8.09467e-13 0
-1.20515e-08 5.95635e-13 0
-1.20515e-08 4.37073e-13 0
-1.20514e-08 3.19083e-13 0
-1.20514e-08 2.30659e-13 0
-1.20514e-08 1.6345e-13 0
-1.20514e-08 1.11024e-13 0
-1.20513e-08 6.83793e-14 0
-1.20513e-08 3.15514e-14 0
-1.20513e-08 -2.2852e-15 0
0.0120853 4.49007e-09 0
0 -6.25345e-09 0
2.50177e-13 -3.53636e-09 0
-2.81558e-08 -4.87827e-09 0
-2.41193e-08 -2.14851e-09 0
-1.76604e-08 -2.32346e-09 0
-1.43399e-08 -3.37009e-09 0
-1.57409e-08 -1.05156e-08 0
-1.1684e-08 -8.6624e-09 0
-8.27945e-13 5.57852e-13 0
7.33062e-13 4.62023e-13 0
8.70236e-14 1.62074e-08 0
-2.50825e-08 1.78402e-08 0
-2.28369e-08 5.28317e-10 0
-1.64518e-08 -1.33124e-09 0
-1.38446e-08 -3.02239e-11 0
-1.29991e-08 4.84555e-10 0
-1.26818e-08 5.63206e-10 0
-1.25254e-08 5.09366e-10 0
-1.24279e-08 4.23093e-10 0
-1.23586e-08 3.37173e-10 0
-1.23065e-08 2.62368e-10 0
-1.22667e-08 2.01118e-10 0
-1.22362e-08 1.52634e-10 0
-1.2213e-08 1.15039e-10 0
-1.21953e-08 8.62774e-11 0
-1.21819e-08 6.44738e-11 0
-1.21718e-08 4.80511e-11 0
-1.21642e-08 3.57388e-11 0
-1.21585e-08 2.65397e-11 0
-1.21543e-08 1.96843e-11 0
-1.21511e-08 1.45854e-11 0
-1.21488e-08 1.07986e-11 0
-1.2147e-08 7.98976e-12 0
-1.21457e-08 5.9082e-12 0
-1.21447e-08 4.36682e-12 0
-1.2144e-08 3.22613e-12 0
-1.21435e-08 2.38241e-12 0
-1.21431e-08 1.75857e-12 0
-1.21428e-08 1.29744e-12 0
-1.21426e-08 9.56602e-13 0
-1.21424e-08 7.04618e-13 0
-1.21423e-08 5.18177e-13 0
-1.21422e-08 3.79972e-13 0
-1.21421e-08 2.77095e-13 0
-1.21421e-08 1.99824e-13 0
-1.2142e-08 1.40646e-13 0
-1.2142e-08 9.34988e-14 0
-1.2142e-08 5.32867e-14 0
-1.2142e-08 1.57618e-14 0
-1.2142e-08 -2.13449e-14 0
0.0120826 9.06162e-09 0
0 -6.1542e-09 0
1.51726e-13 -4.96042e-09 0
-2.45185e-08 -6.77116e-09 0
-2.22455e-08 -2.35648e-09 0
-1.79238e-08 -1.08235e-09 0
-1.67226e-08 -2.8858e-09 0
-1.69991e-08 -5.74263e-09 0
-2.41035e-08 -1.45623e-08 0
-2.32369e-08 -1.11689e-08 0
-1.97336e-08 1.1601e-20 0
-1.4611e-08 2.64223e-08 0
-6.00985e-09 2.69517e-08 0
-9.04884e-09 -3.72804e-09 0
-1.21181e-08 -5.58938e-09 0
-1.34066e-08 -1.39477e-09 0
-1.38552e-08 1.57882e-10 0
-1.39742e-08 4.61707e-10 0
-1.3966e-08 4.45024e-10 0
-1.39132e-08 3.65061e-10 0
-1.38503e-08 2.84364e-10 0
-1.37911e-08 2.16712e-10 0
-1.37404e-08 1.6333e-10 0
-1.36992e-08 1.22308e-10 0
-1.36666e-08 9.12165e-11 0
-1.36412e-08 6.78433e-11 0
-1.36218e-08 5.03627e-11 0
-1.36071e-08 3.73345e-11 0
-1.3596e-08 2.76477e-11 0
-1.35877e-08 2.04578e-11 0
-1.35814e-08 1.51279e-11 0
-1.35768e-08 1.11807e-11 0
-1.35733e-08 8.25963e-12 0
-1.35707e-08 6.09933e-12 0
-1.35688e-08 4.50245e-12 0
-1.35674e-08 3.32257e-12 0
-1.35663e-08 2.4511e-12 0
-1.35655e-08 1.80763e-12 0
-1.35649e-08 1.33262e-12 0
-1.35645e-08 9.82011e-13 0
-1.35642e-08 7.23223e-13 0
-1.3564e-08 5.3215e-13 0
-1.35638e-08 3.9095e-13 0
-1.35637e-08 2.86389e-13 0
-1.35636e-08 2.08603e-13 0
-1.35635e-08 1.50131e-13 0
-1.35634e-08 1.0511e-13 0
-1.35634e-08 6.84722e-14 0
-1.35634e-08 3.50968e-14 0
-1.35634e-08 -9.43462e-16 0
-1.35634e-08 -4.39767e-14 0
0.0120145 1.40501e-08 0
0 -7.69522e-09 0
7.33699e-14 -4.22642e-09 0
-2.32271e-08 -5.6692e-09 0
-2.54124e-08 -1.92982e-09 0
-2.44901e-08 -3.69195e-10 0
-2.38709e-08 1.02977e-09 0
-2.40728e-08 8.87686e-10 0
-2.43718e-08 -3.91159e-10 0
-3.43637e-08 -5.8667e-09 0
-3.72834e-08 -1.47417e-08 0
-4.21909e-08 -7.64257e-09 0
-2.01126e-08 5.99921e-09 0
-2.05329e-08 7.43415e-09 0
-2.43388e-08 4.69209e-09 0
-2.52844e-08 2.52532e-09 0
-2.51744e-08 1.34701e-09 0
-2.48918e-08 7.6845e-10 0
-2.46328e-08 4.76255e-10 0
-2.44256e-08 3.14452e-10 0
-2.4266e-08 2.16036e-10 0
-2.41449e-08 1.51955e-10 0
-2.40536e-08 1.08415e-10 0
-2.39852e-08 7.80602e-11 0
-2.39341e-08 5.65544e-11 0
-2.38961e-08 4.11546e-11 0
-2.38679e-08 3.00442e-11 0
-2.38469e-08 2.19847e-11 0
-2.38313e-08 1.61148e-11 0
-2.38198e-08 1.18268e-11 0
-2.38113e-08 8.68736e-12 0
-2.3805e-08 6.3852e-12 0
-2.38004e-08 4.69501e-12 0
-2.37969e-08 3.4531e-12 0
-2.37944e-08 2.54004e-12 0
-2.37925e-08 1.8685e-12 0
-2.37911e-08 1.37447e-12 0
-2.37901e-08 1.01097e-12 0
-2.37894e-08 7.43478e-13 0
-2.37888e-08 5.46613e-13 0
-2.37884e-08 4.01694e-13 0
-2.37881e-08 2.94967e-13 0
-2.37879e-08 2.16288e-13 0
-2.37877e-08 1.5816e-13 0
-2.37876e-08 1.15003e-13 0
-2.37875e-08 8.25976e-14 0
-2.37874e-08 5.75983e-14 0
-2.37874e-08 3.69303e-14 0
-2.37874e-08 1.65089e-14 0
-2.37874e-08 -1.42505e-14 0
-2.37874e-08 -7.91599e-14 0
0.0108513 1.75825e-08 0
0 0 0
2.49783e-14 0 0
-1.19243e-08 0 0
-1.46536e-08 0 0
-1.5428e-08 0 0
-1.52107e-08 0 0
-1.36829e-08 0 0
-1.19523e-08 0 0
-1.11269e-08 0 0
-1.75497e-08 0 0
-2.75798e-08 0 0
-2.69735e-08 0 0
-2.3222e-08 0 0
-2.03414e-08 0 0
-1.86586e-08 0 0
-1.77552e-08 0 0
-1.7258e-08 0 0
-1.69635e-08 0 0
-1.67759e-08 0 0
-1.66501e-08 0 0
-1.65629e-08 0 0
-1.65012e-08 0 0
-1.6457e-08 0 0
-1.64251e-08 0 0
-1.64019e-08 0 0
-1.6385e-08 0 0
-1.63726e-08 0 0
-1.63635e-08 0 0
-1.63569e-08 0 0
-1.6352e-08 0 0
-1.63484e-08 0 0
-1.63458e-08 0 0
-1.63438e-08 0 0
-1.63424e-08 0 0
-1.63413e-08 0 0
-1.63406e-08 0 0
-1.634e-08 0 0
-1.63396e-08 0 0
-1.63393e-08 0 0
-1.6339e-08 0 0
-1.63389e-08 0 0
-1.63387e-08 0 0
-1.63387e-08 0 0
-1.63386e-08 0 0
-1.63385e-08 0 0
-1.63385e-08 0 0
-1.63385e-08 0 0
-1.63385e-08 0 0
-1.63385e-08 0 0
-1.63385e-08 0 0
0.00487682 0 0
0 0 6.11528e-09
2.56802e-14 0 3.43078e-09
-2.26392e-08 0 3.1944e-09
-2.62751e-08 0 -1.9815e-09
-2.09981e-08 0 -3.55596e-09
-7.33392e-09 0 -1.78832e-09
-1.18617e-08 0 4.49017e-10
-1.39967e-08 0 7.65578e-10
-1.47571e-08 0 3.4508e-10
-1.48942e-08 0 -1.21815e-10
-1.58273e-08 0 -2.54065e-10
-1.72718e-08 0 -2.09605e-10
-1.87265e-08 0 -1.28441e-10
-1.99713e-08 0 -6.63988e-11
-2.09685e-08 0 -3.062e-11
-2.17349e-08 0 -1.33401e-11
-2.23062e-08 0 -6.03935e-12
-2.27234e-08 0 -3.24704e-12
-2.3024e-08 0 -2.20776e-12
-2.32391e-08 0 -1.75134e-12
-2.33928e-08 0 -1.45673e-12
-2.35027e-08 0 -1.20365e-12
-2.35815e-08 0 -9.72424e-13
-2.36383e-08 0 -7.67623e-13
-2.36793e-08 0 -5.94248e-13
-2.37091e-08 0 -4.53054e-13
-2.37309e-08 0 -3.41422e-13
-2.37467e-08 0 -2.55069e-13
-2.37584e-08 0 -1.89328e-13
-2.37669e-08 0 -1.3986e-13
-2.37732e-08 0 -1.02951e-13
-2.37779e-08 0 -7.55833e-14
-2.37813e-08 0 -5.53827e-14
-2.37838e-08 0 -4.05226e-14
-2.37856e-08 0 -2.96181e-14
-2.3787e-08 0 -2.16302e-14
-2.3788e-08 0 -1.57855e-14
-2.37888e-08 0 -1.15139e-14
-2.37893e-08 0 -8.39322e-15
-2.37897e-08 0 -6.11375e-15
-2.379e-08 0 -4.44925e-15
-2.37903e-08 0 -3.23492e-15
-2.37904e-08 0 -2.35648e-15
-2.37905e-08 0 -1.74418e-15
-2.37906e-08 0 -1.37569e-15
-2.37907e-08 0 -1.24346e-15
-2.37907e-08 0 -1.0111e-15
-2.37908e-08 0 1.40647e-15
-2.37908e-08 0 1.54387e-14
-2.37909e-08 0 6.50544e-14
0.0108512 0 -1.50078e-08
0.0036 9.83281e-09 5.32813e-09
0.00359998 -0.00449876 -0.00221622
0.0130166 -0.00887134 -0.00388736
0.022891 -0.00883576 -0.00273063
0.0331541 -0.00884736 -0.00170424
0.0452146 -0.0052437 -0.000838229
0.0464043 -0.000468613 -0.000257075
0.04589 0.00229736 -8.88681e-05
0.040571 0.00403583 -8.19867e-05
0.0355279 0.00396296 -0.000103993
0.031404 0.00319879 -7.71433e-05
0.0284741 0.00228757 -4.65435e-05
0.0265886 0.00150428 -2.52659e-05
0.0254481 0.000930138 -1.27502e-05
0.0247908 0.000546713 -6.11561e-06
0.0244301 0.000305974 -2.85939e-06
0.0242434 0.000162056 -1.34402e-06
0.0241544 7.97726e-05 -6.58515e-07
0.0241177 3.48345e-05 -3.48173e-07
0.0241074 1.15863e-05 -2.02439e-07
0.0241094 4.36949e-07 -1.28695e-07
0.0241162 -4.25012e-06 -8.74204e-08
0.0241241 -5.66736e-06 -6.18633e-08
0.0241315 -5.55756e-06 -4.47493e-08
0.0241378 -4.83314e-06 -3.27084e-08
0.0241429 -3.94612e-06 -2.40081e-08
0.0241469 -3.10181e-06 -1.76425e-08
0.0241499 -2.37869e-06 -1.29622e-08
0.0241522 -1.79371e-06 -9.51671e-09
0.0241539 -1.33666e-06 -6.9813e-09
0.0241551 -9.87602e-07 -5.11741e-09
0.024156 -7.25159e-07 -3.74868e-09
0.0241567 -5.3e-07 -2.74459e-09
0.0241572 -3.86023e-07 -2.00866e-09
0.0241575 -2.80423e-07 -1.46969e-09
0.0241578 -2.03303e-07 -1.07529e-09
0.024158 -1.47165e-07 -7.86996e-10
0.0241581 -1.064e-07 -5.76715e-10
0.0241582 -7.68518e-08 -4.24091e-10
0.0241583 -5.5465e-08 -3.14658e-10
0.0241583 -4.0002e-08 -2.38615e-10
0.0241583 -2.88321e-08 -1.90081e-10
0.0241584 -2.07724e-08 -1.66709e-10
0.0241584 -1.49707e-08 -1.69197e-10
0.0241584 -1.08257e-08 -1.99311e-10
0.0241584 -7.93746e-09 -2.52135e-10
0.0241584 -6.10428e-09 -3.10217e-10
0.0241584 -5.66535e-09 -6.50845e-10
0.0241584 -1.01449e-08 -4.54921e-09
0.0241585 -2.81497e-08 -2.08554e-08
0.0241585 -4.1901e-08 -3.35765e-08
0.01 1.05763e-08 4.24895e-09
0.01 -0.00738645 -0.00389073
0.0173274 -0.0155732 -0.00664071
0.0258205 -0.0173485 -0.00427782
0.035545 -0.02054 -0.00230792
0.0532301 -0.0122532 -0.000788859
0.0526109 -0.000194864 5.03059e-05
0.0531433 0.00608635 0.000111793
0.0442933 0.0105086 -1.99689e-05
0.037286 0.00926337 -0.000149779
0.0326886 0.00711251 -0.00012203
0.0298064 0.00484855 -6.83631e-05
0.0282023 0.0030437 -3.4702e-05
0.0273615 0.00180692 -1.61952e-05
0.0269438 0.00102249 -6.8998e-06
0.0267527 0.000549568 -2.653e-06
0.0266779 0.000276755 -8.81481e-07
0.026659 0.000126212 -2.14739e-07
0.0266647 4.72171e-05 7.36214e-10
0.0266792 8.43303e-06 4.98515e-08
0.0266954 -8.67477e-06 4.66379e-08
0.0267102 -1.46601e-05 3.23056e-08
0.0267224 -1.53186e-05 1.94767e-08
0.0267322 -1.37112e-05 1.06358e-08
0.0267397 -1.13765e-05 5.24336e-09
0.0267454 -9.03336e-06 2.21362e-09
0.0267497 -6.97531e-06 6.34383e-10
0.0267528 -5.28614e-06 -1.15557e-10
0.0267552 -3.9541e-06 -4.18833e-10
0.0267569 -2.93032e-06 -4.96664e-10
0.0267581 -2.15698e-06 -4.70703e-10
0.026759 -1.57985e-06 -4.04628e-10
0.0267597 -1.15286e-06 -3.29797e-10
0.0267601 -8.38934e-07 -2.60253e-10
0.0267605 -6.09206e-07 -2.01182e-10
0.0267607 -4.41672e-07 -1.5352e-10
0.0267609 -3.19812e-07 -1.16397e-10
0.026761 -2.31348e-07 -8.8401e-11
0.0267611 -1.67223e-07 -6.82261e-11
0.0267612 -1.20797e-07 -5.50518e-11
0.0267612 -8.72194e-08 -4.88298e-11
0.0267613 -6.29625e-08 -5.05754e-11
0.0267613 -4.54766e-08 -6.26211e-11
0.0267613 -3.29422e-08 -8.84706e-11
0.0267613 -2.41143e-08 -1.31055e-10
0.0267614 -1.82835e-08 -1.86744e-10
0.0267614 -1.54425e-08 -2.47569e-10
0.0267614 -1.64173e-08 -6.33317e-10
0.0267614 -2.14454e-08 -4.97052e-09
0.0267614 -3.03586e-08 -2.24056e-08
0.0267614 -3.58395e-08 -3.58585e-08
0.0148 -1.03043e-08 1.10058e-08
0.0148 -0.00836685 -0.00519343
0.0195494 -0.0183324 -0.00897325
0.0244531 -0.022435 -0.00573509
0.0268053 -0.0335627 -0.0028592
0.0275572 -0.0210935 -0.000812574
0.026744 -1.55533e-07 0.000180225
0.027472 0.0108313 0.000171448
0.0329069 0.0200323 9.16814e-05
0.0303938 0.0156761 -2.79633e-05
0.0280244 0.0107478 -7.17072e-05
0.0267588 0.00681282 -5.54446e-05
0.0263006 0.00396967 -3.06891e-05
0.0262504 0.00219883 -1.35794e-05
0.0263505 0.00116023 -4.61886e-06
0.0264829 0.000573997 -8.64519e-07
0.0266011 0.000256716 3.65462e-07
0.0266931 9.33726e-05 5.8672e-07
0.02676 1.47607e-05 4.88676e-07
0.0268071 -1.90952e-05 3.3616e-07
0.0268397 -3.04478e-05 2.10328e-07
0.0268622 -3.12557e-05 1.24111e-07
0.0268778 -2.77051e-05 7.01908e-08
0.0268885 -2.28422e-05 3.82851e-08
0.026896 -1.80576e-05 2.01273e-08
0.0269013 -1.38996e-05 1.01156e-08
0.026905 -1.05097e-05 4.75969e-09
0.0269076 -7.84864e-06 1.99042e-09
0.0269094 -5.80987e-06 6.2202e-10
0.0269108 -4.27328e-06 -7.92271e-12
0.0269117 -3.12836e-06 -2.61316e-10
0.0269124 -2.28221e-06 -3.3157e-10
0.0269129 -1.66058e-06 -3.19448e-10
0.0269132 -1.20588e-06 -2.75709e-10
0.0269135 -8.74364e-07 -2.24686e-10
0.0269137 -6.3325e-07 -1.77098e-10
0.0269138 -4.58208e-07 -1.36928e-10
0.0269139 -3.31312e-07 -1.05053e-10
0.026914 -2.39418e-07 -8.11584e-11
0.026914 -1.72932e-07 -6.47595e-11
0.0269141 -1.24867e-07 -5.58293e-11
0.0269141 -9.01572e-08 -5.52517e-11
0.0269141 -6.51461e-08 -6.51861e-11
0.0269141 -4.72251e-08 -8.91465e-11
0.0269141 -3.45855e-08 -1.30849e-10
0.0269141 -2.60389e-08 -1.88684e-10
0.0269141 -2.08098e-08 -2.55326e-10
0.0269141 -1.8412e-08 -6.25816e-10
0.0269141 -1.88931e-08 -4.75263e-09
0.0269141 -2.19135e-08 -2.12464e-08
0.0269141 -2.39194e-08 -3.39495e-08
0.018 -2.87124e-08 7.72084e-09
0.018 -0.00754551 -0.00619236
0.0200724 -0.0164932 -0.0108363
0.0207165 -0.018042 -0.00681688
0.0161823 -0.0198486 -0.003261
-5.05796e-09 -0.0107544 -0.00108806
1.85213e-06 8.12074e-07 2.14663e-09
-8.48134e-07 9.25647e-07 2.03604e-05
0.010833 0.00764331 6.43563e-05
0.0200337 0.0142 6.45936e-05
0.0214459 0.0107925 8.08938e-06
0.0224787 0.00660244 -2.80673e-05
0.0237413 0.00356936 -2.30237e-05
0.0247993 0.00176566 -9.43184e-06
0.0255677 0.000793835 -1.70457e-06
0.0260819 0.000300444 1.07371e-06
0.0264085 6.70334e-05 1.54575e-06
0.0266097 -3.25039e-05 1.2547e-06
0.0267315 -6.67715e-05 8.45227e-07
0.0268048 -7.13329e-05 5.16985e-07
0.0268488 -6.38615e-05 2.97214e-07
0.0268755 -5.27304e-05 1.62906e-07
0.0268917 -4.16312e-05 8.53663e-08
0.0269018 -3.1978e-05 4.24342e-08
0.0269081 -2.41275e-05 1.95244e-08
0.0269121 -1.79844e-05 7.775e-09
0.0269148 -1.32921e-05 2.05592e-09
0.0269165 -9.76472e-06 -5.05146e-10
0.0269176 -7.14192e-06 -1.47375e-09
0.0269184 -5.20674e-06 -1.68177e-09
0.026919 -3.78679e-06 -1.55876e-09
0.0269194 -2.74911e-06 -1.3182e-09
0.0269196 -1.99304e-06 -1.0602e-09
0.0269198 -1.44339e-06 -8.26994e-10
0.0269199 -1.04447e-06 -6.32445e-10
0.02692 -7.55312e-07 -4.77388e-10
0.0269201 -5.45922e-07 -3.57409e-10
0.0269201 -3.94408e-07 -2.66638e-10
0.0269202 -2.8484e-07 -1.99527e-10
0.0269202 -2.05642e-07 -1.5165e-10
0.0269202 -1.48424e-07 -1.20116e-10
0.0269202 -1.07109e-07 -1.039e-10
0.0269202 -7.73076e-08 -1.04203e-10
0.0269202 -5.58597e-08 -1.24693e-10
0.0269203 -4.0493e-08 -1.70383e-10
0.0269203 -2.95768e-08 -2.40137e-10
0.0269203 -2.19573e-08 -3.15564e-10
0.0269203 -1.68337e-08 -6.5761e-10
0.0269203 -1.38276e-08 -4.64384e-09
0.0269203 -1.23709e-08 -2.07236e-08
0.0269202 -1.19005e-08 -3.31238e-08
0.0196 -3.05246e-08 -5.5103e-09
0.0196 -0.00496808 -0.0067497
0.0201087 -0.0103857 -0.0118268
0.0189426 -0.0104618 -0.0072972
0.0142782 -0.00835912 -0.00332407
0.00406552 -0.00331497 -0.00137025
1.45858e-06 -1.35525e-06 -0.00026625
5.07119e-07 -5.07119e-07 -7.36412e-10
-8.16938e-07 8.79331e-07 2.07906e-06
0.0076447 0.00506691 1.58053e-05
0.0142023 0.00831592 7.37437e-06
0.0178665 0.00453459 -2.37983e-05
0.0212749 0.00166184 -2.62062e-05
0.0236138 0.00037916 -1.09751e-05
0.0250482 -0.000119575 -1.82188e-06
0.02588 -0.000265961 1.34543e-06
0.0263484 -0.000270995 1.75669e-06
0.0266081 -0.000229735 1.33754e-06
0.0267508 -0.00018045 8.4667e-07
0.0268287 -0.000136498 4.85057e-07
0.0268711 -0.000101193 2.58923e-07
0.0268941 -7.41834e-05 1.29307e-07
0.0269065 -5.40386e-05 5.9268e-08
0.0269131 -3.92213e-05 2.33161e-08
0.0269167 -2.84076e-05 5.91835e-09
0.0269186 -2.05506e-05 -1.78453e-09
0.0269195 -1.48565e-05 -4.63535e-09
0.02692 -1.07357e-05 -5.19477e-09
0.0269203 -7.75603e-06 -4.77317e-09
0.0269204 -5.60246e-06 -4.01445e-09
0.0269205 -4.04638e-06 -3.2162e-09
0.0269205 -2.92222e-06 -2.50131e-09
0.0269205 -2.11018e-06 -1.90813e-09
0.0269205 -1.52365e-06 -1.43676e-09
0.0269205 -1.10005e-06 -1.07215e-09
0.0269205 -7.94133e-07 -7.95184e-10
0.0269205 -5.73224e-07 -5.87553e-10
0.0269205 -4.13712e-07 -4.3365e-10
0.0269205 -2.9854e-07 -3.21085e-10
0.0269205 -2.15386e-07 -2.40636e-10
0.0269205 -1.55347e-07 -1.86121e-10
0.0269205 -1.11992e-07 -1.54364e-10
0.0269204 -8.06683e-08 -1.4532e-10
0.0269204 -5.80055e-08 -1.6193e-10
0.0269204 -4.15437e-08 -2.08072e-10
0.0269204 -2.94628e-08 -2.79705e-10
0.0269204 -2.03859e-08 -3.53898e-10
0.0269204 -1.32671e-08 -6.82648e-10
0.0269204 -7.42748e-09 -4.62556e-09
0.0269204 -2.36938e-09 -2.05957e-08
0.0269204 3.10152e-11 -3.29183e-08
0.0196 -1.88616e-08 -1.83043e-08
0.0196 -0.00210731 -0.00678834
0.0203986 -0.00419878 -0.0118085
0.0202665 -0.00349608 -0.00725092
0.0173876 -0.000428677 -0.0032473
0.0131579 0.00541877 -0.00153824
0.00814009 0.00444286 -0.000661064
1.46493e-06 -1.24558e-06 -0.000139387
4.2864e-07 -4.2864e-07 -7.87255e-10
-7.87941e-07 8.45935e-07 2.8788e-07
0.00506783 0.000576431 1.93624e-05
0.0131255 -0.000457734 -1.52527e-05
0.0197534 -0.00216531 -5.78232e-05
0.0233861 -0.00200041 -3.19696e-05
0.0251887 -0.00146936 -1.0416e-05
0.0260774 -0.00099886 -1.96587e-06
0.0265171 -0.000660926 2.92122e-07
0.0267343 -0.00043496 5.71762e-07
0.0268404 -0.000287516 4.05491e-07
0.026891 -0.00019176 2.22409e-07
0.0269141 -0.000129277 1.02095e-07
0.0269238 -8.81166e-05 3.61999e-08
0.026927 -6.06846e-05 4.30368e-09
0.0269274 -4.21784e-05 -9.05037e-09
0.0269267 -2.95471e-05 -1.31705e-08
0.0269255 -2.08341e-05 -1.31065e-08
0.0269244 -1.47684e-05 -1.1415e-08
0.0269235 -1.05128e-05 -9.3075e-09
0.0269227 -7.50833e-06 -7.30782e-09
0.0269221 -5.37623e-06 -5.60462e-09
0.0269216 -3.85711e-06 -4.23285e-09
0.0269213 -2.77135e-06 -3.16374e-09
0.026921 -1.99344e-06 -2.34766e-09
0.0269208 -1.43506e-06 -1.7333e-09
0.0269206 -1.0337e-06 -1.2752e-09
0.0269205 -7.44901e-07 -9.35998e-10
0.0269205 -5.36936e-07 -6.86285e-10
0.0269204 -3.87091e-07 -5.03565e-10
0.0269204 -2.79074e-07 -3.71111e-10
0.0269203 -2.01176e-07 -2.7695e-10
0.0269203 -1.44969e-07 -2.13157e-10
0.0269203 -1.04377e-07 -1.75482e-10
0.0269203 -7.50041e-08 -1.63229e-10
0.0269203 -5.36504e-08 -1.78944e-10
0.0269203 -3.79543e-08 -2.26276e-10
0.0269203 -2.61191e-08 -3.00904e-10
0.0269203 -1.66974e-08 -3.79183e-10
0.0269203 -8.44723e-09 -7.13152e-10
0.0269203 -3.79743e-10 -4.67558e-09
0.0269203 7.83442e-09 -2.07102e-08
0.0269203 1.19586e-08 -3.30808e-08
0.018 -1.23299e-08 -2.35513e-08
0.018 0.000202675 -0.00639626
0.0200713 0.00052093 -0.0110044
0.0216906 0.00115027 -0.00669076
0.0213788 0.00319029 -0.003038
0.0208929 0.00811834 -0.00145353
0.0214727 0.0140909 -0.000749185
0.0135432 0.00833083 -0.000327825
1.49829e-06 -9.92869e-07 -7.67733e-05
-6.67885e-07 -1.07774e-06 1.08509e-08
1.01414e-07 -0.00481143 0.000130491
0.0127126 -0.0101429 8.92265e-05
0.021355 -0.00857904 -8.03342e-05
0.0249717 -0.00504289 -5.49385e-05
0.0262755 -0.00280483 -2.09761e-05
0.0267493 -0.00159216 -6.62326e-06
0.02692 -0.000927197 -1.9406e-06
0.0269742 -0.00055277 -5.61694e-07
0.0269835 -0.000337106 -1.81387e-07
0.0269766 -0.000210219 -8.06779e-08
0.0269653 -0.00013395 -5.18612e-08
0.0269541 -8.71015e-05 -3.96819e-08
0.0269446 -5.7695e-05 -3.12393e-08
0.0269369 -3.8846e-05 -2.42049e-08
0.026931 -2.65242e-05 -1.83715e-08
0.0269265 -1.83245e-05 -1.37223e-08
0.0269232 -1.27816e-05 -1.01397e-08
0.0269208 -8.98438e-06 -7.44198e-09
0.026919 -6.35383e-06 -5.44003e-09
0.0269176 -4.51492e-06 -3.96749e-09
0.0269167 -3.22002e-06 -2.88995e-09
0.026916 -2.30297e-06 -2.10377e-09
0.0269155 -1.65061e-06 -1.53109e-09
0.0269151 -1.18493e-06 -1.11429e-09
0.0269148 -8.51644e-07 -8.11122e-10
0.0269146 -6.12629e-07 -5.90787e-10
0.0269145 -4.40963e-07 -4.30922e-10
0.0269144 -3.17526e-07 -3.15431e-10
0.0269143 -2.28686e-07 -2.32925e-10
0.0269143 -1.64694e-07 -1.75688e-10
0.0269142 -1.18554e-07 -1.39093e-10
0.0269142 -8.52306e-08 -1.214e-10
0.0269142 -6.10824e-08 -1.23832e-10
0.0269142 -4.3447e-08 -1.50514e-10
0.0269142 -3.03365e-08 -2.06828e-10
0.0269142 -2.0191e-08 -2.91348e-10
0.0269142 -1.16496e-08 -3.85996e-10
0.0269142 -3.30086e-09 -7.55797e-10
0.0269142 6.40217e-09 -4.82922e-09
0.0269142 1.78782e-08 -2.12116e-08
0.0269141 2.39653e-08 -3.38442e-08
0.0148 -1.06742e-08 -2.52419e-08
0.0148 0.00146126 -0.00567108
0.0188014 0.00287721 -0.00957677
0.0223386 0.00307681 -0.00571069
0.0243349 0.00447207 -0.00267645
0.0259952 0.00738048 -0.00137444
0.0290795 0.0128575 -0.000780508
0.0333679 0.0219236 -0.00037925
0.0284071 0.0136354 3.00424e-05
0.0300239 1.53848e-14 0.000336339
0.0334889 -0.0121642 0.000410671
0.0328277 -0.0218291 0.000178839
0.0303729 -0.0143996 -7.07658e-05
0.0288647 -0.00690084 -6.32676e-05
0.0280476 -0.00323711 -2.67267e-05
0.0275755 -0.00163926 -9.25984e-06
0.0272877 -0.000884192 -2.99829e-06
0.027107 -0.000497771 -9.26621e-07
0.0269916 -0.000289663 -2.59515e-07
0.0269167 -0.000173511 -4.97747e-08
0.0268675 -0.000106747 1.2161e-08
0.0268346 -6.73226e-05 2.67306e-08
0.0268124 -4.34356e-05 2.66296e-08
0.0267972 -2.86002e-05 2.2543e-08
0.0267867 -1.91686e-05 1.79271e-08
0.0267794 -1.30421e-05 1.38292e-08
0.0267742 -8.98506e-06 1.04852e-08
0.0267705 -6.25314e-06 7.86328e-09
0.0267679 -4.38723e-06 5.85304e-09
0.0267661 -3.09778e-06 4.33352e-09
0.0267648 -2.19818e-06 3.19594e-09
0.0267638 -1.56579e-06 2.35012e-09
0.0267631 -1.11858e-06 1.72435e-09
0.0267626 -8.00861e-07 1.26306e-09
0.0267623 -5.74328e-07 9.23882e-10
0.026762 -4.1237e-07 6.74878e-10
0.0267619 -2.9634e-07 4.92113e-10
0.0267617 -2.1308e-07 3.5767e-10
0.0267616 -1.53258e-07 2.58022e-10
0.0267616 -1.10227e-07 1.82693e-10
0.0267615 -7.92291e-08 1.23086e-10
0.0267615 -5.68468e-08 7.13943e-11
0.0267614 -4.0606e-08 1.95579e-11
0.0267614 -2.86899e-08 -4.15123e-11
0.0267614 -1.97214e-08 -1.21385e-10
0.0267614 -1.25785e-08 -2.24525e-10
0.0267614 -6.18081e-09 -3.46384e-10
0.0267614 9.24763e-10 -7.84692e-10
0.0267614 1.13351e-08 -5.0831e-09
0.0267614 2.68281e-08 -2.23277e-08
0.0267614 3.58638e-08 -3.56478e-08
0.01 -1.67318e-08 -2.93701e-08
0.01 0.00127307 -0.00459034
0.0157959 0.00242231 -0.00748416
0.0205531 0.00235271 -0.00427436
0.0240491 0.0031095 -0.00207554
0.0278363 0.00523973 -0.00113729
0.0329628 0.007718 -0.00078253
0.0415806 0.00949459 -0.000478342
0.0553618 0.0034795 6.83255e-06