# vtk DataFile Version 2.0
Tobias Weinzierl: CPU, Manycore and Cluster Computing
ASCII

DATASET STRUCTURED_POINTS
DIMENSIONS  51 11 6

ORIGIN 0 0 0 

SPACING 0.1 0.1 0.1 

POINT_DATA 3366

VECTORS velocity float
0 0 0
-1.07976e-16 0 0
-1.43243e-08 0 0
-2.05506e-08 0 0
-2.10215e-08 0 0
-1.80919e-08 0 0
-2.22827e-08 0 0
-2.27381e-08 0 0
-2.14626e-08 0 0
-1.99875e-08 0 0
-1.93479e-08 0 0
-1.93164e-08 0 0
-1.95742e-08 0 0
-1.99355e-08 0 0
-2.03066e-08 0 0
-2.06404e-08 0 0
-2.09186e-08 0 0
-2.114e-08 0 0
-2.13109e-08 0 0
-2.14404e-08 0 0
-2.15375e-08 0 0
-2.16097e-08 0 0
-2.16632e-08 0 0
-2.17027e-08 0 0
-2.1732e-08 0 0
-2.17536e-08 0 0
-2.17695e-08 0 0
-2.17813e-08 0 0
-2.179e-08 0 0
-2.17965e-08 0 0
-2.18012e-08 0 0
-2.18047e-08 0 0
-2.18074e-08 0 0
-2.18093e-08 0 0
-2.18107e-08 0 0
-2.18118e-08 0 0
-2.18125e-08 0 0
-2.18131e-08 0 0
-2.18135e-08 0 0
-2.18139e-08 0 0
-2.18141e-08 0 0
-2.18143e-08 0 0
-2.18144e-08 0 0
-2.18145e-08 0 0
-2.18146e-08 0 0
-2.18146e-08 0 0
-2.18146e-08 0 0
-2.18147e-08 0 0
-2.18147e-08 0 0
-2.18148e-08 0 0
0.00564979 0 0
0 7.72698e-09 0
4.39646e-15 1.01124e-08 0
-2.48339e-08 1.60078e-08 0
-3.01693e-08 7.19167e-09 0
-2.74673e-08 -8.3883e-10 0
-1.51905e-08 1.89943e-09 0
-2.51977e-08 4.20319e-09 0
-2.48887e-08 -1.2665e-09 0
-2.22319e-08 -2.87338e-09 0
-2.0332e-08 -1.98497e-09 0
-2.10929e-08 -4.99823e-10 0
-2.27557e-08 3.54204e-10 0
-2.43235e-08 6.95948e-10 0
-2.56368e-08 7.73745e-10 0
-2.6693e-08 7.25982e-10 0
-2.75128e-08 6.22949e-10 0
-2.81314e-08 5.05673e-10 0
-2.85896e-08 3.95969e-10 0
-2.89252e-08 3.02909e-10 0
-2.917e-08 2.28293e-10 0
-2.93481e-08 1.70477e-10 0
-2.9478e-08 1.26608e-10 0
-2.95729e-08 9.37414e-11 0
-2.96423e-08 6.93012e-11 0
-2.96932e-08 5.12013e-11 0
-2.97307e-08 3.78245e-11 0
-2.97583e-08 2.79463e-11 0
-2.97787e-08 2.06529e-11 0
-2.97937e-08 1.52667e-11 0
-2.98049e-08 1.12877e-11 0
-2.98131e-08 8.34716e-12 0
-2.98192e-08 6.17333e-12 0
-2.98237e-08 4.56589e-12 0
-2.98271e-08 3.37701e-12 0
-2.98295e-08 2.4976e-12 0
-2.98314e-08 1.84703e-12 0
-2.98327e-08 1.36573e-12 0
-2.98337e-08 1.00963e-12 0
-2.98345e-08 7.46146e-13 0
-2.9835e-08 5.51147e-13 0
-2.98354e-08 4.06784e-13 0
-2.98357e-08 2.99838e-13 0
-2.9836e-08 2.20531e-13 0
-2.98361e-08 1.61643e-13 0
-2.98362e-08 1.17894e-13 0
-2.98363e-08 8.56164e-14 0
-2.98364e-08 6.30156e-14 0
-2.98364e-08 5.17331e-14 0
-2.98365e-08 6.19955e-14 0
-2.98366e-08 1.23587e-13 0
0.011941 -2.36337e-08 0
0 -4.335e-10 0
6.56907e-14 1.26573e-08 0
-2.42415e-08 1.9813e-08 0
-1.93439e-08 8.01278e-09 0
-1.5657e-08 -8.56982e-09 0
-2.12213e-08 1.80017e-10 0
-2.04962e-08 8.65901e-09 0
-2.27498e-08 -3.95809e-09 0
4.20571e-10 -4.4893e-09 0
3.40672e-10 -2.90209e-10 0
-2.98524e-09 3.13051e-09 0
-6.67669e-09 3.66574e-09 0
-9.27292e-09 3.11721e-09 0
-1.10561e-08 2.48726e-09 0
-1.23039e-08 1.93132e-09 0
-1.31689e-08 1.46375e-09 0
-1.3763e-08 1.08848e-09 0
-1.41706e-08 7.99564e-10 0
-1.44521e-08 5.83535e-10 0
-1.46485e-08 4.24859e-10 0
-1.47872e-08 3.0939e-10 0
-1.48862e-08 2.25671e-10 0
-1.49576e-08 1.64982e-10 0
-1.50095e-08 1.20908e-10 0
-1.50474e-08 8.88125e-11 0
-1.50753e-08 6.53692e-11 0
-1.50958e-08 4.81955e-11 0
-1.5111e-08 3.55818e-11 0
-1.51223e-08 2.62969e-11 0
-1.51306e-08 1.945e-11 0
-1.51368e-08 1.43939e-11 0
-1.51414e-08 1.06563e-11 0
-1.51448e-08 7.89105e-12 0
-1.51473e-08 5.84412e-12 0
-1.51492e-08 4.3283e-12 0
-1.51506e-08 3.2055e-12 0
-1.51516e-08 2.37369e-12 0
-1.51524e-08 1.75736e-12 0
-1.51529e-08 1.30065e-12 0
-1.51534e-08 9.62162e-13 0
-1.51537e-08 7.11226e-13 0
-1.51539e-08 5.25122e-13 0
-1.51541e-08 3.87044e-13 0
-1.51542e-08 2.84621e-13 0
-1.51543e-08 2.08864e-13 0
-1.51544e-08 1.53378e-13 0
-1.51544e-08 1.13541e-13 0
-1.51544e-08 8.67447e-14 0
-1.51545e-08 7.49029e-14 0
-1.51545e-08 8.118e-14 0
0.0126012 -1.71919e-08 0
0 -9.64171e-09 0
1.9064e-13 1.0957e-08 0
-3.00502e-08 1.76377e-08 0
-1.65782e-08 1.05445e-08 0
-1.18091e-08 1.04924e-08 0
-2.41227e-08 6.62857e-09 0
-1.75813e-08 4.84196e-14 0
-2.05993e-08 -2.59079e-08 0
-2.5122e-08 -2.64882e-08 0
-1.07758e-08 3.05532e-09 0
-8.44801e-09 7.84526e-09 0
-9.25444e-09 7.3507e-09 0
-1.05637e-08 5.42269e-09 0
-1.16683e-08 3.95966e-09 0
-1.24745e-08 2.90009e-09 0
-1.30192e-08 2.10247e-09 0
-1.33801e-08 1.51191e-09 0
-1.36225e-08 1.08446e-09 0
-1.37895e-08 7.79138e-10 0
-1.39077e-08 5.61945e-10 0
-1.39931e-08 4.07189e-10 0
-1.40558e-08 2.96414e-10 0
-1.41022e-08 2.16669e-10 0
-1.41367e-08 1.58933e-10 0
-1.41625e-08 1.16913e-10 0
-1.41818e-08 8.61952e-11 0
-1.41962e-08 6.36565e-11 0
-1.4207e-08 4.7071e-11 0
-1.4215e-08 3.48387e-11 0
-1.4221e-08 2.58018e-11 0
-1.42255e-08 1.91172e-11 0
-1.42288e-08 1.41681e-11 0
-1.42313e-08 1.05016e-11 0
-1.42331e-08 7.78428e-12 0
-1.42345e-08 5.76982e-12 0
-1.42355e-08 4.27621e-12 0
-1.42362e-08 3.1687e-12 0
-1.42368e-08 2.34744e-12 0
-1.42372e-08 1.73841e-12 0
-1.42375e-08 1.2867e-12 0
-1.42378e-08 9.51574e-13 0
-1.42379e-08 7.028e-13 0
-1.4238e-08 5.17944e-13 0
-1.42381e-08 3.80354e-13 0
-1.42382e-08 2.77682e-13 0
-1.42382e-08 2.00929e-13 0
-1.42383e-08 1.44226e-13 0
-1.42383e-08 1.04195e-13 0
-1.42383e-08 7.8345e-14 0
-1.42383e-08 6.25583e-14 0
0.0126203 -1.09351e-08 0
0 -1.6164e-08 0
2.93217e-13 5.96064e-09 0
-3.71604e-08 8.23399e-09 0
-2.05145e-08 6.19116e-09 0
-9.36995e-09 9.14309e-09 0
-3.72988e-14 5.22528e-09 0
-1.03242e-12 -9.85377e-13 0
8.61271e-13 -1.05903e-12 0
-2.63118e-08 -1.6138e-08 0
-2.76827e-08 -1.68893e-08 0
-1.54771e-08 2.37816e-09 0
-1.39003e-08 6.38465e-09 0
-1.36236e-08 5.851e-09 0
-1.37508e-08 4.52758e-09 0
-1.38705e-08 3.31715e-09 0
-1.39368e-08 2.36822e-09 0
-1.39787e-08 1.68119e-09 0
-1.40133e-08 1.19864e-09 0
-1.40455e-08 8.61169e-10 0
-1.40753e-08 6.23534e-10 0
-1.41019e-08 4.54487e-10 0
-1.41248e-08 3.33017e-10 0
-1.41438e-08 2.44979e-10 0
-1.41592e-08 1.80735e-10 0
-1.41713e-08 1.3361e-10 0
-1.41809e-08 9.89127e-11 0
-1.41882e-08 7.32951e-11 0
-1.41938e-08 5.43454e-11 0
-1.41981e-08 4.03097e-11 0
-1.42013e-08 2.99048e-11 0
-1.42037e-08 2.21872e-11 0
-1.42055e-08 1.64609e-11 0
-1.42069e-08 1.22115e-11 0
-1.42079e-08 9.05788e-12 0
-1.42086e-08 6.71754e-12 0
-1.42092e-08 4.98085e-12 0
-1.42096e-08 3.69222e-12 0
-1.42099e-08 2.73614e-12 0
-1.42101e-08 2.02679e-12 0
-1.42103e-08 1.50045e-12 0
-1.42104e-08 1.10979e-12 0
-1.42105e-08 8.19624e-13 0
-1.42106e-08 6.03809e-13 0
-1.42107e-08 4.42921e-13 0
-1.42107e-08 3.22592e-13 0
-1.42107e-08 2.32292e-13 0
-1.42107e-08 1.64323e-13 0
-1.42107e-08 1.13143e-13 0
-1.42107e-08 7.43323e-14 0
-1.42108e-08 4.30436e-14 0
0.0126207 -5.35136e-09 0
0 -1.33224e-08 0
3.91713e-13 2.70257e-09 0
-4.265e-08 4.51922e-09 0
-2.75469e-08 1.9494e-09 0
-1.64637e-08 1.30062e-11 0
-8.17022e-09 -1.19744e-10 0
-1.01992e-12 9.47425e-13 0
-8.61539e-14 8.61539e-14 0
8.31727e-13 -8.90815e-13 0
-1.62217e-08 -8.93755e-09 0
-1.72324e-08 -6.17232e-09 0
-1.79287e-08 5.80199e-09 0
-1.70017e-08 5.51802e-09 0
-1.60226e-08 4.29015e-09 0
-1.52806e-08 3.08657e-09 0
-1.4811e-08 2.1863e-09 0
-1.45381e-08 1.56378e-09 0
-1.43851e-08 1.133e-09 0
-1.4301e-08 8.29351e-10 0
-1.42556e-08 6.11385e-10 0
-1.42316e-08 4.52735e-10 0
-1.42192e-08 3.36145e-10 0
-1.42131e-08 2.49935e-10 0
-1.42102e-08 1.85953e-10 0
-1.42091e-08 1.38372e-10 0
-1.42088e-08 1.02954e-10 0
-1.42088e-08 7.65823e-11 0
-1.4209e-08 5.69466e-11 0
-1.42092e-08 4.23304e-11 0
-1.42094e-08 3.14543e-11 0
-1.42096e-08 2.33644e-11 0
-1.42098e-08 1.73493e-11 0
-1.42099e-08 1.28786e-11 0
-1.421e-08 9.55701e-12 0
-1.42101e-08 7.08992e-12 0
-1.42101e-08 5.25808e-12 0
-1.42102e-08 3.89828e-12 0
-1.42102e-08 2.88907e-12 0
-1.42102e-08 2.14015e-12 0
-1.42102e-08 1.58437e-12 0
-1.42102e-08 1.17179e-12 0
-1.42102e-08 8.65277e-13 0
-1.42102e-08 6.37208e-13 0
-1.42102e-08 4.67008e-13 0
-1.42102e-08 3.39333e-13 0
-1.42102e-08 2.42714e-13 0
-1.42102e-08 1.68537e-13 0
-1.42102e-08 1.10274e-13 0
-1.42102e-08 6.25967e-14 0
-1.42102e-08 2.09476e-14 0
0.0126207 2.75106e-11 0
0 -8.51201e-09 0
4.33167e-13 -7.20508e-10 0
-4.2555e-08 -3.96269e-10 0
-2.75272e-08 -3.09581e-10 0
-1.9704e-08 -9.57112e-10 0
-1.51174e-08 -8.25192e-09 0
-1.23925e-08 -7.92862e-09 0
-1.03644e-12 8.58414e-13 0
-2.66875e-14 2.66875e-14 0
8.57823e-13 -8.05631e-13 0
-8.96307e-09 3.89364e-09 0
-2.55042e-08 6.41863e-09 0
-2.13497e-08 4.22626e-09 0
-1.78012e-08 2.90291e-09 0
-1.61152e-08 2.10468e-09 0
-1.5294e-08 1.59712e-09 0
-1.48643e-08 1.22786e-09 0
-1.4625e-08 9.42431e-10 0
-1.44841e-08 7.20028e-10 0
-1.43971e-08 5.47534e-10 0
-1.4341e-08 4.146e-10 0
-1.43035e-08 3.12784e-10 0
-1.42777e-08 2.35231e-10 0
-1.42595e-08 1.76441e-10 0
-1.42466e-08 1.32055e-10 0
-1.42372e-08 9.86587e-11 0
-1.42303e-08 7.36e-11 0
-1.42253e-08 5.48401e-11 0
-1.42215e-08 4.08217e-11 0
-1.42188e-08 3.03619e-11 0
-1.42167e-08 2.25668e-11 0
-1.42152e-08 1.67633e-11 0
-1.42141e-08 1.2446e-11 0
-1.42132e-08 9.23662e-12 0
-1.42126e-08 6.85207e-12 0
-1.42122e-08 5.08123e-12 0
-1.42118e-08 3.76664e-12 0
-1.42115e-08 2.79104e-12 0
-1.42114e-08 2.06714e-12 0
-1.42112e-08 1.52999e-12 0
-1.42111e-08 1.1313e-12 0
-1.4211e-08 8.3513e-13 0
-1.4211e-08 6.14716e-13 0
-1.42109e-08 4.50069e-13 0
-1.42109e-08 3.26169e-13 0
-1.42109e-08 2.31602e-13 0
-1.42109e-08 1.57565e-13 0
-1.42108e-08 9.71749e-14 0
-1.42108e-08 4.48883e-14 0
-1.42108e-08 -3.18045e-15 0
0.0126207 5.40314e-09 0
0 -5.57102e-09 0
3.4624e-13 -3.88109e-09 0
-3.8729e-08 -4.90855e-09 0
-2.61908e-08 -1.88721e-09 0
-1.99255e-08 -3.10805e-09 0
-1.71245e-08 -4.16059e-09 0
-1.99937e-08 -1.41039e-08 0
-1.52527e-08 -1.21916e-08 0
-1.0332e-12 6.83627e-13 0
9.51774e-13 6.03382e-13 0
6.52748e-14 1.91052e-08 0
-3.63232e-08 1.84396e-08 0
-2.50085e-08 -1.4704e-09 0
-1.80144e-08 -5.99799e-10 0
-1.59404e-08 6.74252e-10 0
-1.52485e-08 9.43623e-10 0
-1.4932e-08 8.84014e-10 0
-1.47448e-08 7.42596e-10 0
-1.46171e-08 5.95027e-10 0
-1.45239e-08 4.64814e-10 0
-1.44541e-08 3.57534e-10 0
-1.44013e-08 2.7225e-10 0
-1.43611e-08 2.05876e-10 0
-1.43307e-08 1.54917e-10 0
-1.43077e-08 1.16155e-10 0
-1.42903e-08 8.6859e-11 0
-1.42773e-08 6.48217e-11 0
-1.42674e-08 4.8301e-11 0
-1.42601e-08 3.59475e-11 0
-1.42546e-08 2.67281e-11 0
-1.42505e-08 1.98579e-11 0
-1.42474e-08 1.47442e-11 0
-1.42451e-08 1.09416e-11 0
-1.42434e-08 8.11597e-12 0
-1.42421e-08 6.01761e-12 0
-1.42412e-08 4.4601e-12 0
-1.42404e-08 3.3045e-12 0
-1.42399e-08 2.44734e-12 0
-1.42395e-08 1.81168e-12 0
-1.42392e-08 1.34026e-12 0
-1.4239e-08 9.90534e-13 0
-1.42389e-08 7.30857e-13 0
-1.42388e-08 5.37644e-13 0
-1.42387e-08 3.93245e-13 0
-1.42386e-08 2.84307e-13 0
-1.42386e-08 2.00484e-13 0
-1.42385e-08 1.33441e-13 0
-1.42385e-08 7.62524e-14 0
-1.42385e-08 2.32266e-14 0
-1.42385e-08 -2.88344e-14 0
0.0126203 1.09763e-08 0
0 -5.58597e-09 0
2.05239e-13 -5.96641e-09 0
-3.23274e-08 -7.83129e-09 0
-2.41815e-08 -2.48887e-09 0
-1.98347e-08 -1.19478e-09 0
-2.03744e-08 -4.30566e-09 0
-2.28522e-08 -8.17383e-09 0
-3.40332e-08 -1.95617e-08 0
-3.23374e-08 -1.51227e-08 0
-1.97601e-08 -3.6716e-18 0
-9.57622e-09 3.85943e-08 0
-3.03042e-09 3.04317e-08 0
-1.04787e-08 -1.29895e-08 0
-1.42089e-08 -5.53105e-09 0
-1.5435e-08 -4.43979e-10 0
-1.57679e-08 6.49945e-10 0
-1.57969e-08 7.38898e-10 0
-1.57258e-08 6.30305e-10 0
-1.56289e-08 4.99478e-10 0
-1.55344e-08 3.84667e-10 0
-1.5452e-08 2.92121e-10 0
-1.53841e-08 2.20071e-10 0
-1.533e-08 1.64965e-10 0
-1.52876e-08 1.2325e-10 0
-1.5255e-08 9.1876e-11 0
-1.52301e-08 6.83794e-11 0
-1.52112e-08 5.08327e-11 0
-1.51969e-08 3.77554e-11 0
-1.51862e-08 2.80232e-11 0
-1.51781e-08 2.07882e-11 0
-1.51721e-08 1.5414e-11 0
-1.51676e-08 1.14247e-11 0
-1.51643e-08 8.46495e-12 0
-1.51618e-08 6.27e-12 0
-1.51599e-08 4.64285e-12 0
-1.51586e-08 3.43699e-12 0
-1.51575e-08 2.54358e-12 0
-1.51568e-08 1.88179e-12 0
-1.51562e-08 1.39161e-12 0
-1.51558e-08 1.02852e-12 0
-1.51555e-08 7.59467e-13 0
-1.51552e-08 5.59903e-13 0
-1.51551e-08 4.11558e-13 0
-1.5155e-08 3.00752e-13 0
-1.51549e-08 2.17089e-13 0
-1.51548e-08 1.52349e-13 0
-1.51547e-08 9.94162e-14 0
-1.51547e-08 5.13259e-14 0
-1.51547e-08 8.26165e-16 0
-1.51547e-08 -5.71131e-14 0
0.0126012 1.72105e-08 0
0 -7.59946e-09 0
1.01354e-13 -5.66699e-09 0
-3.04214e-08 -7.24778e-09 0
-3.07546e-08 -1.96897e-09 0
-2.99253e-08 3.5316e-10 0
-2.95281e-08 3.33932e-09 0
-3.16293e-08 2.71111e-09 0
-3.38143e-08 -1.93538e-09 0
-4.85001e-08 -1.70978e-08 0
-5.14457e-08 -2.82958e-08 0
-5.52382e-08 -3.13119e-09 0
-1.86822e-08 1.74148e-08 0
-2.6941e-08 1.07175e-08 0
-3.15214e-08 5.03999e-09 0
-3.20772e-08 2.48449e-09 0
-3.17556e-08 1.38324e-09 0
-3.13446e-08 8.63346e-10 0
-3.099e-08 5.79192e-10 0
-3.07086e-08 4.03681e-10 0
-3.04917e-08 2.87e-10 0
-3.03268e-08 2.06363e-10 0
-3.02024e-08 1.49463e-10 0
-3.01091e-08 1.0881e-10 0
-3.00393e-08 7.9518e-11 0
-2.99872e-08 5.82804e-11 0
-2.99484e-08 4.28089e-11 0
-2.99196e-08 3.14963e-11 0
-2.98981e-08 2.32013e-11 0
-2.98822e-08 1.71058e-11 0
-2.98704e-08 1.26195e-11 0
-2.98616e-08 9.31365e-12 0
-2.98551e-08 6.87567e-12 0
-2.98503e-08 5.07667e-12 0
-2.98468e-08 3.74864e-12 0
-2.98441e-08 2.76803e-12 0
-2.98422e-08 2.04384e-12 0
-2.98407e-08 1.50896e-12 0
-2.98396e-08 1.11387e-12 0
-2.98389e-08 8.21996e-13 0
-2.98383e-08 6.06335e-13 0
-2.98378e-08 4.46911e-13 0
-2.98375e-08 3.28942e-13 0
-2.98373e-08 2.41463e-13 0
-2.98371e-08 1.76288e-13 0
-2.9837e-08 1.27211e-13 0
-2.98369e-08 8.93014e-14 0
-2.98368e-08 5.8016e-14 0
-2.98368e-08 2.74632e-14 0
-2.98368e-08 -1.58141e-14 0
-2.98368e-08 -1.0841e-13 0
0.011941 2.36039e-08 0
0 0 0
3.71378e-14 0 0
-1.6076e-08 0 0
-1.9122e-08 0 0
-2.00038e-08 0 0
-1.9331e-08 0 0
-1.63784e-08 0 0
-1.50338e-08 0 0
-1.61629e-08 0 0
-3.16855e-08 0 0
-4.56619e-08 0 0
-3.65164e-08 0 0
-2.95393e-08 0 0
-2.6111e-08 0 0
-2.44345e-08 0 0
-2.35392e-08 0 0
-2.30046e-08 0 0
-2.26573e-08 0 0
-2.242e-08 0 0
-2.22533e-08 0 0
-2.21343e-08 0 0
-2.20484e-08 0 0
-2.19862e-08 0 0
-2.19407e-08 0 0
-2.19075e-08 0 0
-2.18831e-08 0 0
-2.18651e-08 0 0
-2.18519e-08 0 0
-2.18422e-08 0 0
-2.1835e-08 0 0
-2.18297e-08 0 0
-2.18258e-08 0 0
-2.18229e-08 0 0
-2.18208e-08 0 0
-2.18192e-08 0 0
-2.1818e-08 0 0
-2.18172e-08 0 0
-2.18165e-08 0 0
-2.18161e-08 0 0
-2.18157e-08 0 0
-2.18155e-08 0 0
-2.18153e-08 0 0
-2.18152e-08 0 0
-2.18151e-08 0 0
-2.1815e-08 0 0
-2.18149e-08 0 0
-2.18149e-08 0 0
-2.18149e-08 0 0
-2.18149e-08 0 0
-2.18149e-08 0 0
0.0056498 0 0
0 0 5.81146e-09
3.28344e-14 0 4.21188e-09
-2.63624e-08 0 4.54278e-09
-3.10764e-08 0 -4.94465e-10
-2.59783e-08 0 -1.61983e-09
-1.38789e-08 0 -6.38255e-10
-2.00901e-08 0 4.42989e-10
-2.02581e-08 0 4.46454e-10
-1.9176e-08 0 1.22795e-10
-1.87291e-08 0 -1.29785e-10
-1.99247e-08 0 -1.71288e-10
-2.17816e-08 0 -1.27897e-10
-2.36023e-08 0 -7.67921e-11
-2.51413e-08 0 -4.12799e-11
-2.63635e-08 0 -2.11472e-11
-2.72975e-08 0 -1.09549e-11
-2.79927e-08 0 -6.05752e-12
-2.85012e-08 0 -3.68322e-12
-2.88695e-08 0 -2.44646e-12
-2.9135e-08 0 -1.72481e-12
-2.93263e-08 0 -1.25451e-12
-2.94643e-08 0 -9.24165e-13
-2.95642e-08 0 -6.83135e-13
-2.96368e-08 0 -5.04711e-13
-2.96898e-08 0 -3.72231e-13
-2.97285e-08 0 -2.74006e-13
-2.9757e-08 0 -2.01371e-13
-2.97779e-08 0 -1.478e-13
-2.97933e-08 0 -1.08375e-13
-2.98047e-08 0 -7.94092e-14
-2.98131e-08 0 -5.81545e-14
-2.98194e-08 0 -4.25723e-14
-2.9824e-08 0 -3.11558e-14
-2.98274e-08 0 -2.27957e-14
-2.98299e-08 0 -1.66764e-14
-2.98318e-08 0 -1.21976e-14
-2.98332e-08 0 -8.91999e-15
-2.98342e-08 0 -6.5222e-15
-2.9835e-08 0 -4.76867e-15
-2.98355e-08 0 -3.48777e-15
-2.98359e-08 0 -2.55692e-15
-2.98363e-08 0 -1.89196e-15
-2.98365e-08 0 -1.44316e-15
-2.98366e-08 0 -1.19835e-15
-2.98368e-08 0 -1.17659e-15
-2.98369e-08 0 -1.31182e-15
-2.98369e-08 0 -8.22087e-16
-2.9837e-08 0 3.77097e-15
-2.9837e-08 0 2.4136e-14
-2.98371e-08 0 9.22384e-14
0.011941 0 -1.99961e-08
0.0036 1.1544e-08 6.01706e-09
0.00359998 -0.00527382 -0.00268592
0.0144653 -0.00972528 -0.00428846
0.0242489 -0.00868103 -0.00248152
0.0339037 -0.00808987 -0.00136686
0.0444005 -0.0049329 -0.000702865
0.0460415 -0.000724735 -0.000320592
0.0455209 0.00226308 -0.000160457
0.0401996 0.00405151 -9.53441e-05
0.0352692 0.00392519 -6.46972e-05
0.0314104 0.00308542 -3.7523e-05
0.0287704 0.00215124 -2.03605e-05
0.0271149 0.00137944 -1.06697e-05
0.0261412 0.000827543 -5.45347e-06
0.0256021 0.000466604 -2.7479e-06
0.0253242 0.000245468 -1.3845e-06
0.0251946 0.000117401 -7.07764e-07
0.0251449 4.73074e-05 -3.71596e-07
0.0251352 1.14311e-05 -2.01999e-07
0.0251436 -5.22549e-06 -1.14111e-07
0.0251584 -1.16393e-05 -6.6996e-08
0.0251743 -1.29436e-05 -4.07881e-08
0.0251886 -1.19468e-05 -2.56605e-08
0.0252006 -1.01107e-05 -1.66152e-08
0.0252102 -8.14724e-06 -1.10277e-08
0.0252177 -6.36676e-06 -7.47272e-09
0.0252233 -4.8752e-06 -5.15107e-09
0.0252276 -3.68116e-06 -3.60009e-09
0.0252308 -2.75222e-06 -2.54386e-09
0.0252332 -2.04314e-06 -1.81301e-09
0.025235 -1.50893e-06 -1.30075e-09
0.0252363 -1.11019e-06 -9.38004e-10
0.0252372 -8.14539e-07 -6.79075e-10
0.0252379 -5.96381e-07 -4.93133e-10
0.0252384 -4.35975e-07 -3.59032e-10
0.0252388 -3.18341e-07 -2.62085e-10
0.025239 -2.32238e-07 -1.92026e-10
0.0252392 -1.69305e-07 -1.41693e-10
0.0252394 -1.23354e-07 -1.06207e-10
0.0252395 -8.98245e-08 -8.24778e-11
0.0252396 -6.53704e-08 -6.89703e-11
0.0252396 -4.75392e-08 -6.56317e-11
0.0252397 -3.45408e-08 -7.38166e-11
0.0252397 -2.50762e-08 -9.57925e-11
0.0252397 -1.82189e-08 -1.33286e-10
0.0252397 -1.33476e-08 -1.87985e-10
0.0252397 -1.01686e-08 -3.05375e-10
0.0252397 -9.17161e-09 -1.02547e-09
0.0252398 -1.44934e-08 -6.33858e-09
0.0252398 -3.62319e-08 -2.67493e-08
0.0252398 -5.28317e-08 -4.24817e-08
0.01 1.10629e-08 7.68121e-09
0.01 -0.00832362 -0.00479161
0.01805 -0.0163521 -0.00738133
0.0259687 -0.0166303 -0.00383715
0.0351704 -0.0184805 -0.00187955
0.0525402 -0.0111964 -0.00080487
0.0517823 -0.000621561 -0.000254861
0.0523124 0.00611023 -0.000119929
0.0421294 0.0103968 -8.73639e-05
0.0353711 0.00886982 -8.1526e-05
0.0312554 0.00654206 -4.82836e-05
0.0288255 0.00431828 -2.44632e-05
0.0275285 0.00264112 -1.21503e-05
0.0268824 0.00151887 -5.82753e-06
0.0265892 0.000820148 -2.69029e-06
0.0264778 0.000409122 -1.20549e-06
0.0264538 0.000180072 -5.29905e-07
0.0264675 5.98635e-05 -2.30987e-07
0.0264943 1.60284e-06 -1.00943e-07
0.0265228 -2.31043e-05 -4.47495e-08
0.0265484 -3.06559e-05 -2.03986e-08
0.0265696 -3.01219e-05 -9.70828e-09
0.0265864 -2.62958e-05 -4.898e-09
0.0265994 -2.15723e-05 -2.64938e-09
0.0266092 -1.70493e-05 -1.54142e-09
0.0266166 -1.31535e-05 -9.58729e-10
0.0266221 -9.98366e-06 -6.29525e-10
0.0266262 -7.4919e-06 -4.30193e-10
0.0266291 -5.57664e-06 -3.02133e-10
0.0266313 -4.12675e-06 -2.16032e-10
0.0266329 -3.0408e-06 -1.56247e-10
0.0266341 -2.23358e-06 -1.1384e-10
0.026635 -1.63683e-06 -8.33564e-11
0.0266356 -1.19744e-06 -6.12843e-11
0.0266361 -8.74862e-07 -4.52772e-11
0.0266364 -6.3856e-07 -3.37429e-11
0.0266366 -4.65733e-07 -2.56241e-11
0.0266368 -3.39481e-07 -2.02905e-11
0.0266369 -2.47332e-07 -1.75157e-11
0.026637 -1.80115e-07 -1.75301e-11
0.0266371 -1.31108e-07 -2.11506e-11
0.0266372 -9.5398e-08 -2.99622e-11
0.0266372 -6.94087e-08 -4.64307e-11
0.0266372 -5.0567e-08 -7.36494e-11
0.0266372 -3.70843e-08 -1.14522e-10
0.0266372 -2.78702e-08 -1.74501e-10
0.0266373 -2.26361e-08 -3.12552e-10
0.0266373 -2.20255e-08 -1.11173e-09
0.0266373 -2.63852e-08 -6.72685e-09
0.0266373 -3.5785e-08 -2.73264e-08
0.0266373 -4.1816e-08 -4.30079e-08
0.0148 -9.14941e-09 1.80291e-08
0.0148 -0.00910546 -0.00656156
0.0200001 -0.0186965 -0.0101197
0.0241356 -0.0215242 -0.00517381
0.0262772 -0.032333 -0.00241982
0.0281046 -0.0204001 -0.000859832
0.0269234 -1.55341e-07 -8.11719e-05
0.0277059 0.0121894 -4.10867e-05
0.0331771 0.0211379 -3.27422e-05
0.0297592 0.0148825 -3.73859e-05
0.0273038 0.00967546 -3.39498e-05
0.0261574 0.00590126 -2.10988e-05
0.0258235 0.00333458 -1.09104e-05
0.0258604 0.00177302 -4.96397e-06
0.0260166 0.00087424 -2.00584e-06
0.0261827 0.000382415 -7.1377e-07
0.0263212 0.000128498 -2.07743e-07
0.0264256 7.18426e-06 -3.28305e-08
0.0265007 -4.37055e-05 1.58794e-08
0.0265535 -5.92334e-05 2.2113e-08
0.0265903 -5.83626e-05 1.70357e-08
0.0266159 -5.09151e-05 1.08779e-08
0.0266339 -4.17082e-05 6.23948e-09
0.0266464 -3.29138e-05 3.27475e-09
0.0266553 -2.53594e-05 1.54702e-09
0.0266616 -1.92271e-05 6.09026e-10
0.0266661 -1.44159e-05 1.35678e-10
0.0266694 -1.07234e-05 -8.00701e-11
0.0266717 -7.93136e-06 -1.60733e-10
0.0266734 -5.84203e-06 -1.75168e-10
0.0266746 -4.29002e-06 -1.60379e-10
0.0266755 -3.14325e-06 -1.35302e-10
0.0266761 -2.29919e-06 -1.09013e-10
0.0266766 -1.67969e-06 -8.54035e-11
0.0266769 -1.22596e-06 -6.57801e-11
0.0266771 -8.94162e-07 -5.02566e-11
0.0266773 -6.51803e-07 -3.84972e-11
0.0266774 -4.74924e-07 -3.0111e-11
0.0266775 -3.45913e-07 -2.48879e-11
0.0266776 -2.51855e-07 -2.29789e-11
0.0266776 -1.83306e-07 -2.50841e-11
0.0266777 -1.33368e-07 -3.26519e-11
0.0266777 -9.70262e-08 -4.79771e-11
0.0266777 -7.06614e-08 -7.38616e-11
0.0266777 -5.17128e-08 -1.12407e-10
0.0266777 -3.84405e-08 -1.65853e-10
0.0266778 -2.97203e-08 -2.79025e-10
0.0266778 -2.48838e-08 -9.7491e-10
0.0266778 -2.38425e-08 -6.18921e-09
0.0266778 -2.59939e-08 -2.55537e-08
0.0266778 -2.76809e-08 -4.03175e-08
0.018 -2.84431e-08 1.77786e-08
0.018 -0.00785158 -0.0078344
0.0206703 -0.016168 -0.0121545
0.0208636 -0.0170561 -0.00616747
0.0159405 -0.0193007 -0.00279238
-2.97194e-09 -0.0105611 -0.000944954
1.92685e-06 8.87293e-07 1.3102e-09
-9.12024e-07 1.00474e-06 -6.53089e-06
0.0122045 0.00843458 -1.35009e-06
0.0211662 0.014798 4.96317e-06
0.0216497 0.0101768 -7.84499e-06
0.0224977 0.00581728 -1.3557e-05
0.0236614 0.00294831 -8.66489e-06
0.0246613 0.00133105 -3.69231e-06
0.0253905 0.000500425 -1.18228e-06
0.0258767 0.000105808 -2.10301e-07
0.026185 -6.21541e-05 7.96222e-08
0.0263751 -0.000119312 1.2204e-07
0.0264909 -0.00012612 9.5322e-08
0.0265613 -0.000112637 6.09009e-08
0.0266042 -9.30694e-05 3.48311e-08
0.0266306 -7.36591e-05 1.82474e-08
0.0266471 -5.67839e-05 8.65491e-09
0.0266576 -4.30354e-05 3.48349e-09
0.0266644 -3.22432e-05 8.84758e-10
0.0266688 -2.3966e-05 -3.02279e-10
0.0266718 -1.77137e-05 -7.55131e-10
0.0266738 -1.30398e-05 -8.49787e-10
0.0266752 -9.57114e-06 -7.86137e-10
0.0266762 -7.01013e-06 -6.65623e-10
0.0266769 -5.12629e-06 -5.3658e-10
0.0266773 -3.74432e-06 -4.19693e-10
0.0266777 -2.73252e-06 -3.21879e-10
0.0266779 -1.99283e-06 -2.43637e-10
0.0266781 -1.45265e-06 -1.82833e-10
0.0266782 -1.05849e-06 -1.36555e-10
0.0266783 -7.71041e-07 -1.01983e-10
0.0266784 -5.61505e-07 -7.67733e-11
0.0266784 -4.08807e-07 -5.92241e-11
0.0266785 -2.9755e-07 -4.83794e-11
0.0266785 -2.16492e-07 -4.41567e-11
0.0266785 -1.57439e-07 -4.75062e-11
0.0266785 -1.14421e-07 -6.04899e-11
0.0266785 -8.31001e-08 -8.5884e-11
0.0266786 -6.03357e-08 -1.25591e-10
0.0266786 -4.38618e-08 -1.79684e-10
0.0266786 -3.20618e-08 -2.82665e-10
0.0266786 -2.38046e-08 -9.27374e-10
0.0266786 -1.84452e-08 -5.96886e-09
0.0266786 -1.51124e-08 -2.49111e-08
0.0266785 -1.37805e-08 -3.93843e-08
0.0196 -2.83285e-08 7.54109e-09
0.0196 -0.0050214 -0.00849444
0.0209903 -0.0100832 -0.0132092
0.0197382 -0.00970063 -0.00663913
0.0147082 -0.00774611 -0.00286769
0.00445782 -0.00310728 -0.00118614
1.53212e-06 -1.4242e-06 -0.000242857
5.12174e-07 -5.12174e-07 -4.4316e-10
-8.78515e-07 9.45532e-07 -2.83345e-06
0.0084396 0.00546007 -1.49229e-06
0.0148081 0.00836141 -3.68123e-06
0.0184336 0.00390238 -1.0787e-05
0.0215996 0.00117886 -8.45263e-06
0.0237255 4.82119e-05 -3.5632e-06
0.0250141 -0.000338963 -1.02696e-06
0.0257557 -0.000411002 -9.62895e-08
0.0261716 -0.000369373 1.35241e-07
0.0264016 -0.000298514 1.37321e-07
0.0265279 -0.000229739 9.11427e-08
0.0265969 -0.000172436 5.03366e-08
0.0266344 -0.000127688 2.39855e-08
0.0266548 -9.3847e-05 9.24509e-09
0.0266659 -6.86851e-05 1.82777e-09
0.0266718 -5.01504e-05 -1.47433e-09
0.026675 -3.65684e-05 -2.64327e-09
0.0266767 -2.66447e-05 -2.79336e-09
0.0266776 -1.94059e-05 -2.51238e-09
0.0266781 -1.41304e-05 -2.09262e-09
0.0266784 -1.02877e-05 -1.66883e-09
0.0266785 -7.48953e-06 -1.29542e-09
0.0266785 -5.45219e-06 -9.87904e-10
0.0266786 -3.96895e-06 -7.44374e-10
0.0266786 -2.88916e-06 -5.56213e-10
0.0266786 -2.10309e-06 -4.13217e-10
0.0266786 -1.53086e-06 -3.05819e-10
0.0266786 -1.1143e-06 -2.25914e-10
0.0266786 -8.11045e-07 -1.67026e-10
0.0266786 -5.9028e-07 -1.24229e-10
0.0266786 -4.29553e-07 -9.39925e-11
0.0266786 -3.12521e-07 -7.40856e-11
0.0266786 -2.27285e-07 -6.35619e-11
0.0266786 -1.65173e-07 -6.28328e-11
0.0266786 -1.19866e-07 -7.36698e-11
0.0266786 -8.67473e-08 -9.86597e-11
0.0266786 -6.24248e-08 -1.39224e-10
0.0266786 -4.43818e-08 -1.93868e-10
0.0266786 -3.07192e-08 -2.93439e-10
0.0266786 -1.9999e-08 -9.22593e-10
0.0266786 -1.12187e-08 -5.91908e-09
0.0266786 -3.60356e-09 -2.47653e-08
0.0266786 9.92864e-12 -3.91751e-08
0.0196 -1.85201e-08 -3.80419e-09
0.0196 -0.00192576 -0.00850893
0.0213082 -0.00381931 -0.0132163
0.0209763 -0.00310071 -0.00663438
0.0179472 -0.000200418 -0.00281205
0.0136441 0.00582255 -0.00135261
0.0086514 0.00481583 -0.000592401
1.54036e-06 -1.30804e-06 -0.000124886
4.29521e-07 -4.29521e-07 -2.63821e-10
-8.51599e-07 9.05431e-07 -1.16287e-06
0.00546205 0.000192928 -1.80994e-06
0.0144883 -0.000964899 -1.17482e-05
0.0205368 -0.00233674 -1.70565e-05
0.023662 -0.00207941 -8.09644e-06
0.0252109 -0.00152766 -2.77572e-06
0.0259757 -0.00105068 -7.94519e-07
0.0263525 -0.000707576 -1.93883e-07
0.0265365 -0.000475373 -4.19635e-08
0.0266246 -0.000321238 -1.35576e-08
0.0266652 -0.000219099 -1.20055e-08
0.0266825 -0.000150972 -1.31221e-08
0.0266887 -0.000105062 -1.2744e-08
0.0266898 -7.37642e-05 -1.11701e-08
0.0266888 -5.21849e-05 -9.16872e-09
0.0266872 -3.71511e-05 -7.22484e-09
0.0266854 -2.65828e-05 -5.54889e-09
0.0266839 -1.90974e-05 -4.19248e-09
0.0266826 -1.37629e-05 -3.13414e-09
0.0266816 -9.94261e-06 -2.32657e-09
0.0266808 -7.19606e-06 -1.71896e-09
0.0266802 -5.21557e-06 -1.26596e-09
0.0266798 -3.78418e-06 -9.30276e-10
0.0266795 -2.74783e-06 -6.82573e-10
0.0266792 -1.99649e-06 -5.00353e-10
0.0266791 -1.45122e-06 -3.66648e-10
0.0266789 -1.05521e-06 -2.68817e-10
0.0266788 -7.67421e-07 -1.97555e-10
0.0266788 -5.58185e-07 -1.46139e-10
0.0266787 -4.05997e-07 -1.09885e-10
0.0266787 -2.95254e-07 -8.58176e-11
0.0266786 -2.1462e-07 -7.25286e-11
0.0266786 -1.55848e-07 -7.01702e-11
0.0266786 -1.12919e-07 -8.04113e-11
0.0266786 -8.14185e-08 -1.05864e-10
0.0266786 -5.80672e-08 -1.48112e-10
0.0266786 -4.03689e-08 -2.06082e-10
0.0266786 -2.63359e-08 -3.11954e-10
0.0266786 -1.43092e-08 -9.55008e-10
0.0266786 -2.97016e-09 -5.98709e-09
0.0266786 8.23289e-09 -2.491e-08
0.0266786 1.37992e-08 -3.93706e-08
0.018 -1.26825e-08 -1.15694e-08
0.018 0.00059661 -0.00793542
0.0209289 0.00102033 -0.0122842
0.022278 0.00130448 -0.006164
0.0217684 0.00331911 -0.00264663
0.021206 0.00811789 -0.00126341
0.0220098 0.0145165 -0.000662197
0.0140547 0.00883695 -0.00029367
1.57186e-06 -1.04421e-06 -6.34676e-05
-7.38307e-07 -1.12354e-06 6.89658e-09
9.57141e-08 -0.00612192 2.58453e-05
0.0146788 -0.0111642 8.90705e-06
0.0223488 -0.00798626 -2.71944e-05
0.0251818 -0.00462046 -1.41571e-05
0.0262133 -0.0026498 -5.27468e-06
0.0265973 -0.00155124 -1.8874e-06
0.0267327 -0.00092948 -7.20409e-07
0.0267699 -0.000570295 -3.09361e-07
0.0267696 -0.000358263 -1.5151e-07
0.0267567 -0.000230245 -8.28058e-08
0.0267412 -0.000151148 -4.87825e-08
0.0267269 -0.000101141 -3.01222e-08
0.0267151 -6.88186e-05 -1.9175e-08
0.0267057 -4.74928e-05 -1.248e-08
0.0266985 -3.31604e-05 -8.27235e-09
0.0266931 -2.33726e-05 -5.57251e-09
0.0266891 -1.65977e-05 -3.80856e-09
0.0266861 -1.18559e-05 -2.63654e-09
0.0266838 -8.50735e-06 -1.84545e-09
0.0266822 -6.12584e-06 -1.30375e-09
0.026681 -4.42272e-06 -9.28058e-10
0.0266801 -3.19953e-06 -6.64667e-10
0.0266795 -2.31815e-06 -4.7835e-10
0.026679 -1.68147e-06 -3.45627e-10
0.0266787 -1.22069e-06 -2.50606e-10
0.0266784 -8.86727e-07 -1.82408e-10
0.0266783 -6.44412e-07 -1.33541e-10
0.0266781 -4.68443e-07 -9.8895e-11
0.026678 -3.40561e-07 -7.51206e-11
0.026678 -2.47559e-07 -6.03086e-11
0.0266779 -1.79861e-07 -5.38854e-11
0.0266779 -1.30504e-07 -5.66684e-11
0.0266778 -9.44058e-08 -7.09149e-11
0.0266778 -6.78223e-08 -9.9942e-11
0.0266778 -4.79433e-08 -1.46644e-10
0.0266778 -3.25669e-08 -2.13175e-10
0.0266778 -1.98105e-08 -3.40377e-10
0.0266778 -7.83375e-09 -1.04179e-09
0.0266778 5.24037e-09 -6.23738e-09
0.0266778 1.99906e-08 -2.55523e-08
0.0266778 2.7696e-08 -4.02844e-08
0.0148 -1.1559e-08 -1.74256e-08
0.0148 0.00200308 -0.00687496
0.0196093 0.00351459 -0.0105892
0.0228594 0.00313997 -0.00532293
0.0246053 0.00435635 -0.0023709
0.0263193 0.00736875 -0.00117093
0.0295618 0.0129412 -0.000629993
0.0345582 0.0224501 -0.000320456
0.0297991 0.0141498 -6.49608e-05
0.0305173 1.54334e-14 8.28639e-05
0.0328413 -0.0144864 8.11802e-05
0.0312062 -0.0233075 1.57923e-05
0.0294416 -0.0128281 -2.74316e-05
0.0284326 -0.00593629 -1.4966e-05
0.0278215 -0.00293927 -5.82619e-06
0.0274284 -0.0015682 -2.18523e-06
0.0271705 -0.000879282 -8.48258e-07
0.0269999 -0.000511835 -3.44548e-07
0.0268863 -0.000307717 -1.44454e-07
0.02681 -0.000190516 -6.06183e-08
0.0267581 -0.00012117 -2.41007e-08
0.0267225 -7.89579e-05 -7.97173e-09
0.0266978 -5.25602e-05 -1.00885e-09
0.0266805 -3.56325e-05 1.74639e-09
0.0266683 -2.45274e-05 2.58296e-09
0.0266596 -1.70944e-05 2.58351e-09
0.0266534 -1.20332e-05 2.2612e-09
0.0266489 -8.53715e-06 1.85332e-09
0.0266457 -6.09394e-06 1.46268e-09
0.0266434 -4.37046e-06 1.12733e-09
0.0266417 -3.14571e-06 8.55334e-10
0.0266405 -2.27038e-06 6.42013e-10
0.0266396 -1.64201e-06 4.78242e-10
0.026639 -1.1894e-06 3.54264e-10
0.0266385 -8.62553e-07 2.61262e-10
0.0266382 -6.26056e-07 1.91854e-10
0.0266379 -4.5468e-07 1.40077e-10
0.0266378 -3.30349e-07 1.01166e-10
0.0266376 -2.40059e-07 7.12321e-11
0.0266375 -1.74429e-07 4.69032e-11
0.0266375 -1.26666e-07 2.49109e-11
0.0266374 -9.18344e-08 1.64988e-12
0.0266374 -6.63295e-08 -2.72118e-11
0.0266374 -4.74843e-08 -6.68031e-11
0.0266373 -3.32729e-08 -1.22573e-10
0.0266373 -2.20557e-08 -2.02858e-10
0.0266373 -1.2296e-08 -3.67041e-10
0.0266373 -2.09062e-09 -1.18731e-09
0.0266373 1.15902e-08 -6.7816e-09
0.0266373 3.08012e-08 -2.73046e-08
0.0266373 4.18255e-08 -4.29371e-08
0.01 -1.75133e-08 -2.52769e-08
0.01 0.00181629 -0.00545714
0.0170283 0.00307578 -0.00832993
0.0217872 0.00245038 -0.00419252
0.0251247 0.00296746 -0.0019707
0.0287604 0.00478785 -0.00101408