# vtk DataFile Version 2.0
Tobias Weinzierl: CPU, Manycore and Cluster Computing
ASCII

DATASET STRUCTURED_POINTS
DIMENSIONS  51 11 6

ORIGIN 0 0 0 

SPACING 0.1 0.1 0.1 

POINT_DATA 3366

VECTORS velocity float
0 0 0
6.19854e-16 0 0
-1.44711e-08 0 0
-2.08255e-08 0 0
-2.13386e-08 0 0
-1.84334e-08 0 0
-2.26502e-08 0 0
-2.30381e-08 0 0
-2.16916e-08 0 0
-2.01896e-08 0 0
-1.95507e-08 0 0
-1.95282e-08 0 0
-1.97954e-08 0 0
-2.01649e-08 0 0
-2.05424e-08 0 0
-2.08811e-08 0 0
-2.11631e-08 0 0
-2.13872e-08 0 0
-2.15602e-08 0 0
-2.16913e-08 0 0
-2.17895e-08 0 0
-2.18625e-08 0 0
-2.19166e-08 0 0
-2.19567e-08 0 0
-2.19863e-08 0 0
-2.20081e-08 0 0
-2.20243e-08 0 0
-2.20362e-08 0 0
-2.2045e-08 0 0
-2.20515e-08 0 0
-2.20564e-08 0 0
-2.20599e-08 0 0
-2.20626e-08 0 0
-2.20645e-08 0 0
-2.2066e-08 0 0
-2.2067e-08 0 0
-2.20678e-08 0 0
-2.20684e-08 0 0
-2.20689e-08 0 0
-2.20692e-08 0 0
-2.20694e-08 0 0
-2.20696e-08 0 0
-2.20697e-08 0 0
-2.20698e-08 0 0
-2.20699e-08 0 0
-2.20699e-08 0 0
-2.207e-08 0 0
-2.207e-08 0 0
-2.207e-08 0 0
-2.20701e-08 0 0
0.00568494 0 0
0 7.73295e-09 0
5.03307e-15 1.02158e-08 0
-2.4994e-08 1.6201e-08 0
-3.04462e-08 7.28114e-09 0
-2.77588e-08 -8.516e-10 0
-1.53855e-08 1.91391e-09 0
-2.56292e-08 4.17194e-09 0
-2.5168e-08 -1.38772e-09 0
-2.24227e-08 -2.96265e-09 0
-2.04753e-08 -2.01263e-09 0
-2.1272e-08 -4.94849e-10 0
-2.29612e-08 3.68517e-10 0
-2.45457e-08 7.10973e-10 0
-2.58717e-08 7.86962e-10 0
-2.69374e-08 7.36751e-10 0
-2.77643e-08 6.31352e-10 0
-2.83882e-08 5.12061e-10 0
-2.88503e-08 4.00753e-10 0
-2.91888e-08 3.06464e-10 0
-2.94358e-08 2.30927e-10 0
-2.96156e-08 1.72428e-10 0
-2.97467e-08 1.28054e-10 0
-2.98425e-08 9.48154e-11 0
-2.99126e-08 7.00999e-11 0
-2.99641e-08 5.17961e-11 0
-3.0002e-08 3.82678e-11 0
-3.00299e-08 2.82771e-11 0
-3.00505e-08 2.08998e-11 0
-3.00657e-08 1.54511e-11 0
-3.00769e-08 1.14255e-11 0
-3.00853e-08 8.45006e-12 0
-3.00914e-08 6.25021e-12 0
-3.0096e-08 4.62331e-12 0
-3.00994e-08 3.41991e-12 0
-3.01019e-08 2.52963e-12 0
-3.01037e-08 1.87095e-12 0
-3.01051e-08 1.38359e-12 0
-3.01061e-08 1.02296e-12 0
-3.01069e-08 7.56086e-13 0
-3.01074e-08 5.58557e-13 0
-3.01079e-08 4.12301e-13 0
-3.01082e-08 3.03938e-13 0
-3.01084e-08 2.23569e-13 0
-3.01086e-08 1.63885e-13 0
-3.01087e-08 1.19541e-13 0
-3.01088e-08 8.68273e-14 0
-3.01088e-08 6.39402e-14 0
-3.01089e-08 5.25661e-14 0
-3.01089e-08 6.29902e-14 0
-3.0109e-08 1.25346e-13 0
0.011989 -2.39121e-08 0
0 -4.66597e-10 0
6.5584e-14 1.27575e-08 0
-2.4362e-08 2.00263e-08 0
-1.94305e-08 8.06186e-09 0
-1.58687e-08 -8.8062e-09 0
-2.15319e-08 2.65079e-10 0
-2.0698e-08 8.79918e-09 0
-2.29091e-08 -4.13647e-09 0
6.95835e-10 -4.60191e-09 0
4.71059e-10 -3.1929e-10 0
-2.94749e-09 3.1688e-09 0
-6.68897e-09 3.69211e-09 0
-9.30221e-09 3.13713e-09 0
-1.10951e-08 2.50463e-09 0
-1.23491e-08 1.9458e-09 0
-1.32183e-08 1.47521e-09 0
-1.38151e-08 1.0973e-09 0
-1.42247e-08 8.06253e-10 0
-1.45077e-08 5.88582e-10 0
-1.47053e-08 4.28658e-10 0
-1.48449e-08 3.12247e-10 0
-1.49446e-08 2.27819e-10 0
-1.50166e-08 1.66596e-10 0
-1.50689e-08 1.22121e-10 0
-1.51072e-08 8.97233e-11 0
-1.51353e-08 6.6053e-11 0
-1.5156e-08 4.87087e-11 0
-1.51713e-08 3.59668e-11 0
-1.51827e-08 2.65856e-11 0
-1.51911e-08 1.96665e-11 0
-1.51973e-08 1.45562e-11 0
-1.5202e-08 1.07778e-11 0
-1.52054e-08 7.9821e-12 0
-1.5208e-08 5.9123e-12 0
-1.52099e-08 4.37934e-12 0
-1.52113e-08 3.2437e-12 0
-1.52123e-08 2.40226e-12 0
-1.52131e-08 1.77873e-12 0
-1.52137e-08 1.31662e-12 0
-1.52141e-08 9.7409e-13 0
-1.52144e-08 7.20125e-13 0
-1.52147e-08 5.31753e-13 0
-1.52148e-08 3.91974e-13 0
-1.5215e-08 2.88276e-13 0
-1.5215e-08 2.11564e-13 0
-1.52151e-08 1.55365e-13 0
-1.52152e-08 1.14984e-13 0
-1.52152e-08 8.77647e-14 0
-1.52152e-08 7.57082e-14 0
-1.52153e-08 8.2036e-14 0
0.0126255 -1.73353e-08 0
0 -9.6728e-09 0
1.91397e-13 1.10792e-08 0
-3.02881e-08 1.7953e-08 0
-1.65579e-08 1.07957e-08 0
-1.20074e-08 1.06056e-08 0
-2.45799e-08 6.68381e-09 0
-1.7719e-08 4.98542e-14 0
-2.07792e-08 -2.63323e-08 0
-2.52906e-08 -2.67926e-08 0
-1.07268e-08 3.24017e-09 0
-8.43479e-09 7.94776e-09 0
-9.28163e-09 7.40289e-09 0
-1.06176e-08 5.44911e-09 0
-1.17374e-08 3.98172e-09 0
-1.25512e-08 2.91828e-09 0
-1.30998e-08 2.1167e-09 0
-1.34629e-08 1.5228e-09 0
-1.37068e-08 1.09276e-09 0
-1.38749e-08 7.85447e-10 0
-1.39939e-08 5.66735e-10 0
-1.408e-08 4.10819e-10 0
-1.41432e-08 2.99161e-10 0
-1.419e-08 2.18744e-10 0
-1.42249e-08 1.60498e-10 0
-1.42509e-08 1.18092e-10 0
-1.42704e-08 8.70825e-11 0
-1.4285e-08 6.43235e-11 0
-1.42958e-08 4.75721e-11 0
-1.43039e-08 3.5215e-11 0
-1.431e-08 2.60842e-11 0
-1.43145e-08 1.9329e-11 0
-1.43179e-08 1.43269e-11 0
-1.43204e-08 1.06207e-11 0
-1.43222e-08 7.87348e-12 0
-1.43236e-08 5.83663e-12 0
-1.43247e-08 4.32624e-12 0
-1.43254e-08 3.20615e-12 0
-1.4326e-08 2.37546e-12 0
-1.43264e-08 1.75936e-12 0
-1.43267e-08 1.30236e-12 0
-1.43269e-08 9.63259e-13 0
-1.43271e-08 7.11508e-13 0
-1.43272e-08 5.24414e-13 0
-1.43273e-08 3.85139e-13 0
-1.43274e-08 2.81195e-13 0
-1.43275e-08 2.03483e-13 0
-1.43275e-08 1.46069e-13 0
-1.43275e-08 1.0554e-13 0
-1.43275e-08 7.9355e-14 0
-1.43275e-08 6.33264e-14 0
0.0126432 -1.1026e-08 0
0 -1.61848e-08 0
2.95847e-13 6.0395e-09 0
-3.75268e-08 8.43455e-09 0
-2.04401e-08 6.40697e-09 0
-9.32769e-09 9.32283e-09 0
-3.72029e-14 5.3109e-09 0
-1.03358e-12 -9.85845e-13 0
8.61332e-13 -1.06118e-12 0
-2.67175e-08 -1.63857e-08 0
-2.79504e-08 -1.70855e-08 0
-1.55179e-08 2.47348e-09 0
-1.39417e-08 6.45696e-09 0
-1.3684e-08 5.89966e-09 0
-1.38273e-08 4.56173e-09 0
-1.39538e-08 3.34123e-09 0
-1.40229e-08 2.38557e-09 0
-1.40662e-08 1.69403e-09 0
-1.41017e-08 1.2083e-09 0
-1.41344e-08 8.68486e-10 0
-1.41647e-08 6.29083e-10 0
-1.41918e-08 4.58693e-10 0
-1.42149e-08 3.36199e-10 0
-1.42342e-08 2.47382e-10 0
-1.42498e-08 1.82547e-10 0
-1.42621e-08 1.34976e-10 0
-1.42717e-08 9.99403e-11 0
-1.42792e-08 7.40676e-11 0
-1.42848e-08 5.49258e-11 0
-1.42891e-08 4.07455e-11 0
-1.42924e-08 3.02318e-11 0
-1.42948e-08 2.24325e-11 0
-1.42967e-08 1.66449e-11 0
-1.4298e-08 1.23494e-11 0
-1.42991e-08 9.16123e-12 0
-1.42998e-08 6.79495e-12 0
-1.43004e-08 5.03882e-12 0
-1.43008e-08 3.73563e-12 0
-1.43011e-08 2.76861e-12 0
-1.43013e-08 2.05108e-12 0
-1.43015e-08 1.5186e-12 0
-1.43016e-08 1.12334e-12 0
-1.43017e-08 8.2972e-13 0
-1.43018e-08 6.1131e-13 0
-1.43019e-08 4.48467e-13 0
-1.43019e-08 3.26661e-13 0
-1.43019e-08 2.3524e-13 0
-1.43019e-08 1.66419e-13 0
-1.43019e-08 1.14593e-13 0
-1.43019e-08 7.5276e-14 0
-1.4302e-08 4.35596e-14 0
0.0126435 -5.39743e-09 0
0 -1.33257e-08 0
3.96475e-13 2.75651e-09 0
-4.31603e-08 4.66339e-09 0
-2.76041e-08 2.06387e-09 0
-1.65052e-08 6.20897e-11 0
-8.24992e-09 -9.48996e-11 0
-1.02167e-12 9.48574e-13 0
-8.72409e-14 8.72409e-14 0
8.31747e-13 -8.90917e-13 0
-1.64668e-08 -9.08634e-09 0
-1.74205e-08 -6.28381e-09 0
-1.8009e-08 5.86679e-09 0
-1.70818e-08 5.5702e-09 0
-1.61099e-08 4.331e-09 0
-1.53702e-08 3.11387e-09 0
-1.49015e-08 2.20552e-09 0
-1.46289e-08 1.5779e-09 0
-1.4476e-08 1.14355e-09 0
-1.4392e-08 8.37282e-10 0
-1.43466e-08 6.17364e-10 0
-1.43226e-08 4.57244e-10 0
-1.43103e-08 3.39544e-10 0
-1.43042e-08 2.52495e-10 0
-1.43014e-08 1.8788e-10 0
-1.43003e-08 1.39821e-10 0
-1.43e-08 1.04044e-10 0
-1.43e-08 7.74008e-11 0
-1.43002e-08 5.75612e-11 0
-1.43005e-08 4.27917e-11 0
-1.43007e-08 3.18004e-11 0
-1.43009e-08 2.3624e-11 0
-1.4301e-08 1.7544e-11 0
-1.43012e-08 1.30245e-11 0
-1.43013e-08 9.66631e-12 0
-1.43013e-08 7.1718e-12 0
-1.43014e-08 5.31939e-12 0
-1.43014e-08 3.94417e-12 0
-1.43014e-08 2.92341e-12 0
-1.43015e-08 2.16583e-12 0
-1.43015e-08 1.60356e-12 0
-1.43015e-08 1.18611e-12 0
-1.43015e-08 8.7595e-13 0
-1.43015e-08 6.45134e-13 0
-1.43015e-08 4.72862e-13 0
-1.43015e-08 3.43615e-13 0
-1.43015e-08 2.45793e-13 0
-1.43015e-08 1.70682e-13 0
-1.43015e-08 1.11676e-13 0
-1.43015e-08 6.33774e-14 0
-1.43015e-08 2.11782e-14 0
0.0126435 2.57477e-11 0
0 -8.49299e-09 0
4.38867e-13 -6.97192e-10 0
-4.30918e-08 -3.23434e-10 0
-2.75794e-08 -2.64197e-10 0
-1.98067e-08 -9.43456e-10 0
-1.52241e-08 -8.34397e-09 0
-1.25458e-08 -8.03846e-09 0
-1.03857e-12 8.58574e-13 0
-2.68265e-14 2.68265e-14 0
8.58591e-13 -8.04903e-13 0
-9.11117e-09 3.83049e-09 0
-2.56834e-08 6.37599e-09 0
-2.1425e-08 4.26964e-09 0
-1.78886e-08 2.941e-09 0
-1.62095e-08 2.13109e-09 0
-1.53892e-08 1.61655e-09 0
-1.49589e-08 1.24221e-09 0
-1.47187e-08 9.53064e-10 0
-1.45772e-08 7.27953e-10 0
-1.44897e-08 5.53463e-10 0
-1.44332e-08 4.19048e-10 0
-1.43954e-08 3.16125e-10 0
-1.43694e-08 2.37741e-10 0
-1.43511e-08 1.78327e-10 0
-1.43381e-08 1.33472e-10 0
-1.43286e-08 9.97229e-11 0
-1.43217e-08 7.4399e-11 0
-1.43166e-08 5.54399e-11 0
-1.43128e-08 4.12717e-11 0
-1.43101e-08 3.06994e-11 0
-1.4308e-08 2.28198e-11 0
-1.43065e-08 1.6953e-11 0
-1.43053e-08 1.25882e-11 0
-1.43045e-08 9.34311e-12 0
-1.43038e-08 6.93183e-12 0
-1.43034e-08 5.14094e-12 0
-1.4303e-08 3.81133e-12 0
-1.43028e-08 2.82447e-12 0
-1.43026e-08 2.09213e-12 0
-1.43024e-08 1.54867e-12 0
-1.43023e-08 1.14524e-12 0
-1.43022e-08 8.45511e-13 0
-1.43022e-08 6.22422e-13 0
-1.43021e-08 4.55753e-13 0
-1.43021e-08 3.30313e-13 0
-1.43021e-08 2.34556e-13 0
-1.43021e-08 1.59575e-13 0
-1.4302e-08 9.84081e-14 0
-1.4302e-08 4.54411e-14 0
-1.4302e-08 -3.25284e-15 0
0.0126435 5.4459e-09 0
0 -5.54029e-09 0
3.50846e-13 -3.89358e-09 0
-3.92049e-08 -4.90792e-09 0
-2.62498e-08 -1.87671e-09 0
-2.00303e-08 -3.14727e-09 0
-1.72529e-08 -4.19614e-09 0
-2.01855e-08 -1.42723e-08 0
-1.54167e-08 -1.23611e-08 0
-1.03501e-12 6.8214e-13 0
9.55405e-13 6.02502e-13 0
6.40794e-14 1.91926e-08 0
-3.68657e-08 1.84362e-08 0
-2.50655e-08 -1.53706e-09 0
-1.80849e-08 -5.57346e-10 0
-1.60345e-08 7.03458e-10 0
-1.53462e-08 9.62046e-10 0
-1.50284e-08 8.96962e-10 0
-1.48394e-08 7.52077e-10 0
-1.47102e-08 6.02075e-10 0
-1.4616e-08 4.7009e-10 0
-1.45455e-08 3.61497e-10 0
-1.44921e-08 2.75231e-10 0
-1.44515e-08 2.08117e-10 0
-1.44208e-08 1.56603e-10 0
-1.43976e-08 1.17422e-10 0
-1.438e-08 8.78112e-11 0
-1.43668e-08 6.55367e-11 0
-1.43569e-08 4.88377e-11 0
-1.43495e-08 3.63502e-11 0
-1.43439e-08 2.70301e-11 0
-1.43398e-08 2.00842e-11 0
-1.43367e-08 1.49139e-11 0
-1.43344e-08 1.10687e-11 0
-1.43326e-08 8.21114e-12 0
-1.43313e-08 6.08885e-12 0
-1.43304e-08 4.51342e-12 0
-1.43297e-08 3.34438e-12 0
-1.43291e-08 2.47717e-12 0
-1.43288e-08 1.83397e-12 0
-1.43285e-08 1.3569e-12 0
-1.43282e-08 1.00295e-12 0
-1.43281e-08 7.40103e-13 0
-1.4328e-08 5.44503e-13 0
-1.43279e-08 3.983e-13 0
-1.43278e-08 2.87982e-13 0
-1.43278e-08 2.03081e-13 0
-1.43277e-08 1.35164e-13 0
-1.43277e-08 7.72253e-14 0
-1.43277e-08 2.35115e-14 0
-1.43277e-08 -2.92132e-14 0
0.0126432 1.10647e-08 0
0 -5.55954e-09 0
2.07796e-13 -6.00889e-09 0
-3.26692e-08 -7.87862e-09 0
-2.42407e-08 -2.49823e-09 0
-1.99181e-08 -1.20047e-09 0
-2.05511e-08 -4.37956e-09 0
-2.31453e-08 -8.29612e-09 0
-3.45175e-08 -1.97901e-08 0
-3.27402e-08 -1.53016e-08 0
-1.96319e-08 2.15973e-19 0
-9.22117e-09 3.91501e-08 0
-2.93316e-09 3.05127e-08 0
-1.05719e-08 -1.34483e-08 0
-1.43035e-08 -5.4848e-09 0
-1.55173e-08 -4.01824e-10 0
-1.58425e-08 6.68211e-10 0
-1.58672e-08 7.4929e-10 0
-1.57933e-08 6.37546e-10 0
-1.56946e-08 5.04895e-10 0
-1.55988e-08 3.88788e-10 0
-1.55155e-08 2.95259e-10 0
-1.5447e-08 2.22452e-10 0
-1.53923e-08 1.66766e-10 0
-1.53496e-08 1.24609e-10 0
-1.53167e-08 9.28995e-11 0
-1.52915e-08 6.91491e-11 0
-1.52724e-08 5.14109e-11 0
-1.5258e-08 3.81894e-11 0
-1.52472e-08 2.83487e-11 0
-1.52391e-08 2.10322e-11 0
-1.5233e-08 1.55968e-11 0
-1.52285e-08 1.15615e-11 0
-1.52251e-08 8.56735e-12 0
-1.52226e-08 6.34661e-12 0
-1.52207e-08 4.70014e-12 0
-1.52194e-08 3.47983e-12 0
-1.52183e-08 2.5756e-12 0
-1.52175e-08 1.9057e-12 0
-1.5217e-08 1.40947e-12 0
-1.52166e-08 1.04184e-12 0
-1.52162e-08 7.69397e-13 0
-1.5216e-08 5.6729e-13 0
-1.52158e-08 4.17035e-13 0
-1.52157e-08 3.04785e-13 0
-1.52156e-08 2.20018e-13 0
-1.52155e-08 1.54409e-13 0
-1.52155e-08 1.00753e-13 0
-1.52155e-08 5.20026e-14 0
-1.52155e-08 8.5549e-16 0
-1.52155e-08 -5.77359e-14 0
0.0126255 1.73526e-08 0
0 -7.59616e-09 0
1.02802e-13 -5.73533e-09 0
-3.07434e-08 -7.32268e-09 0
-3.09902e-08 -1.96771e-09 0
-3.01735e-08 3.94363e-10 0
-2.97889e-08 3.45903e-09 0
-3.19961e-08 2.79067e-09 0
-3.42854e-08 -2.04903e-09 0
-4.91782e-08 -1.77068e-08 0
-5.20753e-08 -2.89281e-08 0
-5.57625e-08 -2.78018e-09 0
-1.8555e-08 1.79939e-08 0
-2.72727e-08 1.08157e-08 0
-3.18473e-08 5.03421e-09 0
-3.23805e-08 2.47764e-09 0
-3.205e-08 1.38415e-09 0
-3.16338e-08 8.67491e-10 0
-3.12754e-08 5.8371e-10 0
-3.09909e-08 4.0758e-10 0
-3.07717e-08 2.90099e-10 0
-3.06049e-08 2.08744e-10 0
-3.04792e-08 1.51265e-10 0
-3.03848e-08 1.10164e-10 0
-3.03141e-08 8.05327e-11 0
-3.02615e-08 5.90393e-11 0
-3.02222e-08 4.33759e-11 0
-3.0193e-08 3.19197e-11 0
-3.01713e-08 2.35172e-11 0
-3.01552e-08 1.73415e-11 0
-3.01433e-08 1.27953e-11 0
-3.01344e-08 9.44477e-12 0
-3.01278e-08 6.97343e-12 0
-3.0123e-08 5.14953e-12 0
-3.01193e-08 3.80293e-12 0
-3.01167e-08 2.80848e-12 0
-3.01147e-08 2.07397e-12 0
-3.01132e-08 1.53139e-12 0
-3.01121e-08 1.13057e-12 0
-3.01113e-08 8.34425e-13 0
-3.01107e-08 6.15579e-13 0
-3.01103e-08 4.5378e-13 0
-3.011e-08 3.34039e-13 0
-3.01097e-08 2.45235e-13 0
-3.01096e-08 1.79065e-13 0
-3.01094e-08 1.29234e-13 0
-3.01093e-08 9.07396e-14 0
-3.01093e-08 5.89705e-14 0
-3.01092e-08 2.79483e-14 0
-3.01092e-08 -1.58938e-14 0
-3.01093e-08 -1.0978e-13 0
0.0119891 2.3884e-08 0
0 0 0
3.78388e-14 0 0
-1.62698e-08 0 0
-1.9332e-08 0 0
-2.02153e-08 0 0
-1.95164e-08 0 0
-1.64905e-08 0 0
-1.51845e-08 0 0
-1.64382e-08 0 0
-3.24433e-08 0 0
-4.65412e-08 0 0
-3.68971e-08 0 0
-2.98048e-08 0 0
-2.63718e-08 0 0
-2.47015e-08 0 0
-2.38077e-08 0 0
-2.32717e-08 0 0
-2.29222e-08 0 0
-2.26827e-08 0 0
-2.25142e-08 0 0
-2.23938e-08 0 0
-2.23069e-08 0 0
-2.22438e-08 0 0
-2.21978e-08 0 0
-2.21641e-08 0 0
-2.21394e-08 0 0
-2.21212e-08 0 0
-2.21078e-08 0 0
-2.20979e-08 0 0
-2.20906e-08 0 0
-2.20853e-08 0 0
-2.20813e-08 0 0
-2.20784e-08 0 0
-2.20762e-08 0 0
-2.20746e-08 0 0
-2.20734e-08 0 0
-2.20725e-08 0 0
-2.20719e-08 0 0
-2.20714e-08 0 0
-2.20711e-08 0 0
-2.20708e-08 0 0
-2.20706e-08 0 0
-2.20705e-08 0 0
-2.20704e-08 0 0
-2.20703e-08 0 0
-2.20702e-08 0 0
-2.20702e-08 0 0
-2.20702e-08 0 0
-2.20702e-08 0 0
-2.20702e-08 0 0
0.00568495 0 0
0 0 5.8059e-09
3.33699e-14 0 4.25537e-09
-2.65264e-08 0 4.6245e-09
-3.13176e-08 0 -4.13693e-10
-2.62345e-08 0 -1.54047e-09
-1.41984e-08 0 -6.0232e-10
-2.04589e-08 0 4.32765e-10
-2.05282e-08 0 4.29152e-10
-1.93604e-08 0 1.14062e-10
-1.88971e-08 0 -1.2827e-10
-2.01076e-08 0 -1.66545e-10
-2.19842e-08 0 -1.23785e-10
-2.3822e-08 0 -7.42385e-11
-2.53745e-08 0 -3.99565e-11
-2.66069e-08 0 -2.05359e-11
-2.75485e-08 0 -1.06854e-11
-2.82492e-08 0 -5.93127e-12
-2.87619e-08 0 -3.61152e-12
-2.91332e-08 0 -2.39555e-12
-2.94009e-08 0 -1.68375e-12
-2.95938e-08 0 -1.22037e-12
-2.97331e-08 0 -8.9611e-13
-2.98339e-08 0 -6.60612e-13
-2.99072e-08 0 -4.8703e-13
-2.99606e-08 0 -3.58604e-13
-2.99998e-08 0 -2.6365e-13
-3.00285e-08 0 -1.93585e-13
-3.00496e-08 0 -1.41992e-13
-3.00652e-08 0 -1.04068e-13
-3.00767e-08 0 -7.62292e-14
-3.00852e-08 0 -5.5814e-14
-3.00915e-08 0 -4.0854e-14
-3.00962e-08 0 -2.98964e-14
-3.00997e-08 0 -2.18739e-14
-3.01022e-08 0 -1.60019e-14
-3.01041e-08 0 -1.17046e-14
-3.01055e-08 0 -8.56013e-15
-3.01065e-08 0 -6.25948e-15
-3.01073e-08 0 -4.57706e-15
-3.01079e-08 0 -3.34895e-15
-3.01083e-08 0 -2.45678e-15
-3.01086e-08 0 -1.82032e-15
-3.01089e-08 0 -1.3944e-15
-3.0109e-08 0 -1.16977e-15
-3.01091e-08 0 -1.16583e-15
-3.01092e-08 0 -1.31227e-15
-3.01093e-08 0 -8.03163e-16
-3.01094e-08 0 3.91125e-15
-3.01094e-08 0 2.4579e-14
-3.01095e-08 0 9.35407e-14
0.011989 0 -2.02283e-08
0.0036 1.16231e-08 6.05771e-09
0.00359998 -0.00530638 -0.00270547
0.0145242 -0.00976168 -0.0043051
0.0243027 -0.00867561 -0.00247297
0.0339312 -0.00806108 -0.00135671
0.0443635 -0.004923 -0.000698985
0.0460316 -0.000734314 -0.000322212
0.0455075 0.00226505 -0.000161997
0.0401855 0.00405413 -9.52172e-05
0.035259 0.0039239 -6.33512e-05
0.031412 0.00308039 -3.64098e-05
0.0287841 0.00214524 -1.96768e-05
0.0271379 0.00137399 -1.0299e-05
0.026171 0.000823076 -5.2686e-06
0.0256368 0.000463124 -2.66092e-06
0.0253622 0.000242842 -1.34471e-06
0.025235 0.000115463 -6.89333e-07
0.0251869 4.58958e-05 -3.62502e-07
0.0251783 1.04108e-05 -1.97004e-07
0.0251875 -5.96086e-06 -1.11021e-07
0.0252029 -1.21695e-05 -6.48967e-08
0.0252191 -1.33268e-05 -3.92797e-08
0.0252337 -1.22247e-05 -2.45478e-08
0.0252459 -1.0313e-05 -1.57867e-08
0.0252557 -8.295e-06 -1.041e-08
0.0252632 -6.47504e-06 -7.01305e-09
0.025269 -4.95477e-06 -4.80998e-09
0.0252733 -3.73976e-06 -3.34771e-09
0.0252766 -2.79545e-06 -2.35758e-09
0.025279 -2.07508e-06 -1.6758e-09
0.0252808 -1.53255e-06 -1.19984e-09
0.0252821 -1.12767e-06 -8.63878e-10
0.025283 -8.27482e-07 -6.2468e-10
0.0252837 -6.05968e-07 -4.53246e-10
0.0252842 -4.43077e-07 -3.29801e-10
0.0252846 -3.23602e-07 -2.40674e-10
0.0252849 -2.36136e-07 -1.76348e-10
0.0252851 -1.72192e-07 -1.30217e-10
0.0252852 -1.25491e-07 -9.78073e-11
0.0252853 -9.14064e-08 -7.63249e-11
0.0252854 -6.65402e-08 -6.44447e-11
0.0252855 -4.84031e-08 -6.22537e-11
0.0252855 -3.51776e-08 -7.11778e-11
0.0252855 -2.55442e-08 -9.34871e-11
0.0252856 -1.85618e-08 -1.30902e-10
0.0252856 -1.35991e-08 -1.85591e-10
0.0252856 -1.03588e-08 -3.06381e-10
0.0252856 -9.3372e-09 -1.04548e-09
0.0252856 -1.46958e-08 -6.42259e-09
0.0252856 -3.65996e-08 -2.70162e-08
0.0252857 -5.33263e-08 -4.28832e-08
0.01 1.10667e-08 7.82342e-09
0.01 -0.00836091 -0.00482918
0.0180793 -0.0163823 -0.00740968
0.0259717 -0.0165985 -0.00381797
0.0351536 -0.0183932 -0.00186448
0.0525092 -0.0111607 -0.000805006
0.0517443 -0.000644846 -0.000263898
0.0522754 0.00611466 -0.000125757
0.042031 0.0103933 -8.8144e-05
0.035289 0.00885357 -7.89272e-05
0.0311953 0.00651772 -4.61926e-05
0.0287843 0.00429656 -2.3351e-05
0.0274994 0.00262486 -1.16062e-05
0.0268609 0.0015072 -5.58495e-06
0.0265726 0.000811898 -2.59447e-06
0.0264643 0.000403361 -1.17371e-06
0.0264423 0.00017608 -5.22839e-07
0.0264573 5.71036e-05 -2.31891e-07
0.026485 -3.09894e-07 -1.03512e-07
0.0265141 -2.44379e-05 -4.701e-08
0.0265401 -3.15933e-05 -2.19641e-08
0.0265615 -3.07866e-05 -1.06769e-08
0.0265785 -2.67713e-05 -5.45559e-09
0.0265916 -2.1915e-05 -2.95193e-09
0.0266016 -1.7298e-05 -1.69564e-09
0.026609 -1.33351e-05 -1.03091e-09
0.0266146 -1.01168e-05 -6.58453e-10
0.0266187 -7.58988e-06 -4.37606e-10
0.0266217 -5.64894e-06 -2.99741e-10
0.0266239 -4.18022e-06 -2.09877e-10
0.0266255 -3.08039e-06 -1.49276e-10
0.0266267 -2.26292e-06 -1.07361e-10
0.0266276 -1.6586e-06 -7.78465e-11
0.0266282 -1.21359e-06 -5.68241e-11
0.0266287 -8.86856e-07 -4.17743e-11
0.026629 -6.47463e-07 -3.10461e-11
0.0266293 -4.72343e-07 -2.35761e-11
0.0266294 -3.44387e-07 -1.87502e-11
0.0266296 -2.50972e-07 -1.63643e-11
0.0266297 -1.82814e-07 -1.66701e-11
0.0266297 -1.33109e-07 -2.04993e-11
0.0266298 -9.68785e-08 -2.944e-11
0.0266298 -7.05026e-08 -4.59443e-11
0.0266298 -5.13737e-08 -7.30767e-11
0.0266299 -3.76784e-08 -1.13781e-10
0.0266299 -2.8309e-08 -1.74142e-10
0.0266299 -2.29634e-08 -3.16668e-10
0.0266299 -2.22766e-08 -1.13614e-09
0.0266299 -2.66025e-08 -6.80685e-09
0.0266299 -3.60222e-08 -2.75406e-08
0.0266299 -4.20769e-08 -4.33169e-08
0.0148 -9.09949e-09 1.83228e-08
0.0148 -0.00913532 -0.00662063
0.0200215 -0.0187121 -0.0101648
0.0241201 -0.0214892 -0.00514734
0.0262586 -0.0322837 -0.00240358
0.0281331 -0.0203715 -0.000860948
0.0269277 -1.55345e-07 -8.92899e-05
0.0277149 0.0122528 -4.67085e-05
0.0331876 0.0211853 -3.5591e-05
0.0297287 0.014842 -3.72541e-05
0.0272715 0.00962879 -3.2733e-05
0.0261311 0.00586383 -2.01493e-05
0.0258027 0.00330917 -1.04084e-05
0.0258434 0.00175594 -4.76131e-06
0.0260019 0.000862694 -1.95139e-06
0.0261695 0.000374627 -7.15848e-07
0.0263088 0.000123244 -2.24482e-07
0.0264137 3.61957e-06 -4.90209e-08
0.0264892 -4.61481e-05 4.03357e-09
0.0265422 -6.09275e-05 1.44313e-08
0.0265792 -5.95523e-05 1.23848e-08
0.026605 -5.17604e-05 8.18792e-09
0.026623 -4.23151e-05 4.73731e-09
0.0266357 -3.33531e-05 2.4618e-09
0.0266446 -2.56798e-05 1.12143e-09
0.026651 -1.94619e-05 3.95328e-10
0.0266555 -1.45887e-05 3.48065e-11
0.0266588 -1.0851e-05 -1.22717e-10
0.0266611 -8.02582e-06 -1.74581e-10
0.0266628 -5.91206e-06 -1.75691e-10
0.026664 -4.34199e-06 -1.55465e-10
0.0266649 -3.18185e-06 -1.28798e-10
0.0266656 -2.32786e-06 -1.02661e-10
0.026666 -1.701e-06 -7.98872e-11
0.0266664 -1.2418e-06 -6.12707e-11
0.0266666 -9.05937e-07 -4.67007e-11
0.0266668 -6.60553e-07 -3.57571e-11
0.0266669 -4.81425e-07 -2.80324e-11
0.026667 -3.5074e-07 -2.33278e-11
0.0266671 -2.55439e-07 -2.18145e-11
0.0266671 -1.85963e-07 -2.4211e-11
0.0266672 -1.35335e-07 -3.19735e-11
0.0266672 -9.84794e-08 -4.73836e-11
0.0266672 -7.17309e-08 -7.32e-11
0.0266672 -5.2495e-08 -1.11497e-10
0.0266672 -3.90073e-08 -1.64924e-10
0.0266672 -3.01277e-08 -2.81232e-10
0.0266672 -2.51795e-08 -9.93748e-10
0.0266672 -2.40676e-08 -6.25582e-09
0.0266672 -2.61768e-08 -2.57419e-08
0.0266672 -2.78478e-08 -4.05931e-08
0.018 -2.84387e-08 1.82226e-08
0.018 -0.00786319 -0.0079075
0.0206995 -0.0161536 -0.0122084
0.0208653 -0.017018 -0.0061365
0.015928 -0.0192813 -0.00277642
-2.88988e-09 -0.0105538 -0.000940813
1.93015e-06 8.90532e-07 1.28408e-09
-9.14787e-07 1.00818e-06 -7.16315e-06
0.0122683 0.00847144 -3.23453e-06
0.0212144 0.0148244 3.1327e-06
0.0216547 0.0101479 -8.21186e-06
0.0224955 0.00578373 -1.30741e-05
0.0236559 0.00292252 -8.28017e-06
0.0246541 0.00131315 -3.56181e-06
0.025382 0.000488382 -1.18187e-06
0.0258673 9.7799e-05 -2.48694e-07
0.0261749 -6.75095e-05 4.08767e-08
0.0263646 -0.000122947 9.3497e-08
0.0264803 -0.000128632 7.69427e-08
0.0265505 -0.000114403 4.99419e-08
0.0265934 -9.43296e-05 2.86306e-08
0.0266199 -7.45688e-05 1.48855e-08
0.0266364 -5.74467e-05 6.90768e-09
0.0266469 -4.35214e-05 2.6214e-09
0.0266537 -3.26013e-05 4.91615e-10
0.0266581 -2.42308e-05 -4.56345e-10
0.0266611 -1.791e-05 -7.93527e-10
0.0266632 -1.31856e-05 -8.36822e-10
0.0266646 -9.67949e-06 -7.54092e-10
0.0266655 -7.09071e-06 -6.29837e-10
0.0266662 -5.18625e-06 -5.03671e-10
0.0266667 -3.78894e-06 -3.91963e-10
0.0266671 -2.76573e-06 -2.99614e-10
0.0266673 -2.01754e-06 -2.26284e-10
0.0266675 -1.47104e-06 -1.69568e-10
0.0266676 -1.07216e-06 -1.26547e-10
0.0266677 -7.81209e-07 -9.45013e-11
0.0266678 -5.69063e-07 -7.12161e-11
0.0266678 -4.14423e-07 -5.51123e-11
0.0266679 -3.01719e-07 -4.53391e-11
0.0266679 -2.19584e-07 -4.18929e-11
0.0266679 -1.59728e-07 -4.57714e-11
0.0266679 -1.16111e-07 -5.90411e-11
0.0266679 -8.43425e-08 -8.44225e-11
0.0266679 -6.12419e-08 -1.23734e-10
0.0266679 -4.45149e-08 -1.77365e-10
0.026668 -3.25243e-08 -2.82709e-10
0.026668 -2.41238e-08 -9.42944e-10
0.0266679 -1.86561e-08 -6.03082e-09
0.0266679 -1.52361e-08 -2.50946e-08
0.0266679 -1.3864e-08 -3.96559e-08
0.0196 -2.82393e-08 8.13259e-09
0.0196 -0.00502328 -0.00857393
0.0210336 -0.0100704 -0.0132673
0.0197697 -0.00967053 -0.00660735
0.0147243 -0.0077228 -0.00285298
0.00447499 -0.00309937 -0.00118147
1.53536e-06 -1.42722e-06 -0.000242494
5.12436e-07 -5.12436e-07 -4.27555e-10
-8.81185e-07 9.4839e-07 -2.96571e-06
0.00847658 0.005479 -2.03544e-06
0.0148347 0.00836528 -3.98298e-06
0.0184542 0.00387532 -1.03685e-05
0.0216102 0.00115836 -8.01164e-06
0.0237281 3.40817e-05 -3.41324e-06
0.0250112 -0.000348278 -1.02919e-06
0.0257494 -0.000417185 -1.41387e-07
0.0261634 -0.000373605 9.22479e-08
0.0263923 -0.000301501 1.07306e-07
0.026518 -0.000231895 7.28645e-08
0.0265866 -0.000174017 4.00759e-08
0.026624 -0.000128858 1.85711e-08
0.0266443 -9.47177e-05 6.55971e-09
0.0266553 -6.9335e-05 6.02703e-10
0.0266612 -5.06362e-05 -1.95388e-09
0.0266644 -3.69316e-05 -2.76316e-09
0.0266661 -2.69162e-05 -2.75436e-09
0.026667 -1.96088e-05 -2.41475e-09
0.0266675 -1.4282e-05 -1.98367e-09
0.0266678 -1.04009e-05 -1.5688e-09
0.0266679 -7.57401e-06 -1.21127e-09
0.0266679 -5.5152e-06 -9.20444e-10
0.026668 -4.01592e-06 -6.91858e-10
0.026668 -2.92416e-06 -5.16109e-10
0.026668 -2.12916e-06 -3.82987e-10
0.026668 -1.55027e-06 -2.83237e-10
0.026668 -1.12874e-06 -2.09153e-10
0.026668 -8.21788e-07 -1.54641e-10
0.026668 -5.98267e-07 -1.15104e-10
0.026668 -4.35487e-07 -8.72788e-11
0.026668 -3.16928e-07 -6.91368e-11
0.026668 -2.30552e-07 -5.98802e-11
0.026668 -1.67592e-07 -6.00129e-11
0.026668 -1.21652e-07 -7.13364e-11
0.026668 -8.80582e-08 -9.63948e-11
0.026668 -6.33783e-08 -1.36539e-10
0.026668 -4.5064e-08 -1.90622e-10
0.026668 -3.11924e-08 -2.92406e-10
0.026668 -2.03078e-08 -9.36903e-10
0.026668 -1.13927e-08 -5.97967e-09
0.026668 -3.66e-09 -2.4948e-08
0.026668 9.30695e-12 -3.94465e-08
0.0196 -1.85059e-08 -3.13973e-09
0.0196 -0.00191837 -0.00858813
0.0213526 -0.00380459 -0.0132757
0.021004 -0.00308559 -0.00660365
0.0179693 -0.000192539 -0.00279728
0.013664 0.00583949 -0.00134746
0.00867449 0.00483267 -0.000590826
1.54367e-06 -1.31077e-06 -0.000124577
4.29588e-07 -4.29588e-07 -2.45821e-10
-8.54373e-07 9.07996e-07 -1.20323e-06
0.00548102 0.000180476 -2.15712e-06
0.0145436 -0.000982524 -1.13424e-05
0.0205645 -0.0023446 -1.59333e-05
0.0236707 -0.00208385 -7.5584e-06
0.0252102 -0.00153084 -2.62847e-06
0.0259704 -0.00105336 -7.82213e-07
0.0263448 -0.000709872 -2.10831e-07
0.0265276 -0.000477298 -5.8008e-08
0.026615 -0.00032281 -2.36623e-08
0.0266552 -0.000220355 -1.73612e-08
0.0266723 -0.00015196 -1.55939e-08
0.0266783 -0.000105828 -1.36753e-08
0.0266794 -7.43535e-05 -1.13548e-08
0.0266783 -5.26344e-05 -9.03203e-09
0.0266766 -3.74922e-05 -6.97852e-09
0.0266749 -2.68404e-05 -5.2906e-09
0.0266733 -1.92914e-05 -3.96204e-09
0.026672 -1.39086e-05 -2.94356e-09
0.026671 -1.00517e-05 -2.17551e-09
0.0266703 -7.27768e-06 -1.60231e-09
0.0266697 -5.27655e-06 -1.1774e-09
0.0266692 -3.82969e-06 -8.63805e-10
0.0266689 -2.78176e-06 -6.3308e-10
0.0266686 -2.02177e-06 -4.63708e-10
0.0266685 -1.47005e-06 -3.39625e-10
0.0266683 -1.06922e-06 -2.48946e-10
0.0266682 -7.77841e-07 -1.82973e-10
0.0266682 -5.65931e-07 -1.35449e-10
0.0266681 -4.11751e-07 -1.02045e-10
0.0266681 -2.99524e-07 -8.00487e-11
0.026668 -2.17786e-07 -6.82364e-11
0.026668 -1.58191e-07 -6.6876e-11
0.026668 -1.14648e-07 -7.76818e-11
0.026668 -8.2686e-08 -1.03235e-10
0.026668 -5.89864e-08 -1.45062e-10
0.026668 -4.1021e-08 -2.02472e-10
0.026668 -2.67777e-08 -3.1065e-10
0.026668 -1.45788e-08 -9.69391e-10
0.026668 -3.09047e-09 -6.04835e-09
0.026668 8.24921e-09 -2.50937e-08
0.026668 1.38815e-08 -3.96431e-08
0.018 -1.27002e-08 -1.10185e-08
0.018 0.000612873 -0.00800631
0.0209698 0.00103979 -0.0123382
0.0222998 0.00130929 -0.00613711
0.0217829 0.0033242 -0.00263255
0.0212178 0.00811668 -0.00125726
0.0220319 0.0145349 -0.00065963
0.0140769 0.00886004 -0.000293008
1.57506e-06 -1.04649e-06 -6.32717e-05
-7.41434e-07 -1.12567e-06 6.66543e-09
9.55678e-08 -0.00617325 2.33071e-05
0.0147706 -0.0112 7.36584e-06
0.0223843 -0.00796032 -2.54673e-05
0.0251872 -0.00460642 -1.31643e-05
0.0262094 -0.0026453 -4.93592e-06
0.0265903 -0.00155046 -1.79213e-06
0.0267243 -0.000930077 -6.9747e-07
0.0267608 -0.000571323 -3.05031e-07
0.0267601 -0.000359332 -1.51011e-07
0.0267469 -0.000231202 -8.26718e-08
0.0267312 -0.000151948 -4.84686e-08
0.0267168 -0.000101784 -2.96885e-08
0.0267049 -6.93239e-05 -1.8729e-08
0.0266954 -4.78834e-05 -1.20826e-08
0.0266882 -3.34592e-05 -7.94468e-09
0.0266827 -2.35995e-05 -5.31415e-09
0.0266786 -1.67691e-05 -3.61032e-09
0.0266756 -1.19849e-05 -2.487e-09
0.0266734 -8.60405e-06 -1.73389e-09
0.0266717 -6.19821e-06 -1.2211e-09
0.0266705 -4.47679e-06 -8.67137e-10
0.0266696 -3.23988e-06 -6.19903e-10
0.026669 -2.34822e-06 -4.45532e-10
0.0266685 -1.70387e-06 -3.21605e-10
0.0266682 -1.23736e-06 -2.33042e-10
0.0266679 -8.99122e-07 -1.69575e-10
0.0266678 -6.53625e-07 -1.24168e-10
0.0266676 -4.75287e-07 -9.20455e-11
0.0266675 -3.45642e-07 -7.01053e-11
0.0266675 -2.51328e-07 -5.66127e-11
0.0266674 -1.82653e-07 -5.11125e-11
0.0266674 -1.32569e-07 -5.44879e-11
0.0266673 -9.5928e-08 -6.90051e-11
0.0266673 -6.89374e-08 -9.79272e-11
0.0266673 -4.87497e-08 -1.44087e-10
0.0266673 -3.31345e-08 -2.10055e-10
0.0266673 -2.01854e-08 -3.39836e-10
0.0266673 -8.04319e-09 -1.05791e-09
0.0266673 5.1841e-09 -6.30237e-09
0.0266673 2.0083e-08 -2.57412e-08
0.0266673 2.7862e-08 -4.05623e-08
0.0148 -1.15975e-08 -1.70674e-08
0.0148 0.00202592 -0.00692993
0.0196453 0.00354027 -0.0106318
0.0228772 0.00314122 -0.00530285
0.0246134 0.00435093 -0.00235929
0.0263318 0.00736882 -0.00116379
0.0295825 0.0129448 -0.000624984
0.0346107 0.0224721 -0.000319264
0.0298564 0.0141721 -6.94845e-05
0.0305221 1.54426e-14 7.40961e-05
0.0327965 -0.01459 7.25442e-05
0.0311381 -0.0233603 1.28128e-05
0.0294075 -0.01275 -2.58358e-05
0.0284161 -0.00590159 -1.3901e-05
0.0278116 -0.00293014 -5.43667e-06
0.0274209 -0.00156638 -2.06518e-06
0.0271638 -0.00087953 -8.15271e-07
0.0269935 -0.000512645 -3.37471e-07
0.0268799 -0.000308602 -1.44417e-07
0.0268034 -0.000191312 -6.20924e-08
0.0267514 -0.000121833 -2.55956e-08
0.0267157 -7.94867e-05 -9.17016e-09
0.0266909 -5.29726e-05 -1.90631e-09
0.0266735 -3.59493e-05 1.08905e-09
0.0266612 -2.47685e-05 2.10455e-09
0.0266524 -1.72766e-05 2.23563e-09
0.0266462 -1.21702e-05 2.00805e-09
0.0266417 -8.6399e-06 1.66893e-09
0.0266384 -6.17077e-06 1.32827e-09
0.0266361 -4.42781e-06 1.02929e-09
0.0266344 -3.18846e-06 7.83796e-10
0.0266332 -2.30221e-06 5.89802e-10
0.0266323 -1.66569e-06 4.40131e-10
0.0266316 -1.207e-06 3.26442e-10
0.0266312 -8.75628e-07 2.40951e-10
0.0266308 -6.35764e-07 1.77025e-10
0.0266306 -4.61885e-07 1.29252e-10
0.0266304 -3.35693e-07 9.32666e-11
0.0266303 -2.44021e-07 6.54755e-11
0.0266302 -1.77364e-07 4.27248e-11
0.0266301 -1.28838e-07 2.19147e-11
0.0266301 -9.34389e-08 -4.1993e-13
0.02663 -6.7511e-08 -2.84759e-11
0.02663 -4.83488e-08 -6.72353e-11
0.02663 -3.38971e-08 -1.22047e-10
0.02663 -2.24927e-08 -2.01714e-10
0.02663 -1.25785e-08 -3.69098e-10
0.0266299 -2.23113e-09 -1.20859e-09
0.0266299 1.15975e-08 -6.85931e-09
0.0266299 3.09737e-08 -2.75204e-08
0.0266299 4.20859e-08 -4.32505e-08
0.01 -1.755e-08 -2.50869e-08
0.01 0.00184066 -0.00549654
0.0170822 0.00310419 -0.00836681
0.0218377 0.00245333 -0.00418767
0.0251687 0.00295983 -0.00196684
0.0287981 0.00476541 -0.00100995
0.0339468 0.00713928 -0.000584645
0.0425372 0.00906507 -0.000328315
0.0568611 0.00427864 -9.0467e-05