# vtk DataFile Version 2.0
Tobias Weinzierl: CPU, Manycore and Cluster Computing
ASCII

DATASET STRUCTURED_POINTS
DIMENSIONS  51 11 6

ORIGIN 0 0 0 

SPACING 0.1 0.1 0.1 

POINT_DATA 3366

VECTORS velocity float
0 0 0
-8.72034e-15 0 0
-6.27713e-09 0 0
-8.63941e-09 0 0
-7.28873e-09 0 0
-2.4315e-09 0 0
-2.55763e-09 0 0
-4.41367e-09 0 0
-6.2379e-09 0 0
-7.22185e-09 0 0
-7.3272e-09 0 0
-7.14058e-09 0 0
-6.98752e-09 0 0
-6.93123e-09 0 0
-6.95229e-09 0 0
-7.0142e-09 0 0
-7.08648e-09 0 0
-7.15224e-09 0 0
-7.20528e-09 0 0
-7.24524e-09 0 0
-7.27416e-09 0 0
-7.29457e-09 0 0
-7.30878e-09 0 0
-7.3186e-09 0 0
-7.32539e-09 0 0
-7.33008e-09 0 0
-7.33334e-09 0 0
-7.3356e-09 0 0
-7.33719e-09 0 0
-7.33831e-09 0 0
-7.3391e-09 0 0
-7.33966e-09 0 0
-7.34006e-09 0 0
-7.34034e-09 0 0
-7.34055e-09 0 0
-7.34069e-09 0 0
-7.34079e-09 0 0
-7.34087e-09 0 0
-7.34092e-09 0 0
-7.34096e-09 0 0
-7.34099e-09 0 0
-7.34101e-09 0 0
-7.34102e-09 0 0
-7.34103e-09 0 0
-7.34104e-09 0 0
-7.34104e-09 0 0
-7.34105e-09 0 0
-7.34105e-09 0 0
-7.34105e-09 0 0
-7.34106e-09 0 0
0.00347785 0 0
0 7.78543e-09 0
7.86268e-15 3.88929e-09 0
-1.24538e-08 5.71897e-09 0
-1.67834e-08 2.73984e-09 0
-1.29873e-08 5.15736e-10 0
-4.02077e-09 1.08984e-09 0
-3.19318e-09 3.29248e-09 0
-5.51517e-09 3.07781e-09 0
-7.5302e-09 1.9855e-09 0
-9.29584e-09 8.87618e-10 0
-9.77567e-09 1.60943e-10 0
-9.98111e-09 -1.93341e-11 0
-1.03292e-08 1.70765e-11 0
-1.07493e-08 8.09772e-11 0
-1.11675e-08 1.25487e-10 0
-1.15373e-08 1.40018e-10 0
-1.18347e-08 1.30578e-10 0
-1.20577e-08 1.09263e-10 0
-1.2217e-08 8.53968e-11 0
-1.23273e-08 6.38661e-11 0
-1.2402e-08 4.64164e-11 0
-1.24522e-08 3.31271e-11 0
-1.24858e-08 2.3388e-11 0
-1.25083e-08 1.64199e-11 0
-1.25234e-08 1.15054e-11 0
-1.25336e-08 8.06599e-12 0
-1.25406e-08 5.66618e-12 0
-1.25455e-08 3.99159e-12 0
-1.25489e-08 2.8206e-12 0
-1.25512e-08 1.99915e-12 0
-1.25529e-08 1.42078e-12 0
-1.25541e-08 1.01206e-12 0
-1.25549e-08 7.22251e-13 0
-1.25555e-08 5.16153e-13 0
-1.2556e-08 3.69228e-13 0
-1.25563e-08 2.64287e-13 0
-1.25565e-08 1.89226e-13 0
-1.25566e-08 1.35483e-13 0
-1.25568e-08 9.69793e-14 0
-1.25568e-08 6.93842e-14 0
-1.25569e-08 4.96043e-14 0
-1.2557e-08 3.54257e-14 0
-1.2557e-08 2.52617e-14 0
-1.2557e-08 1.79788e-14 0
-1.2557e-08 1.27734e-14 0
-1.2557e-08 9.07764e-15 0
-1.2557e-08 6.53325e-15 0
-1.25571e-08 5.48283e-15 0
-1.25571e-08 1.00113e-14 0
-1.25571e-08 3.01761e-14 0
0.00865611 -7.95405e-09 0
0 1.11056e-09 0
7.26798e-14 5.07956e-09 0
-1.1094e-08 6.59293e-09 0
-1.4408e-08 2.31371e-09 0
-7.46695e-09 9.11084e-10 0
-3.54312e-09 1.32438e-09 0
-4.9103e-09 2.45482e-09 0
-7.07729e-09 7.74709e-10 0
-5.72871e-09 -7.32508e-11 0
-5.3172e-09 1.04165e-09 0
-5.16799e-09 1.634e-09 0
-5.40892e-09 2.04524e-09 0
-6.09134e-09 1.92856e-09 0
-6.79204e-09 1.51569e-09 0
-7.40977e-09 1.11477e-09 0
-7.91016e-09 8.00075e-10 0
-8.28368e-09 5.63506e-10 0
-8.54563e-09 3.90111e-10 0
-8.72179e-09 2.66305e-10 0
-8.83726e-09 1.8001e-10 0
-8.91198e-09 1.21021e-10 0
-8.96018e-09 8.12547e-11 0
-8.9914e-09 5.46732e-11 0
-9.01182e-09 3.69666e-11 0
-9.02533e-09 2.51625e-11 0
-9.0344e-09 1.72604e-11 0
-9.04058e-09 1.19354e-11 0
-9.04485e-09 8.31748e-12 0
-9.04783e-09 5.83761e-12 0
-9.04993e-09 4.1227e-12 0
-9.05142e-09 2.9269e-12 0
-9.05249e-09 2.08685e-12 0
-9.05326e-09 1.49293e-12 0
-9.05381e-09 1.07079e-12 0
-9.05421e-09 7.69463e-13 0
-9.0545e-09 5.53655e-13 0
-9.05471e-09 3.98705e-13 0
-9.05486e-09 2.87245e-13 0
-9.05498e-09 2.06966e-13 0
-9.05506e-09 1.49095e-13 0
-9.05511e-09 1.07357e-13 0
-9.05516e-09 7.72504e-14 0
-9.05519e-09 5.55475e-14 0
-9.05521e-09 3.99449e-14 0
-9.05523e-09 2.88602e-14 0
-9.05524e-09 2.13769e-14 0
-9.05525e-09 1.73049e-14 0
-9.05525e-09 1.70698e-14 0
-9.05526e-09 2.02896e-14 0
-9.05527e-09 2.70885e-14 0
0.0106038 -8.0473e-09 0
0 -8.54076e-09 0
1.22605e-13 3.24514e-09 0
-9.8169e-09 2.21174e-09 0
-1.34878e-08 -2.91349e-09 0
-5.73403e-09 -9.9755e-10 0
-1.95385e-09 8.82529e-10 0
-4.27476e-09 -1.69231e-14 0
-5.97579e-09 -5.10165e-09 0
-1.11117e-08 -8.19567e-09 0
-9.34877e-09 -3.37711e-09 0
-7.92523e-09 1.07689e-09 0
-7.17771e-09 3.18474e-09 0
-6.90152e-09 3.30288e-09 0
-6.76097e-09 2.54145e-09 0
-6.79961e-09 1.80489e-09 0
-6.93457e-09 1.24765e-09 0
-7.07669e-09 8.45371e-10 0
-7.18906e-09 5.63968e-10 0
-7.26757e-09 3.72596e-10 0
-7.31941e-09 2.45207e-10 0
-7.35298e-09 1.61566e-10 0
-7.37479e-09 1.07014e-10 0
-7.38919e-09 7.14587e-11 0
-7.39891e-09 4.81893e-11 0
-7.40562e-09 3.28426e-11 0
-7.41035e-09 2.26186e-11 0
-7.41373e-09 1.57297e-11 0
-7.41617e-09 1.10338e-11 0
-7.41795e-09 7.79698e-12 0
-7.41925e-09 5.54326e-12 0
-7.4202e-09 3.96014e-12 0
-7.4209e-09 2.83982e-12 0
-7.42141e-09 2.04222e-12 0
-7.42178e-09 1.47167e-12 0
-7.42206e-09 1.06202e-12 0
-7.42226e-09 7.67106e-13 0
-7.4224e-09 5.54361e-13 0
-7.42251e-09 4.00682e-13 0
-7.42259e-09 2.8957e-13 0
-7.42265e-09 2.09193e-13 0
-7.42269e-09 1.51035e-13 0
-7.42272e-09 1.08959e-13 0
-7.42274e-09 7.85464e-14 0
-7.42275e-09 5.66218e-14 0
-7.42277e-09 4.09081e-14 0
-7.42277e-09 2.97557e-14 0
-7.42278e-09 2.20358e-14 0
-7.42278e-09 1.71955e-14 0
-7.42278e-09 1.54799e-14 0
-7.42278e-09 1.68535e-14 0
0.0108763 -5.38404e-09 0
0 -1.63409e-08 0
1.23245e-13 8.2017e-10 0
-1.03115e-08 -1.36864e-09 0
-1.51309e-08 -4.18956e-09 0
-9.68448e-09 -2.0145e-09 0
-3.11322e-14 -1.37948e-11 0
-4.33833e-13 -4.7474e-13 0
4.05161e-13 -4.75166e-13 0
-6.67525e-09 -4.61562e-09 0
-1.10931e-08 -6.40205e-09 0
-9.68191e-09 -1.09785e-09 0
-9.46474e-09 2.2141e-09 0
-9.03825e-09 2.81469e-09 0
-8.27137e-09 2.2666e-09 0
-7.72244e-09 1.68856e-09 0
-7.42993e-09 1.20408e-09 0
-7.28507e-09 8.22866e-10 0
-7.21203e-09 5.47008e-10 0
-7.17363e-09 3.59389e-10 0
-7.15292e-09 2.36146e-10 0
-7.14188e-09 1.56361e-10 0
-7.13633e-09 1.04762e-10 0
-7.13392e-09 7.11338e-11 0
-7.13324e-09 4.89398e-11 0
-7.13343e-09 3.40735e-11 0
-7.13402e-09 2.39651e-11 0
-7.13472e-09 1.69956e-11 0
-7.1354e-09 1.21317e-11 0
-7.136e-09 8.70303e-12 0
-7.13649e-09 6.26649e-12 0
-7.13689e-09 4.52412e-12 0
-7.1372e-09 3.27224e-12 0
-7.13744e-09 2.36962e-12 0
-7.13762e-09 1.71722e-12 0
-7.13776e-09 1.24485e-12 0
-7.13786e-09 9.02454e-13 0
-7.13793e-09 6.54112e-13 0
-7.13799e-09 4.73929e-13 0
-7.13803e-09 3.43189e-13 0
-7.13806e-09 2.48331e-13 0
-7.13808e-09 1.79519e-13 0
-7.13809e-09 1.29603e-13 0
-7.13811e-09 9.33813e-14 0
-7.13811e-09 6.70618e-14 0
-7.13812e-09 4.79014e-14 0
-7.13812e-09 3.39632e-14 0
-7.13812e-09 2.39108e-14 0
-7.13812e-09 1.68521e-14 0
-7.13812e-09 1.2396e-14 0
-7.13813e-09 9.94529e-15 0
0.0109034 -2.52011e-09 0
0 -1.44651e-08 0
1.20431e-13 -6.16728e-10 0
-1.04871e-08 -2.29814e-09 0
-1.59455e-08 -3.6418e-09 0
-1.23664e-08 -3.59858e-09 0
-3.93889e-09 -1.6382e-09 0
-4.28449e-13 4.10969e-13 0
-5.80965e-15 5.80965e-15 0
3.80589e-13 -4.29733e-13 0
-4.98751e-09 -2.5492e-09 0
-7.12166e-09 -1.58066e-09 0
-9.92458e-09 2.72051e-09 0
-1.08685e-08 2.86422e-09 0
-9.86516e-09 1.83762e-09 0
-8.74939e-09 1.22419e-09 0
-8.02859e-09 8.34523e-10 0
-7.6209e-09 5.57586e-10 0
-7.39571e-09 3.68856e-10 0
-7.27054e-09 2.45929e-10 0
-7.20028e-09 1.66938e-10 0
-7.16061e-09 1.15645e-10 0
-7.13816e-09 8.15679e-11 0
-7.12546e-09 5.8334e-11 0
-7.11829e-09 4.21207e-11 0
-7.11426e-09 3.06005e-11 0
-7.112e-09 2.23108e-11 0
-7.11075e-09 1.62967e-11 0
-7.11005e-09 1.19123e-11 0
-7.10966e-09 8.70752e-12 0
-7.10945e-09 6.36233e-12 0
-7.10933e-09 4.64573e-12 0
-7.10927e-09 3.3896e-12 0
-7.10924e-09 2.47098e-12 0
-7.10922e-09 1.79971e-12 0
-7.10921e-09 1.30961e-12 0
-7.1092e-09 9.52102e-13 0
-7.1092e-09 6.91547e-13 0
-7.1092e-09 5.01819e-13 0
-7.1092e-09 3.63775e-13 0
-7.1092e-09 2.63409e-13 0
-7.1092e-09 1.90473e-13 0
-7.1092e-09 1.37477e-13 0
-7.1092e-09 9.89511e-14 0
-7.1092e-09 7.09018e-14 0
-7.1092e-09 5.04041e-14 0
-7.10919e-09 3.52941e-14 0
-7.10919e-09 2.39728e-14 0
-7.10919e-09 1.53198e-14 0
-7.10919e-09 8.65298e-15 0
-7.10919e-09 3.32935e-15 0
0.0109054 2.48508e-10 0
0 -1.0284e-08 0
1.15334e-13 -1.5971e-09 0
-9.93786e-09 -3.38982e-09 0
-1.57464e-08 -2.83841e-09 0
-1.30796e-08 -2.04839e-09 0
-8.57958e-09 -3.11522e-09 0
-3.97237e-09 -2.11251e-09 0
-4.32454e-13 3.89484e-13 0
-8.89688e-15 8.89688e-15 0
3.63478e-13 -3.97698e-13 0
-2.64546e-09 3.21361e-09 0
-9.90417e-09 6.05469e-09 0
-1.34932e-08 3.70959e-09 0
-1.18747e-08 1.09e-09 0
-9.64261e-09 3.24444e-10 0
-8.35592e-09 1.77736e-10 0
-7.74395e-09 1.35273e-10 0
-7.45521e-09 1.11385e-10 0
-7.31288e-09 9.40467e-11 0
-7.23919e-09 7.93419e-11 0
-7.19922e-09 6.58284e-11 0
-7.17652e-09 5.34244e-11 0
-7.16307e-09 4.24418e-11 0
-7.15478e-09 3.31046e-11 0
-7.14949e-09 2.54391e-11 0
-7.14602e-09 1.93178e-11 0
-7.14368e-09 1.45326e-11 0
-7.14207e-09 1.08521e-11 0
-7.14096e-09 8.05632e-12 0
-7.14017e-09 5.95283e-12 0
-7.1396e-09 4.38194e-12 0
-7.1392e-09 3.21564e-12 0
-7.13891e-09 2.35372e-12 0
-7.1387e-09 1.71912e-12 0
-7.13855e-09 1.2533e-12 0
-7.13844e-09 9.1222e-13 0
-7.13835e-09 6.62993e-13 0
-7.13829e-09 4.81203e-13 0
-7.13825e-09 3.48795e-13 0
-7.13822e-09 2.5247e-13 0
-7.1382e-09 1.82452e-13 0
-7.13818e-09 1.31574e-13 0
-7.13817e-09 9.45847e-14 0
-7.13816e-09 6.76255e-14 0
-7.13815e-09 4.78417e-14 0
-7.13815e-09 3.30728e-14 0
-7.13814e-09 2.16255e-14 0
-7.13814e-09 1.21901e-14 0
-7.13814e-09 3.86544e-15 0
-7.13814e-09 -3.76527e-15 0
0.0109034 2.98444e-09 0
0 -7.46799e-09 0
9.26229e-14 -2.34872e-09 0
-9.54087e-09 -4.08327e-09 0
-1.48654e-08 -2.55378e-09 0
-1.28475e-08 -1.36037e-09 0
-9.46626e-09 -1.7032e-09 0
-8.07176e-09 -4.4743e-09 0
-5.4527e-09 -3.31224e-09 0
-4.49802e-13 3.29165e-13 0
3.39187e-13 2.70564e-13 0
4.12187e-14 6.88734e-09 0
-7.64038e-09 1.18157e-08 0
-1.3326e-08 5.20191e-09 0
-1.2411e-08 -4.30212e-10 0
-9.8671e-09 -1.11757e-09 0
-8.40373e-09 -5.87751e-10 0
-7.81067e-09 -2.36541e-10 0
-7.59551e-09 -7.47264e-11 0
-7.51704e-09 -2.29317e-12 0
-7.48501e-09 2.79639e-11 0
-7.46866e-09 3.73466e-11 0
-7.45804e-09 3.68277e-11 0
-7.45007e-09 3.22298e-11 0
-7.44379e-09 2.64953e-11 0
-7.43881e-09 2.09816e-11 0
-7.43491e-09 1.62184e-11 0
-7.43189e-09 1.23318e-11 0
-7.42958e-09 9.26765e-12 0
-7.42784e-09 6.90565e-12 0
-7.42653e-09 5.11275e-12 0
-7.42555e-09 3.76674e-12 0
-7.42482e-09 2.76437e-12 0
-7.42428e-09 2.02247e-12 0
-7.42389e-09 1.47593e-12 0
-7.42359e-09 1.0748e-12 0
-7.42338e-09 7.8126e-13 0
-7.42322e-09 5.66974e-13 0
-7.42311e-09 4.10855e-13 0
-7.42302e-09 2.973e-13 0
-7.42296e-09 2.14812e-13 0
-7.42292e-09 1.54946e-13 0
-7.42288e-09 1.11512e-13 0
-7.42286e-09 7.99703e-14 0
-7.42284e-09 5.69838e-14 0
-7.42283e-09 4.0071e-14 0
-7.42282e-09 2.73164e-14 0
-7.42282e-09 1.70994e-14 0
-7.42281e-09 7.89056e-15 0
-7.42281e-09 -1.68997e-15 0
-7.42281e-09 -1.1919e-14 0
0.0108763 5.73496e-09 0
0 -7.02096e-09 0
6.24587e-14 -2.64407e-09 0
-9.56084e-09 -4.33545e-09 0
-1.41878e-08 -2.26459e-09 0
-1.30798e-08 -8.94299e-10 0
-1.07356e-08 -1.02082e-09 0
-8.82938e-09 -2.39303e-09 0
-9.97887e-09 -6.32574e-09 0
-8.56648e-09 -4.63245e-09 0
-1.10666e-08 -4.57311e-18 0
-1.08932e-08 7.19434e-09 0
-7.05538e-09 1.34019e-08 0
-6.88325e-09 6.44617e-09 0
-8.51406e-09 -1.06501e-09 0
-8.93953e-09 -2.04557e-09 0
-8.96168e-09 -1.0121e-09 0
-9.00088e-09 -3.41911e-10 0
-9.05165e-09 -7.44911e-11 0
-9.08573e-09 1.52033e-11 0
-9.10059e-09 3.93584e-11 0
-9.10271e-09 4.08793e-11 0
-9.09835e-09 3.54027e-11 0
-9.09156e-09 2.85353e-11 0
-9.0845e-09 2.21866e-11 0
-9.07814e-09 1.68939e-11 0
-9.07282e-09 1.26926e-11 0
-9.06856e-09 9.44845e-12 0
-9.06523e-09 6.98643e-12 0
-9.06268e-09 5.13986e-12 0
-9.06076e-09 3.7665e-12 0
-9.05932e-09 2.75144e-12 0
-9.05824e-09 2.00476e-12 0
-9.05745e-09 1.45756e-12 0
-9.05686e-09 1.05776e-12 0
-9.05643e-09 7.6637e-13 0
-9.05612e-09 5.54435e-13 0
-9.05589e-09 4.00561e-13 0
-9.05572e-09 2.89012e-13 0
-9.0556e-09 2.08252e-13 0
-9.05551e-09 1.49843e-13 0
-9.05544e-09 1.07631e-13 0
-9.05539e-09 7.71242e-14 0
-9.05536e-09 5.50444e-14 0
-9.05533e-09 3.89848e-14 0
-9.05532e-09 2.71496e-14 0
-9.05531e-09 1.8137e-14 0
-9.0553e-09 1.06555e-14 0
-9.05529e-09 3.0245e-15 0
-9.05529e-09 -7.51022e-15 0
-9.05529e-09 -2.27982e-14 0
0.0106038 8.14798e-09 0
0 -7.84506e-09 0
3.47904e-14 -1.83244e-09 0
-9.76093e-09 -2.95032e-09 0
-1.41332e-08 -1.5452e-09 0
-1.43249e-08 -7.77609e-10 0
-1.36772e-08 -1.07716e-09 0
-1.24867e-08 -1.74035e-09 0
-1.15956e-08 -1.40155e-09 0
-1.44564e-08 2.43853e-09 0
-1.50102e-08 3.28315e-09 0
-1.54835e-08 -2.16159e-09 0
-1.1735e-08 -4.28179e-09 0
-1.06129e-08 -1.42556e-09 0
-1.23099e-08 1.11477e-09 0
-1.30456e-08 1.58277e-09 0
-1.30077e-08 1.11012e-09 0
-1.28623e-08 6.08888e-10 0
-1.27634e-08 3.07626e-10 0
-1.27044e-08 1.56901e-10 0
-1.26666e-08 8.49126e-11 0
-1.26397e-08 4.95517e-11 0
-1.26196e-08 3.09435e-11 0
-1.26041e-08 2.03198e-11 0
-1.25922e-08 1.37966e-11 0
-1.25832e-08 9.56649e-12 0
-1.25764e-08 6.71995e-12 0
-1.25713e-08 4.75835e-12 0
-1.25675e-08 3.38604e-12 0
-1.25647e-08 2.41678e-12 0
-1.25626e-08 1.72801e-12 0
-1.25611e-08 1.23666e-12 0
-1.256e-08 8.85298e-13 0
-1.25592e-08 6.337e-13 0
-1.25586e-08 4.53413e-13 0
-1.25582e-08 3.24204e-13 0
-1.25579e-08 2.31617e-13 0
-1.25576e-08 1.65303e-13 0
-1.25575e-08 1.17836e-13 0
-1.25574e-08 8.38832e-14 0
-1.25573e-08 5.96146e-14 0
-1.25572e-08 4.22761e-14 0
-1.25572e-08 2.98847e-14 0
-1.25571e-08 2.10074e-14 0
-1.25571e-08 1.45975e-14 0
-1.25571e-08 9.86652e-15 0
-1.25571e-08 6.17577e-15 0
-1.25571e-08 2.86583e-15 0
-1.25571e-08 -1.34154e-15 0
-1.25571e-08 -1.07286e-14 0
-1.25571e-08 -3.21381e-14 0
0.0086561 7.69447e-09 0
0 0 0
1.33151e-14 0 0
-4.87833e-09 0 0
-7.10277e-09 0 0
-7.66048e-09 0 0
-7.76717e-09 0 0
-7.75673e-09 0 0
-7.06944e-09 0 0
-5.88997e-09 0 0
-3.94357e-09 0 0
-4.59028e-09 0 0
-7.48496e-09 0 0
-9.54466e-09 0 0
-9.713e-09 0 0
-8.96253e-09 0 0
-8.23998e-09 0 0
-7.80522e-09 0 0
-7.58465e-09 0 0
-7.47733e-09 0 0
-7.42335e-09 0 0
-7.3941e-09 0 0
-7.37683e-09 0 0
-7.36587e-09 0 0
-7.35854e-09 0 0
-7.35349e-09 0 0
-7.34994e-09 0 0
-7.34742e-09 0 0
-7.34562e-09 0 0
-7.34433e-09 0 0
-7.3434e-09 0 0
-7.34274e-09 0 0
-7.34226e-09 0 0
-7.34192e-09 0 0
-7.34167e-09 0 0
-7.34149e-09 0 0
-7.34137e-09 0 0
-7.34128e-09 0 0
-7.34121e-09 0 0
-7.34117e-09 0 0
-7.34114e-09 0 0
-7.34111e-09 0 0
-7.3411e-09 0 0
-7.34108e-09 0 0
-7.34108e-09 0 0
-7.34107e-09 0 0
-7.34107e-09 0 0
-7.34106e-09 0 0
-7.34106e-09 0 0
-7.34107e-09 0 0
-7.34108e-09 0 0
0.00347785 0 0
0 0 7.54893e-09
3.01846e-14 0 2.38784e-09
-1.33963e-08 0 2.92044e-09
-1.91495e-08 0 -1.72824e-09
-1.68223e-08 0 -6.72365e-09
-6.55157e-10 0 -5.82094e-09
1.32372e-09 0 -1.31031e-09
-1.20308e-09 0 6.02467e-10
-4.34431e-09 0 8.22683e-10
-6.62046e-09 0 2.01684e-10
-7.89284e-09 0 -2.42216e-10
-8.84597e-09 0 -3.20353e-10
-9.69154e-09 0 -2.26423e-10
-1.04e-08 0 -1.16202e-10
-1.09735e-08 0 -4.25232e-11
-1.14276e-08 0 -5.82958e-12
-1.17733e-08 0 7.46252e-12
-1.2026e-08 0 9.53215e-12
-1.22045e-08 0 7.6072e-12
-1.23275e-08 0 5.01213e-12
-1.24109e-08 0 2.90676e-12
-1.2467e-08 0 1.49422e-12
-1.25046e-08 0 6.50495e-13
-1.25298e-08 0 1.92977e-13
-1.25468e-08 0 -2.94689e-14
-1.25583e-08 0 -1.20275e-13
-1.25662e-08 0 -1.43191e-13
-1.25716e-08 0 -1.3467e-13
-1.25754e-08 0 -1.14203e-13
-1.2578e-08 0 -9.14385e-14
-1.25799e-08 0 -7.06368e-14
-1.25812e-08 0 -5.32804e-14
-1.25821e-08 0 -3.95268e-14
-1.25828e-08 0 -2.89759e-14
-1.25833e-08 0 -2.10559e-14
-1.25836e-08 0 -1.52003e-14
-1.25839e-08 0 -1.09176e-14
-1.25841e-08 0 -7.81029e-15
-1.25842e-08 0 -5.56804e-15
-1.25843e-08 0 -3.95503e-15
-1.25844e-08 0 -2.79635e-15
-1.25844e-08 0 -1.96045e-15
-1.25845e-08 0 -1.34851e-15
-1.25845e-08 0 -8.86089e-16
-1.25845e-08 0 -5.20339e-16
-1.25845e-08 0 -2.48973e-16
-1.25845e-08 0 -1.23315e-16
-1.25845e-08 0 2.80938e-16
-1.25845e-08 0 5.06345e-15
-1.25846e-08 0 2.47761e-14
0.00865422 0 -6.72818e-09
0.0036 5.82185e-09 4.55214e-09
0.00359999 -0.00269221 -0.00106585
0.00951376 -0.00675221 -0.0026593
0.0189534 -0.00909221 -0.0033437
0.0304737 -0.011224 -0.00331953
0.0464599 -0.0068904 -0.00183263
0.0478622 3.75716e-05 -0.000131519
0.0471644 0.00291282 0.000358211
0.0417934 0.00445994 0.000227959
0.0363785 0.00424944 -0.0001174
0.0317057 0.00348198 -0.00024098
0.0280901 0.00258403 -0.000205903
0.0255876 0.00177271 -0.000130842
0.0239827 0.00115015 -6.96567e-05
0.0229967 0.000719016 -3.24676e-05
0.0224087 0.000436669 -1.34743e-05
0.0220675 0.000258372 -4.95707e-06
0.0218749 0.000149143 -1.56408e-06
0.0217693 8.40162e-05 -3.89686e-07
0.0217132 4.61351e-05 -6.7933e-08
0.0216848 2.46123e-05 -2.53546e-08
0.0216712 1.26683e-05 -4.84294e-08
0.0216654 6.20665e-06 -7.07294e-08
0.0216634 2.81461e-06 -7.90618e-08
0.0216632 1.10231e-06 -7.60234e-08
0.0216638 2.85742e-07 -6.67938e-08
0.0216646 -6.82192e-08 -5.53919e-08
0.0216653 -1.93475e-07 -4.41924e-08
0.0216659 -2.13001e-07 -3.43255e-08
0.0216664 -1.89248e-07 -2.61613e-08
0.0216668 -1.52388e-07 -1.96694e-08
0.0216671 -1.15864e-07 -1.46432e-08
0.0216673 -8.4773e-08 -1.0823e-08
0.0216675 -6.02846e-08 -7.95706e-09
0.0216676 -4.18963e-08 -5.82724e-09
0.0216677 -2.8537e-08 -4.25527e-09
0.0216677 -1.90709e-08 -3.10091e-09
0.0216678 -1.25001e-08 -2.25657e-09
0.0216678 -8.02242e-09 -1.64113e-09
0.0216678 -5.02588e-09 -1.19439e-09
0.0216678 -3.05993e-09 -8.72424e-10
0.0216678 -1.80143e-09 -6.44092e-10
0.0216678 -1.02406e-09 -4.8852e-10
0.0216678 -5.73992e-10 -3.93527e-10
0.0216678 -3.54573e-10 -3.55348e-10
0.0216678 -3.21491e-10 -3.7492e-10
0.0216678 -4.54559e-10 -3.99102e-10
0.0216678 -8.3215e-10 -3.15059e-10
0.0216678 -3.44247e-09 -1.73552e-09
0.0216679 -1.38623e-08 -1.01534e-08
0.0216679 -2.19442e-08 -1.7067e-08
0.01 6.17874e-09 -5.22664e-09
0.01 -0.00500244 -0.00185603
0.0157438 -0.0132133 -0.00429121
0.0249008 -0.0185503 -0.00475522
0.0362742 -0.0252398 -0.00371742
0.0546756 -0.0159702 -0.000915537
0.0539542 -0.000278352 0.00112315
0.0545811 0.00618265 0.0012698
0.0480307 0.0108643 0.00076579
0.041333 0.0102204 -3.4792e-05
0.0360806 0.00842402 -0.000368427
0.0322188 0.00621906 -0.000331161
0.0297586 0.00416895 -0.000209462
0.0283285 0.00262324 -0.00010991
0.0275256 0.00158892 -4.97132e-05
0.0270871 0.000935222 -1.93851e-05
0.0268556 0.000535953 -6.07396e-06
0.0267386 0.000298877 -9.9084e-07
0.026683 0.000161753 5.74456e-07
0.0266591 8.44487e-05 8.20783e-07
0.0266508 4.20138e-05 6.67654e-07
0.0266497 1.94104e-05 4.54194e-07
0.0266516 7.81555e-06 2.81425e-07
0.0266544 2.17473e-06 1.63886e-07
0.0266571 -3.42823e-07 9.07862e-08
0.0266595 -1.28654e-06 4.78875e-08
0.0266614 -1.48301e-06 2.38121e-08
0.0266629 -1.35938e-06 1.08414e-08
0.026664 -1.12693e-06 4.15998e-09
0.0266648 -8.83286e-07 9.16973e-10
0.0266654 -6.68207e-07 -5.12849e-10
0.0266658 -4.93387e-07 -1.02727e-09
0.0266661 -3.57962e-07 -1.10749e-09
0.0266663 -2.56273e-07 -1.00288e-09
0.0266665 -1.81551e-07 -8.37072e-10
0.0266666 -1.2751e-07 -6.67391e-10
0.0266667 -8.88996e-08 -5.17334e-10
0.0266667 -6.15819e-08 -3.93976e-10
0.0266668 -4.24127e-08 -2.97071e-10
0.0266668 -2.90611e-08 -2.23721e-10
0.0266668 -1.98302e-08 -1.70747e-10
0.0266668 -1.3503e-08 -1.35951e-10
0.0266668 -9.22124e-09 -1.18832e-10
0.0266668 -6.39479e-09 -1.20741e-10
0.0266668 -4.64419e-09 -1.43928e-10
0.0266668 -3.81197e-09 -1.89324e-10
0.0266669 -4.2047e-09 -2.19667e-10
0.0266669 -6.81768e-09 -1.45432e-10
0.0266669 -1.19817e-08 -1.99544e-09
0.0266669 -1.92447e-08 -1.23012e-08
0.0266669 -2.33738e-08 -2.06807e-08
0.0148 -1.28543e-08 -6.22647e-09
0.0148 -0.00660119 -0.00247203
0.0191498 -0.0173783 -0.00580774
0.0249203 -0.0250088 -0.00619606
0.0284903 -0.0372495 -0.00416954
0.0274195 -0.023018 -0.000733735
0.0261396 -1.58412e-07 0.00109198
0.0267766 0.00864188 0.00116019
0.0320117 0.0176596 0.000938711
0.0312124 0.0163329 0.000284009
0.0292989 0.0127779 -0.000126651
0.0279249 0.00904726 -0.000216025
0.0272416 0.00575008 -0.000160314
0.0270298 0.00342894 -8.64198e-05
0.0270145 0.0019813 -3.46035e-05
0.0270699 0.00111482 -8.41744e-06
0.0271409 0.000609408 1.69733e-06
0.027205 0.000322183 4.20544e-06
0.0272554 0.000163322 3.86825e-06
0.0272921 7.79796e-05 2.82276e-06
0.0273178 3.36626e-05 1.84668e-06
0.0273354 1.1652e-05 1.13251e-06
0.0273472 1.43148e-06 6.64932e-07
0.0273552 -2.76989e-06 3.77862e-07
0.0273605 -4.04307e-06 2.08928e-07
0.0273641 -3.9981e-06 1.12542e-07
0.0273665 -3.44361e-06 5.89076e-08
0.0273681 -2.7645e-06 2.9735e-08
0.0273692 -2.12787e-06 1.42378e-08
0.02737 -1.59326e-06 6.23265e-09
0.0273705 -1.17021e-06 2.25081e-09
0.0273709 -8.47463e-07 3.81606e-10
0.0273711 -6.07201e-07 -4.09299e-10
0.0273713 -4.31412e-07 -6.71595e-10
0.0273714 -3.04427e-07 -6.9103e-10
0.0273715 -2.13592e-07 -6.11824e-10
0.0273716 -1.49119e-07 -5.03671e-10
0.0273716 -1.03651e-07 -3.97927e-10
0.0273716 -7.17657e-08 -3.06899e-10
0.0273716 -4.95221e-08 -2.34003e-10
0.0273717 -3.40905e-08 -1.79047e-10
0.0273717 -2.34604e-08 -1.40973e-10
0.0273717 -1.62235e-08 -1.19255e-10
0.0273717 -1.1424e-08 -1.14997e-10
0.0273717 -8.47591e-09 -1.33932e-10
0.0273717 -7.0976e-09 -1.89925e-10
0.0273717 -7.09602e-09 -2.73184e-10
0.0273717 -8.24406e-09 -3.4399e-10
0.0273717 -1.06647e-08 -2.385e-09
0.0273717 -1.4344e-08 -1.23859e-08
0.0273717 -1.64369e-08 -2.03729e-08
0.018 -3.03935e-08 -1.26305e-08
0.018 -0.00680959 -0.00322809
0.0195546 -0.0170534 -0.00764583
0.0199632 -0.0207064 -0.00750168
0.0162454 -0.0219859 -0.00493605
-1.13435e-08 -0.0115234 -0.00185212
1.70125e-06 6.48265e-07 5.4994e-09
-7.11432e-07 7.60201e-07 0.000195302
0.00857584 0.00623257 0.00039183
0.0175438 0.0129274 0.000314907
0.0204006 0.0117983 0.000112226
0.0218364 0.00837084 -6.54051e-05
0.0234187 0.0051312 -0.000103075
0.0247737 0.0028871 -6.07805e-05
0.0257464 0.0015643 -1.81368e-05
0.0263939 0.000813137 3.3125e-06
0.0268067 0.000400619 9.58218e-06
0.0270621 0.000183012 9.08371e-06
0.0272167 7.32712e-05 6.67694e-06
0.027309 2.09434e-05 4.34858e-06
0.0273635 -1.96824e-06 2.63589e-06
0.0273956 -1.04425e-05 1.52188e-06
0.0274144 -1.22395e-05 8.46583e-07
0.0274255 -1.12462e-05 4.55726e-07
0.027432 -9.32698e-06 2.37078e-07
0.0274359 -7.318e-06 1.18214e-07
0.0274382 -5.5496e-06 5.53823e-08
0.0274396 -4.11456e-06 2.32261e-08
0.0274405 -3.00272e-06 7.47265e-09
0.027441 -2.16613e-06 2.68146e-10
0.0274414 -1.549e-06 -2.62232e-09
0.0274416 -1.10011e-06 -3.43517e-09
0.0274417 -7.76975e-07 -3.32247e-09
0.0274418 -5.46206e-07 -2.85811e-09
0.0274419 -3.82434e-07 -2.31364e-09
0.0274419 -2.66804e-07 -1.8065e-09
0.0274419 -1.85521e-07 -1.37838e-09
0.027442 -1.28603e-07 -1.03583e-09
0.027442 -8.88914e-08 -7.70844e-10
0.027442 -6.1288e-08 -5.70941e-10
0.027442 -4.21832e-08 -4.23901e-10
0.027442 -2.90392e-08 -3.20033e-10
0.027442 -2.00868e-08 -2.53567e-10
0.027442 -1.4106e-08 -2.24426e-10
0.027442 -1.02494e-08 -2.42964e-10
0.027442 -7.90923e-09 -3.34678e-10
0.027442 -6.66456e-09 -4.79882e-10
0.027442 -6.22633e-09 -5.76727e-10
0.027442 -6.56663e-09 -2.56573e-09
0.027442 -7.5796e-09 -1.22218e-08
0.027442 -8.20345e-09 -1.99089e-08
0.0196 -3.56566e-08 -2.92948e-08
0.0196 -0.00492441 -0.00383721
0.0191043 -0.0110723 -0.00873364
0.0171102 -0.0124547 -0.00794322
0.012917 -0.0103521 -0.0049902
0.00320715 -0.00404533 -0.00238853
1.31054e-06 -1.21408e-06 -0.000445086
5.02645e-07 -5.02645e-07 -9.01214e-10
-6.86782e-07 7.36082e-07 3.64357e-05
0.00622124 0.00443765 9.34333e-05
0.0129041 0.00847562 7.29012e-05
0.0160793 0.00606662 -5.47546e-05
0.0198233 0.00285889 -0.000133287
0.0228218 0.00112952 -8.98507e-05
0.0247746 0.000371514 -3.14337e-05
0.0259398 5.52203e-05 6.03404e-08
0.0266088 -6.15511e-05 9.67019e-06
0.0269854 -9.09397e-05 9.56683e-06
0.0271948 -8.59691e-05 6.86859e-06
0.0273102 -7.03942e-05 4.29342e-06
0.0273733 -5.38921e-05 2.47845e-06
0.0274077 -3.97895e-05 1.35378e-06
0.0274263 -2.87685e-05 7.05448e-07
0.0274362 -2.05399e-05 3.49392e-07
0.0274416 -1.45512e-05 1.61357e-07
0.0274444 -1.02576e-05 6.58717e-08
0.0274458 -7.20701e-06 1.9707e-08
0.0274465 -5.05186e-06 -9.80298e-10
0.0274469 -3.53482e-06 -8.97545e-09
0.0274471 -2.46957e-06 -1.09629e-08
0.0274471 -1.72291e-06 -1.03419e-08
0.0274471 -1.20031e-06 -8.77941e-09
0.0274471 -8.35002e-07 -7.04818e-09
0.0274471 -5.79967e-07 -5.47203e-09
0.0274471 -4.02146e-07 -4.15773e-09
0.0274471 -2.78334e-07 -3.1136e-09
0.0274471 -1.92259e-07 -2.30848e-09
0.0274471 -1.32521e-07 -1.69991e-09
0.0274471 -9.11455e-08 -1.24654e-09
0.0274471 -6.25564e-08 -9.13154e-10
0.0274471 -4.28634e-08 -6.72097e-10
0.0274471 -2.93547e-08 -5.03545e-10
0.0274471 -2.01407e-08 -3.957e-10
0.0274471 -1.38996e-08 -3.45358e-10
0.0274471 -9.69833e-09 -3.58788e-10
0.0274471 -6.85751e-09 -4.51445e-10
0.0274471 -4.8504e-09 -5.94719e-10
0.0274471 -3.24668e-09 -6.76509e-10
0.0274471 -1.82858e-09 -2.62586e-09
0.0274471 -5.24828e-10 -1.21456e-08
0.0274471 1.10583e-10 -1.9723e-08
0.0196 -1.94646e-08 -4.3322e-08
0.0196 -0.00260352 -0.00403412
0.0192603 -0.00531477 -0.00872167
0.0185906 -0.00470819 -0.00769695
0.0157855 -0.00130766 -0.00466645
0.0118679 0.00445029 -0.00252285
0.00719502 0.00376104 -0.00107961
1.3127e-06 -1.11545e-06 -0.000213852
4.28669e-07 -4.28669e-07 -1.82235e-09
-6.57757e-07 7.15807e-07 9.65978e-06
0.00443469 0.00192779 0.000189334
0.0100507 0.00148234 0.000122211
0.01691 -0.00155271 -0.000185996
0.0219241 -0.00202328 -0.000205334
0.0246964 -0.00153657 -0.000103624
0.0260816 -0.00101783 -3.1755e-05
0.0267671 -0.000646969 -3.66532e-06
0.0271094 -0.000405816 3.27523e-06
0.0272809 -0.000253796 3.46827e-06
0.0273665 -0.000159128 2.31746e-06
0.0274087 -0.000100393 1.3063e-06
0.0274291 -6.38835e-05 6.59991e-07
0.0274385 -4.10564e-05 2.98294e-07
0.0274425 -2.66607e-05 1.12434e-07
0.0274439 -1.74886e-05 2.42587e-08
0.0274442 -1.15801e-05 -1.32268e-08
0.0274441 -7.73198e-06 -2.59432e-08
0.0274437 -5.19952e-06 -2.7417e-08
0.0274433 -3.51712e-06 -2.4385e-08
0.027443 -2.3902e-06 -2.00304e-08
0.0274428 -1.63009e-06 -1.57436e-08
0.0274426 -1.11449e-06 -1.20453e-08
0.0274424 -7.6319e-07 -9.05637e-09
0.0274423 -5.23035e-07 -6.72961e-09
0.0274422 -3.58479e-07 -4.96026e-09
0.0274422 -2.45562e-07 -3.63542e-09
0.0274421 -1.68029e-07 -2.65394e-09
0.0274421 -1.14796e-07 -1.93255e-09
0.0274421 -7.82732e-08 -1.4059e-09
0.027442 -5.32505e-08 -1.02447e-09
0.027442 -3.61412e-08 -7.5208e-10
0.027442 -2.44702e-08 -5.63745e-10
0.027442 -1.65228e-08 -4.44198e-10
0.027442 -1.10999e-08 -3.87256e-10
0.027442 -7.3434e-09 -3.97267e-10
0.027442 -4.60657e-09 -4.89366e-10
0.027442 -2.33845e-09 -6.3289e-10
0.027442 1.91421e-11 -7.02771e-10
0.027442 2.95849e-09 -2.62478e-09
0.027442 6.51652e-09 -1.21571e-08
0.027442 8.40946e-09 -1.97628e-08
0.018 -1.19278e-08 -4.40034e-08
0.018 -0.000734836 -0.00392555
0.0188753 -0.000927196 -0.00821383
0.0200917 0.000406698 -0.00697243
0.0200721 0.00277479 -0.00414473
0.0198804 0.00794934 -0.00226231
0.020178 0.0132223 -0.00115594
0.0124904 0.00744868 -0.000529583
1.3443e-06 -8.86603e-07 -0.000175341
-5.3799e-07 -9.95683e-07 9.2717e-09
1.2392e-07 -0.00162844 0.000665851
0.00990833 -0.00642506 0.000744551
0.0184714 -0.00892768 -7.16977e-05
0.0236748 -0.00657166 -0.000267955
0.0260326 -0.00374067 -0.000169066
0.0269341 -0.00199883 -6.91632e-05
0.0272583 -0.00108533 -2.29309e-05
0.0273696 -0.000604886 -6.69554e-06
0.0274027 -0.000343995 -1.74307e-06
0.0274077 -0.000198907 -4.02348e-07
0.0274034 -0.000116844 -1.00927e-07
0.027397 -6.97376e-05 -5.80822e-08
0.0273909 -4.22957e-05 -6.05586e-08
0.0273859 -2.60627e-05 -6.10869e-08
0.0273821 -1.63076e-05 -5.50644e-08
0.0273792 -1.03511e-05 -4.57654e-08
0.027377 -6.65657e-06 -3.61021e-08
0.0273755 -4.3302e-06 -2.75527e-08
0.0273744 -2.84469e-06 -2.05924e-08
0.0273736 -1.88402e-06 -1.51884e-08
0.027373 -1.25585e-06 -1.111e-08
0.0273726 -8.4123e-07 -8.08509e-09
0.0273724 -5.65439e-07 -5.86527e-09
0.0273722 -3.80876e-07 -4.24694e-09
0.027372 -2.56799e-07 -3.07188e-09
0.0273719 -1.73121e-07 -2.22083e-09
0.0273719 -1.16579e-07 -1.60553e-09
0.0273718 -7.83443e-08 -1.16149e-09
0.0273718 -5.24955e-08 -8.42045e-10
0.0273717 -3.50404e-08 -6.13927e-10
0.0273717 -2.32731e-08 -4.54091e-10
0.0273717 -1.535e-08 -3.4766e-10
0.0273717 -1.00043e-08 -2.86862e-10
0.0273717 -6.35024e-09 -2.70888e-10
0.0273717 -3.74387e-09 -3.07838e-10
0.0273717 -1.67638e-09 -4.1677e-10
0.0273717 3.36994e-10 -5.71802e-10
0.0273717 2.95192e-09 -6.37878e-10
0.0273717 7.14587e-09 -2.52968e-09
0.0273717 1.3187e-08 -1.22221e-08
0.0273717 1.65929e-08 -2.00093e-08
0.0148 -8.75633e-09 -3.89229e-08
0.0148 0.000260002 -0.0036632
0.0173395 0.00119158 -0.00733012
0.0205864 0.00256936 -0.00587166
0.0230334 0.00458585 -0.00343066
0.0249003 0.00747002 -0.00204171
0.0279641 0.0126843 -0.0012692
0.0311587 0.020759 -0.000687344
0.0255127 0.0125967 -4.92252e-05
0.027011 1.51079e-14 0.000624431
0.0319043 -0.00819207 0.00159037
0.03525 -0.0172061 0.00157962
0.0332186 -0.0152596 0.000342399
0.0304536 -0.00946962 -0.000248576
0.0287175 -0.00472208 -0.000251827
0.0277998 -0.00221025 -0.000126558
0.0273148 -0.00106995 -5.00303e-05
0.0270483 -0.000546033 -1.79332e-05
0.0268967 -0.000290599 -6.12054e-06
0.0268081 -0.000159442 -2.00061e-06
0.0267552 -8.95639e-05 -6.05353e-07
0.026723 -5.13202e-05 -1.46353e-07
0.0267031 -2.99377e-05 -3.34557e-09
0.0266905 -1.7759e-05 3.49658e-08
0.0266825 -1.07025e-05 3.97947e-08
0.0266773 -6.54617e-06 3.49059e-08
0.0266739 -4.05879e-06 2.80811e-08
0.0266716 -2.54726e-06 2.17312e-08
0.0266701 -1.6154e-06 1.64697e-08
0.0266691 -1.03325e-06 1.23217e-08
0.0266684 -6.65273e-07 9.13701e-09
0.0266679 -4.30313e-07 6.73137e-09
0.0266676 -2.79045e-07 4.93441e-09
0.0266674 -1.81041e-07 3.60305e-09
0.0266672 -1.17266e-07 2.62271e-09
0.0266671 -7.56617e-08 1.90424e-09
0.026667 -4.8507e-08 1.37948e-09
0.026667 -3.08083e-08 9.96968e-10
0.0266669 -1.93114e-08 7.18099e-10
0.0266669 -1.18818e-08 5.13836e-10
0.0266669 -7.11055e-09 3.61985e-10
0.0266669 -4.06064e-09 2.44806e-10
0.0266669 -2.09954e-09 1.46847e-10
0.0266669 -7.85507e-10 5.27585e-11
0.0266669 2.15586e-10 -5.59962e-11
0.0266669 1.19864e-09 -2.04782e-10
0.0266669 2.49605e-09 -3.78327e-10
0.0266669 4.73296e-09 -4.56169e-10
0.0266669 9.55947e-09 -2.2858e-09
0.0266669 1.81786e-08 -1.20966e-08
0.0266669 2.34341e-08 -2.00702e-08
0.01 -1.53686e-08 -3.65726e-08
0.01 0.000253435 -0.00309292
0.0133752 0.00103534 -0.00575062
0.017497 0.00192522 -0.00416305
0.0212343 0.00318329 -0.00234211
0.0253913 0.00572717 -0.00154721
0.0306702 0.00840936 -0.00143121
0.0393022 0.0104995 -0.00107002
0.0520297 0.00416902 -1.45972e-05
0.0518593 -0.00668573 0.0009263