# vtk DataFile Version 2.0
Tobias Weinzierl: CPU, Manycore and Cluster Computing
ASCII

DATASET STRUCTURED_POINTS
DIMENSIONS  51 11 6

ORIGIN 0 0 0 

SPACING 0.1 0.1 0.1 

POINT_DATA 3366

VECTORS velocity float
0 0 0
3.5519e-15 0 0
-1.95318e-09 0 0
-4.39333e-09 0 0
-5.32106e-09 0 0
-1.60563e-09 0 0
-1.89434e-10 0 0
1.06589e-10 0 0
-4.73648e-10 0 0
-1.63109e-09 0 0
-2.55638e-09 0 0
-2.94601e-09 0 0
-2.96334e-09 0 0
-2.85255e-09 0 0
-2.756e-09 0 0
-2.71546e-09 0 0
-2.71898e-09 0 0
-2.74301e-09 0 0
-2.77079e-09 0 0
-2.79439e-09 0 0
-2.81164e-09 0 0
-2.82306e-09 0 0
-2.83002e-09 0 0
-2.83394e-09 0 0
-2.83593e-09 0 0
-2.83678e-09 0 0
-2.837e-09 0 0
-2.8369e-09 0 0
-2.83668e-09 0 0
-2.83641e-09 0 0
-2.83616e-09 0 0
-2.83594e-09 0 0
-2.83576e-09 0 0
-2.83562e-09 0 0
-2.83551e-09 0 0
-2.83542e-09 0 0
-2.83535e-09 0 0
-2.83531e-09 0 0
-2.83527e-09 0 0
-2.83524e-09 0 0
-2.83522e-09 0 0
-2.83521e-09 0 0
-2.8352e-09 0 0
-2.83519e-09 0 0
-2.83518e-09 0 0
-2.83518e-09 0 0
-2.83518e-09 0 0
-2.83517e-09 0 0
-2.83517e-09 0 0
-2.83517e-09 0 0
0.00262879 0 0
0 7.12522e-09 0
2.07993e-14 9.25046e-10 0
-3.54603e-09 1.81241e-09 0
-8.3739e-09 1.5902e-09 0
-9.50625e-09 1.0573e-09 0
-3.38519e-09 1.27114e-09 0
-1.37862e-09 1.9335e-09 0
-7.80778e-10 1.81438e-09 0
-8.9256e-10 1.65878e-09 0
-2.34603e-09 1.55202e-09 0
-3.86832e-09 1.06934e-09 0
-4.6558e-09 5.03437e-10 0
-4.85412e-09 1.23139e-10 0
-4.85491e-09 -3.16079e-11 0
-4.89108e-09 -4.33229e-11 0
-5.00943e-09 -6.6755e-12 0
-5.16788e-09 2.40333e-11 0
-5.32016e-09 3.59954e-11 0
-5.44283e-09 3.45697e-11 0
-5.53136e-09 2.73235e-11 0
-5.59049e-09 1.91231e-11 0
-5.62764e-09 1.21659e-11 0
-5.64975e-09 7.04943e-12 0
-5.66217e-09 3.63142e-12 0
-5.6687e-09 1.52384e-12 0
-5.6718e-09 3.2663e-13 0
-5.67302e-09 -2.85388e-13 0
-5.67325e-09 -5.46351e-13 0
-5.67304e-09 -6.11717e-13 0
-5.67265e-09 -5.78209e-13 0
-5.67223e-09 -5.02442e-13 0
-5.67184e-09 -4.15376e-13 0
-5.67151e-09 -3.32457e-13 0
-5.67125e-09 -2.60248e-13 0
-5.67104e-09 -2.00537e-13 0
-5.67088e-09 -1.5277e-13 0
-5.67075e-09 -1.15402e-13 0
-5.67066e-09 -8.66232e-14 0
-5.67059e-09 -6.47051e-14 0
-5.67054e-09 -4.81447e-14 0
-5.6705e-09 -3.57019e-14 0
-5.67047e-09 -2.63862e-14 0
-5.67045e-09 -1.94236e-14 0
-5.67044e-09 -1.42189e-14 0
-5.67043e-09 -1.0311e-14 0
-5.67042e-09 -7.33371e-15 0
-5.67041e-09 -5.02556e-15 0
-5.67041e-09 -3.11167e-15 0
-5.67041e-09 -6.70549e-17 0
-5.67042e-09 7.87194e-15 0
0.00709286 -3.21639e-09 0
0 4.36067e-10 0
4.32857e-14 1.07115e-09 0
-2.0154e-09 1.15121e-09 0
-6.10403e-09 -9.06427e-10 0
-5.43067e-09 -1.10832e-09 0
-1.20744e-09 1.30393e-09 0
-2.05523e-09 2.87677e-09 0
-2.32707e-09 1.62057e-09 0
-1.92725e-09 1.86859e-10 0
-2.23614e-09 1.22594e-10 0
-3.16682e-09 4.17601e-10 0
-3.68812e-09 8.36124e-10 0
-3.82556e-09 1.08752e-09 0
-3.81329e-09 1.04309e-09 0
-3.86252e-09 8.49409e-10 0
-4.02041e-09 6.4178e-10 0
-4.22629e-09 4.63394e-10 0
-4.41767e-09 3.2142e-10 0
-4.56596e-09 2.14395e-10 0
-4.66856e-09 1.37618e-10 0
-4.73411e-09 8.49693e-11 0
-4.77345e-09 5.03297e-11 0
-4.79575e-09 2.84135e-11 0
-4.80765e-09 1.50752e-11 0
-4.81352e-09 7.2841e-12 0
-4.81608e-09 2.94364e-12 0
-4.81692e-09 6.69604e-13 0
-4.81692e-09 -4.15588e-13 0
-4.81657e-09 -8.47869e-13 0
-4.81612e-09 -9.42777e-13 0
-4.81569e-09 -8.7904e-13 0
-4.8153e-09 -7.53391e-13 0
-4.81499e-09 -6.15095e-13 0
-4.81475e-09 -4.86937e-13 0
-4.81455e-09 -3.77574e-13 0
-4.81441e-09 -2.88577e-13 0
-4.8143e-09 -2.18295e-13 0
-4.81422e-09 -1.63895e-13 0
-4.81416e-09 -1.22364e-13 0
-4.81411e-09 -9.09581e-14 0
-4.81408e-09 -6.73626e-14 0
-4.81406e-09 -4.97032e-14 0
-4.81404e-09 -3.65028e-14 0
-4.81403e-09 -2.66111e-14 0
-4.81402e-09 -1.91358e-14 0
-4.81401e-09 -1.33157e-14 0
-4.81401e-09 -8.24545e-15 0
-4.81401e-09 -2.81895e-15 0
-4.81401e-09 3.18593e-15 0
-4.81401e-09 9.40642e-15 0
0.00937803 -4.36996e-09 0
0 -9.21602e-09 0
5.1767e-14 3.01569e-10 0
-5.67511e-10 -1.0585e-09 0
-4.26145e-09 -4.39341e-09 0
-3.65673e-09 -5.10091e-09 0
5.72127e-10 -2.06759e-09 0
-8.66056e-10 -3.19045e-14 0
-1.43971e-09 -1.13502e-09 0
-3.47868e-09 -2.78003e-09 0
-3.9678e-09 -2.69913e-09 0
-4.52558e-09 -1.23686e-09 0
-4.7997e-09 4.24641e-10 0
-4.67106e-09 1.44838e-09 0
-4.24572e-09 1.58125e-09 0
-3.82875e-09 1.3097e-09 0
-3.59765e-09 9.81255e-10 0
-3.52991e-09 6.94784e-10 0
-3.54197e-09 4.68127e-10 0
-3.57451e-09 3.00854e-10 0
-3.60221e-09 1.8481e-10 0
-3.61937e-09 1.08491e-10 0
-3.62775e-09 6.05811e-11 0
-3.6306e-09 3.17722e-11 0
-3.63055e-09 1.51819e-11 0
-3.62926e-09 6.0795e-12 0
-3.62763e-09 1.38581e-12 0
-3.62609e-09 -8.16233e-13 0
-3.6248e-09 -1.67465e-12 0
-3.62377e-09 -1.85201e-12 0
-3.62299e-09 -1.71616e-12 0
-3.6224e-09 -1.46222e-12 0
-3.62197e-09 -1.18739e-12 0
-3.62166e-09 -9.35433e-13 0
-3.62143e-09 -7.22192e-13 0
-3.62126e-09 -5.49827e-13 0
-3.62114e-09 -4.14488e-13 0
-3.62105e-09 -3.10253e-13 0
-3.62099e-09 -2.31032e-13 0
-3.62094e-09 -1.71374e-13 0
-3.62091e-09 -1.2673e-13 0
-3.62088e-09 -9.34555e-14 0
-3.62086e-09 -6.87038e-14 0
-3.62085e-09 -5.02787e-14 0
-3.62084e-09 -3.64837e-14 0
-3.62084e-09 -2.59801e-14 0
-3.62083e-09 -1.77378e-14 0
-3.62083e-09 -1.11066e-14 0
-3.62083e-09 -5.65589e-15 0
-3.62082e-09 -6.80593e-16 0
-3.62082e-09 4.58074e-15 0
0.00990948 -3.28418e-09 0
0 -1.78205e-08 0
3.14592e-14 -7.44293e-10 0
-7.51371e-10 -2.61112e-09 0
-4.60008e-09 -4.11666e-09 0
-5.54005e-09 -3.3631e-09 0
-2.09777e-14 -1.1133e-09 0
-1.94704e-13 -2.1966e-13 0
1.85179e-13 -2.09376e-13 0
-1.97034e-09 -1.88919e-09 0
-4.74305e-09 -3.39772e-09 0
-5.22602e-09 -1.85527e-09 0
-5.54516e-09 2.07898e-10 0
-5.64475e-09 1.29571e-09 0
-5.22064e-09 1.33853e-09 0
-4.54791e-09 1.0418e-09 0
-3.991e-09 7.66628e-10 0
-3.65104e-09 5.42853e-10 0
-3.46941e-09 3.60589e-10 0
-3.37277e-09 2.22221e-10 0
-3.31709e-09 1.2666e-10 0
-3.28189e-09 6.61008e-11 0
-3.25834e-09 3.04972e-11 0
-3.24231e-09 1.10267e-11 0
-3.23144e-09 1.2362e-12 0
-3.22416e-09 -3.10688e-12 0
-3.21936e-09 -4.57769e-12 0
-3.21623e-09 -4.65248e-12 0
-3.2142e-09 -4.13262e-12 0
-3.21288e-09 -3.42777e-12 0
-3.21203e-09 -2.73091e-12 0
-3.21148e-09 -2.12075e-12 0
-3.21111e-09 -1.61912e-12 0
-3.21087e-09 -1.22183e-12 0
-3.21071e-09 -9.14578e-13 0
-3.2106e-09 -6.80708e-13 0
-3.21053e-09 -5.04612e-13 0
-3.21048e-09 -3.73008e-13 0
-3.21044e-09 -2.75163e-13 0
-3.21042e-09 -2.0267e-13 0
-3.2104e-09 -1.49079e-13 0
-3.21039e-09 -1.09499e-13 0
-3.21038e-09 -8.0256e-14 0
-3.21037e-09 -5.86029e-14 0
-3.21037e-09 -4.25053e-14 0
-3.21036e-09 -3.04787e-14 0
-3.21036e-09 -2.14253e-14 0
-3.21036e-09 -1.44769e-14 0
-3.21036e-09 -8.90626e-15 0
-3.21035e-09 -3.97685e-15 0
-3.21035e-09 9.45258e-16 0
0.0100025 -1.51081e-09 0
0 -1.59241e-08 0
1.48453e-14 -1.04451e-09 0
-1.17783e-09 -2.447e-09 0
-4.8751e-09 -3.3318e-09 0
-6.78964e-09 -3.63016e-09 0
-2.45923e-09 -1.70085e-09 0
-1.86949e-13 1.82636e-13 0
2.53676e-15 -2.53676e-15 0
1.69746e-13 -2.00603e-13 0
-2.29644e-09 -1.49259e-09 0
-4.17364e-09 -1.84187e-09 0
-4.73955e-09 4.66373e-10 0
-5.76873e-09 1.67015e-09 0
-6.01579e-09 1.35446e-09 0
-5.36948e-09 7.6419e-10 0
-4.54396e-09 4.11358e-10 0
-3.94857e-09 2.25373e-10 0
-3.59941e-09 1.11471e-10 0
-3.40508e-09 3.96612e-11 0
-3.29494e-09 -4.81442e-13 0
-3.23055e-09 -1.86909e-11 0
-3.19219e-09 -2.40135e-11 0
-3.16925e-09 -2.2978e-11 0
-3.15559e-09 -1.94735e-11 0
-3.14753e-09 -1.54859e-11 0
-3.14282e-09 -1.18725e-11 0
-3.1401e-09 -8.90624e-12 0
-3.13854e-09 -6.59481e-12 0
-3.13766e-09 -4.84633e-12 0
-3.13717e-09 -3.54646e-12 0
-3.1369e-09 -2.58978e-12 0
-3.13675e-09 -1.88965e-12 0
-3.13667e-09 -1.37878e-12 0
-3.13663e-09 -1.00646e-12 0
-3.13661e-09 -7.3517e-13 0
-3.1366e-09 -5.37426e-13 0
-3.13659e-09 -3.93177e-13 0
-3.13659e-09 -2.8785e-13 0
-3.13659e-09 -2.10857e-13 0
-3.13659e-09 -1.54503e-13 0
-3.13659e-09 -1.13193e-13 0
-3.13659e-09 -8.28581e-14 0
-3.13659e-09 -6.05316e-14 0
-3.13659e-09 -4.40432e-14 0
-3.13659e-09 -3.17935e-14 0
-3.13659e-09 -2.26151e-14 0
-3.13659e-09 -1.56713e-14 0
-3.13659e-09 -1.03164e-14 0
-3.13659e-09 -5.87789e-15 0
-3.13659e-09 -1.69788e-15 0
0.0100139 3.42058e-10 0
0 -1.12641e-08 0
1.57999e-14 -1.04294e-09 0
-1.20494e-09 -2.42908e-09 0
-4.78005e-09 -2.49434e-09 0
-7.10856e-09 -1.94305e-09 0
-5.46783e-09 -1.3659e-09 0
-1.64154e-09 -5.31033e-10 0
-1.85544e-13 1.79721e-13 0
-9.98011e-15 9.98011e-15 0
1.47998e-13 -1.91488e-13 0
-1.61832e-09 -2.18861e-11 0
-2.49433e-09 1.63271e-09 0
-4.89424e-09 2.99964e-09 0
-6.53477e-09 1.81579e-09 0
-6.19926e-09 4.9343e-10 0
-5.07453e-09 -7.54173e-11 0
-4.18256e-09 -2.09853e-10 0
-3.68331e-09 -2.10995e-10 0
-3.43675e-09 -1.79427e-10 0
-3.31829e-09 -1.40777e-10 0
-3.26106e-09 -1.04316e-10 0
-3.23324e-09 -7.42341e-11 0
-3.2198e-09 -5.14796e-11 0
-3.21346e-09 -3.52017e-11 0
-3.21062e-09 -2.39438e-11 0
-3.20947e-09 -1.62995e-11 0
-3.20913e-09 -1.11484e-11 0
-3.20915e-09 -7.67872e-12 0
-3.2093e-09 -5.33147e-12 0
-3.20949e-09 -3.73218e-12 0
-3.20967e-09 -2.63315e-12 0
-3.20983e-09 -1.87106e-12 0
-3.20995e-09 -1.33794e-12 0
-3.21005e-09 -9.61953e-13 0
-3.21013e-09 -6.94826e-13 0
-3.21019e-09 -5.03818e-13 0
-3.21023e-09 -3.6648e-13 0
-3.21026e-09 -2.67264e-13 0
-3.21029e-09 -1.95296e-13 0
-3.2103e-09 -1.42911e-13 0
-3.21032e-09 -1.04661e-13 0
-3.21033e-09 -7.66462e-14 0
-3.21033e-09 -5.60602e-14 0
-3.21034e-09 -4.08736e-14 0
-3.21034e-09 -2.96161e-14 0
-3.21034e-09 -2.12283e-14 0
-3.21035e-09 -1.4985e-14 0
-3.21035e-09 -1.04087e-14 0
-3.21035e-09 -7.03537e-15 0
-3.21035e-09 -4.18504e-15 0
0.0100025 2.14046e-09 0
0 -8.03531e-09 0
1.53755e-14 -1.03409e-09 0
-1.41592e-09 -2.22379e-09 0
-4.81306e-09 -1.97561e-09 0
-6.84222e-09 -1.00802e-09 0
-5.89441e-09 -4.96439e-10 0
-3.80925e-09 -1.1248e-09 0
-1.99857e-09 -8.5048e-10 0
-1.95046e-13 1.6439e-13 0
1.34636e-13 1.6743e-13 0
-1.52053e-14 4.58299e-10 0
-5.40688e-10 3.23526e-09 0
-2.34413e-09 4.88545e-09 0
-4.94452e-09 2.57072e-09 0
-5.79031e-09 1.95692e-10 0
-5.14327e-09 -6.16561e-10 0
-4.34012e-09 -6.24515e-10 0
-3.86907e-09 -4.67778e-10 0
-3.66746e-09 -3.2337e-10 0
-3.60005e-09 -2.15035e-10 0
-3.58603e-09 -1.39324e-10 0
-3.58946e-09 -8.89181e-11 0
-3.59673e-09 -5.64817e-11 0
-3.60344e-09 -3.60083e-11 0
-3.6086e-09 -2.31736e-11 0
-3.6123e-09 -1.51073e-11 0
-3.61487e-09 -9.99303e-12 0
-3.61665e-09 -6.7091e-12 0
-3.61788e-09 -4.56921e-12 0
-3.61873e-09 -3.15311e-12 0
-3.61933e-09 -2.20163e-12 0
-3.61975e-09 -1.55308e-12 0
-3.62005e-09 -1.10519e-12 0
-3.62026e-09 -7.92243e-13 0
-3.62041e-09 -5.71363e-13 0
-3.62052e-09 -4.14111e-13 0
-3.6206e-09 -3.01338e-13 0
-3.62066e-09 -2.19971e-13 0
-3.6207e-09 -1.60965e-13 0
-3.62073e-09 -1.17992e-13 0
-3.62075e-09 -8.6579e-14 0
-3.62077e-09 -6.35396e-14 0
-3.62078e-09 -4.65872e-14 0
-3.62079e-09 -3.40735e-14 0
-3.6208e-09 -2.48103e-14 0
-3.6208e-09 -1.79446e-14 0
-3.6208e-09 -1.2909e-14 0
-3.62081e-09 -9.48183e-15 0
-3.62081e-09 -7.70742e-15 0
-3.62081e-09 -7.15117e-15 0
0.00990948 3.72169e-09 0
0 -7.20936e-09 0
1.58561e-14 -8.99401e-10 0
-1.94597e-09 -1.91749e-09 0
-5.246e-09 -1.60803e-09 0
-7.01411e-09 -7.09946e-10 0
-6.36186e-09 -8.32376e-11 0
-4.6445e-09 -5.25706e-10 0
-3.82534e-09 -2.15436e-09 0
-2.21814e-09 -1.59189e-09 0
-3.41358e-09 -1.6647e-17 0
-5.72443e-09 9.59604e-10 0
-4.80958e-09 3.38518e-09 0
-1.90888e-09 4.563e-09 0
-2.47114e-09 2.79079e-09 0
-4.40006e-09 4.53793e-10 0
-5.01686e-09 -5.51474e-10 0
-4.85967e-09 -6.17387e-10 0
-4.69752e-09 -4.30785e-10 0
-4.65938e-09 -2.62852e-10 0
-4.68245e-09 -1.54945e-10 0
-4.71839e-09 -9.16819e-11 0
-4.7491e-09 -5.53151e-11 0
-4.77118e-09 -3.42235e-11 0
-4.78596e-09 -2.17228e-11 0
-4.79557e-09 -1.41159e-11 0
-4.80176e-09 -9.36372e-12 0
-4.80577e-09 -6.32283e-12 0
-4.80839e-09 -4.33534e-12 0
-4.81012e-09 -3.01198e-12 0
-4.81129e-09 -2.11633e-12 0
-4.81208e-09 -1.50136e-12 0
-4.81263e-09 -1.07374e-12 0
-4.81302e-09 -7.73121e-13 0
-4.81329e-09 -5.59776e-13 0
-4.81348e-09 -4.07151e-13 0
-4.81362e-09 -2.97227e-13 0
-4.81372e-09 -2.17614e-13 0
-4.81379e-09 -1.59686e-13 0
-4.81384e-09 -1.17376e-13 0
-4.81388e-09 -8.63727e-14 0
-4.81391e-09 -6.35918e-14 0
-4.81393e-09 -4.68121e-14 0
-4.81395e-09 -3.44253e-14 0
-4.81396e-09 -2.52662e-14 0
-4.81396e-09 -1.84961e-14 0
-4.81397e-09 -1.35182e-14 0
-4.81397e-09 -9.93406e-15 0
-4.81398e-09 -7.73429e-15 0
-4.81398e-09 -7.75784e-15 0
-4.81398e-09 -1.05723e-14 0
0.00937803 4.42866e-09 0
0 -7.6911e-09 0
1.48664e-14 -5.15541e-10 0
-2.40233e-09 -1.10443e-09 0
-5.36379e-09 -8.94298e-10 0
-6.81827e-09 -4.51128e-10 0
-6.80638e-09 -4.94446e-10 0
-5.80841e-09 -1.06341e-09 0
-5.18491e-09 -1.86406e-09 0
-5.75678e-09 -4.26612e-10 0
-5.814e-09 2.90643e-09 0
-6.50986e-09 3.39387e-09 0
-4.98151e-09 5.26601e-10 0
-2.65924e-09 -1.86418e-09 0
-3.28297e-09 -1.82301e-09 0
-5.25958e-09 -6.64425e-10 0
-6.0222e-09 1.86372e-10 0
-5.91252e-09 3.86831e-10 0
-5.71213e-09 2.76725e-10 0
-5.61739e-09 1.40869e-10 0
-5.59641e-09 5.70505e-11 0
-5.60485e-09 1.70295e-11 0
-5.62017e-09 9.88128e-13 0
-5.63418e-09 -4.17738e-12 0
-5.64493e-09 -5.03595e-12 0
-5.65262e-09 -4.44995e-12 0
-5.65798e-09 -3.53996e-12 0
-5.66168e-09 -2.69098e-12 0
-5.66423e-09 -2.00299e-12 0
-5.66601e-09 -1.47653e-12 0
-5.66725e-09 -1.08401e-12 0
-5.66813e-09 -7.94805e-13 0
-5.66875e-09 -5.82782e-13 0
-5.6692e-09 -4.276e-13 0
-5.66952e-09 -3.14014e-13 0
-5.66976e-09 -2.30809e-13 0
-5.66993e-09 -1.69789e-13 0
-5.67005e-09 -1.24986e-13 0
-5.67014e-09 -9.20519e-14 0
-5.67021e-09 -6.78171e-14 0
-5.67026e-09 -4.99653e-14 0
-5.67029e-09 -3.68031e-14 0
-5.67032e-09 -2.70895e-14 0
-5.67034e-09 -1.99155e-14 0
-5.67035e-09 -1.46163e-14 0
-5.67036e-09 -1.07132e-14 0
-5.67037e-09 -7.87423e-15 0
-5.67038e-09 -5.88332e-15 0
-5.67038e-09 -4.78287e-15 0
-5.67038e-09 -5.62411e-15 0
-5.67039e-09 -1.00442e-14 0
0.00709286 2.91383e-09 0
0 0 0
7.70078e-15 0 0
-1.23876e-09 0 0
-2.5638e-09 0 0
-3.19866e-09 0 0
-3.3303e-09 0 0
-3.33161e-09 0 0
-3.35813e-09 0 0
-3.53865e-09 0 0
-2.40043e-09 0 0
-7.8544e-10 0 0
-2.34044e-10 0 0
-1.06049e-09 0 0
-2.45153e-09 0 0
-3.37344e-09 0 0
-3.49825e-09 0 0
-3.26046e-09 0 0
-3.03181e-09 0 0
-2.90162e-09 0 0
-2.84421e-09 0 0
-2.82421e-09 0 0
-2.82004e-09 0 0
-2.82145e-09 0 0
-2.82423e-09 0 0
-2.82691e-09 0 0
-2.82907e-09 0 0
-2.83071e-09 0 0
-2.83192e-09 0 0
-2.8328e-09 0 0
-2.83344e-09 0 0
-2.83391e-09 0 0
-2.83425e-09 0 0
-2.83449e-09 0 0
-2.83467e-09 0 0
-2.8348e-09 0 0
-2.8349e-09 0 0
-2.83497e-09 0 0
-2.83502e-09 0 0
-2.83506e-09 0 0
-2.83509e-09 0 0
-2.83511e-09 0 0
-2.83512e-09 0 0
-2.83513e-09 0 0
-2.83514e-09 0 0
-2.83515e-09 0 0
-2.83515e-09 0 0
-2.83515e-09 0 0
-2.83516e-09 0 0
-2.83516e-09 0 0
-2.83516e-09 0 0
0.0026288 0 0
0 0 8.48373e-09
3.10955e-14 0 1.02814e-09
-3.58064e-09 0 2.58093e-09
-9.44063e-09 0 1.77768e-09
-1.46885e-08 0 -3.845e-09
-3.75365e-09 0 -6.40277e-09
9.99714e-10 0 -3.64572e-09
2.71779e-09 0 -1.53017e-09
2.27669e-09 0 7.88999e-11
3.47507e-10 0 5.30718e-10
-1.67644e-09 0 2.45589e-10
-3.10408e-09 0 -9.64754e-11
-3.94588e-09 0 -2.16605e-10
-4.42373e-09 0 -1.75731e-10
-4.72698e-09 0 -9.37624e-11
-4.96766e-09 0 -3.03524e-11
-5.17733e-09 0 3.51588e-12
-5.35171e-09 0 1.58158e-11
-5.48527e-09 0 1.68119e-11
-5.58015e-09 0 1.35294e-11
-5.64349e-09 0 9.54122e-12
-5.6836e-09 0 6.21594e-12
-5.70781e-09 0 3.83868e-12
-5.72171e-09 0 2.28016e-12
-5.72923e-09 0 1.31443e-12
-5.733e-09 0 7.396e-13
-5.73463e-09 0 4.07785e-13
-5.73513e-09 0 2.20949e-13
-5.73508e-09 0 1.17955e-13
-5.73478e-09 0 6.22458e-14
-5.73442e-09 0 3.26347e-14
-5.73406e-09 0 1.71474e-14
-5.73375e-09 0 9.16168e-15
-5.73349e-09 0 5.08665e-15
-5.73328e-09 0 3.01162e-15
-5.73312e-09 0 1.94056e-15
-5.733e-09 0 1.36531e-15
-5.73291e-09 0 1.03245e-15
-5.73284e-09 0 8.18468e-16
-5.73279e-09 0 6.6616e-16
-5.73275e-09 0 5.50484e-16
-5.73272e-09 0 4.6115e-16
-5.7327e-09 0 3.95755e-16
-5.73268e-09 0 3.57932e-16
-5.73267e-09 0 3.59513e-16
-5.73266e-09 0 4.20334e-16
-5.73266e-09 0 4.99957e-16
-5.73266e-09 0 5.38133e-16
-5.73266e-09 0 1.70919e-15
-5.73266e-09 0 7.77869e-15
0.0070825 0 -2.45399e-09
0.0036 -1.62452e-11 2.04197e-09
0.0036 -0.00147776 -0.000192116
0.00725389 -0.0046648 -0.00097366
0.0150792 -0.00815326 -0.00273875
0.0266792 -0.0135191 -0.00503568
0.0464331 -0.00986657 -0.00394609
0.0489681 -0.000496004 -0.000858092
0.0483651 0.00334581 0.000502095
0.0430747 0.00524772 0.0008284
0.0374443 0.0050221 0.000360821
0.0324507 0.00404965 -0.000140363
0.0283438 0.00297629 -0.000365665
0.0252476 0.00204559 -0.00035059
0.0231026 0.00134276 -0.000237157
0.0216979 0.000861736 -0.000128305
0.0208069 0.000547033 -5.79061e-05
0.0202548 0.000343053 -2.14945e-05
0.0199203 0.00021164 -5.63528e-06
0.0197219 0.000128149 8.36414e-08
0.0196068 7.61132e-05 1.52572e-06
0.0195416 4.4342e-05 1.46308e-06
0.0195055 2.53297e-05 1.03331e-06
0.0194861 1.41711e-05 6.28346e-07
0.0194761 7.74583e-06 3.4111e-07
0.0194712 4.11803e-06 1.6333e-07
0.0194689 2.11274e-06 6.33663e-08
0.0194681 1.03099e-06 1.21267e-08
0.0194679 4.64687e-07 -1.10923e-08
0.019468 1.79845e-07 -1.93569e-08
0.0194682 4.47803e-08 -2.0297e-08
0.0194684 -1.31613e-08 -1.80929e-08
0.0194686 -3.31631e-08 -1.48884e-08
0.0194687 -3.5781e-08 -1.16916e-08
0.0194688 -3.14115e-08 -8.91016e-09
0.0194689 -2.50404e-08 -6.65407e-09
0.019469 -1.8858e-08 -4.89902e-09
0.019469 -1.36685e-08 -3.57018e-09
0.019469 -9.63081e-09 -2.58245e-09
0.0194691 -6.63537e-09 -1.85787e-09
0.0194691 -4.48697e-09 -1.33167e-09
0.0194691 -2.9867e-09 -9.53001e-10
0.0194691 -1.96383e-09 -6.83618e-10
0.0194691 -1.28403e-09 -4.96128e-10
0.0194691 -8.47254e-10 -3.71958e-10
0.0194691 -5.81523e-10 -2.98685e-10
0.0194691 -4.46315e-10 -2.74717e-10
0.0194691 -4.31012e-10 -2.91911e-10
0.0194691 -4.95368e-10 -2.08164e-10
0.0194691 -1.38648e-09 -4.87174e-10
0.0194691 -6.13454e-09 -3.91842e-09
0.0194691 -1.00335e-08 -6.97094e-09
0.01 8.95803e-11 -1.62755e-08
0.01 -0.0033826 -0.000650094
0.0150559 -0.0108321 -0.0017663
0.0240617 -0.0185004 -0.00344515
0.0369486 -0.0291976 -0.00440849
0.0562491 -0.020091 -0.00123861
0.0546227 -0.0012509 0.0019088
0.0549352 0.00585799 0.00231194
0.0493872 0.0107528 0.00205559
0.0436505 0.0106636 0.000983446
0.0387243 0.00931462 -3.60352e-05
0.0345468 0.00745311 -0.000509821
0.0313884 0.00543632 -0.000541635
0.029283 0.00366827 -0.000382294
0.0279629 0.00235456 -0.000211783
0.02716 0.00146668 -9.73652e-05
0.0266843 0.000893426 -3.69138e-05
0.0264105 0.000533276 -1.00085e-05
0.0262577 0.000311994 2.66895e-08
0.0261754 0.000178821 2.76862e-06
0.0261328 0.000100257 2.82777e-06
0.0261121 5.48197e-05 2.15031e-06
0.0261028 2.9073e-05 1.44416e-06
0.0260993 1.48062e-05 9.04295e-07
0.0260985 7.10323e-06 5.40781e-07
0.026099 3.07746e-06 3.1269e-07
0.0260998 1.06542e-06 1.75971e-07
0.0261007 1.2663e-07 9.66783e-08
0.0261015 -2.59872e-07 5.18705e-08
0.0261021 -3.76018e-07 2.71118e-08
0.0261026 -3.70072e-07 1.37201e-08
0.0261029 -3.17079e-07 6.63827e-09
0.0261032 -2.52929e-07 2.99124e-09
0.0261034 -1.93204e-07 1.17733e-09
0.0261036 -1.43388e-07 3.20131e-10
0.0261037 -1.04268e-07 -5.14597e-11
0.0261037 -7.46837e-08 -1.85888e-10
0.0261038 -5.2879e-08 -2.11237e-10
0.0261038 -3.71041e-08 -1.91652e-10
0.0261038 -2.58526e-08 -1.5804e-10
0.0261039 -1.79199e-08 -1.24591e-10
0.0261039 -1.23855e-08 -9.75634e-11
0.0261039 -8.56829e-09 -8.0042e-11
0.0261039 -5.98011e-09 -7.45388e-11
0.0261039 -4.2845e-09 -8.0176e-11
0.0261039 -3.26653e-09 -9.0525e-11
0.0261039 -2.97675e-09 -1.10576e-10
0.0261039 -4.03816e-09 -4.75918e-11
0.0261039 -6.89838e-09 -5.92333e-10
0.0261039 -1.13143e-08 -5.38754e-09
0.0261039 -1.38618e-08 -9.56029e-09
0.0148 -1.44832e-08 -2.11378e-08
0.0148 -0.00549088 -0.0011654
0.0197188 -0.0164127 -0.00315979
0.0257658 -0.0271235 -0.0051564
0.0301422 -0.0417543 -0.00511506
0.0286418 -0.0255529 -0.000795458
0.0260939 -1.67889e-07 0.00209965
0.0262821 0.00763474 0.00220616
0.0309279 0.0159274 0.00212489
0.031097 0.015613 0.00118797
0.0297547 0.0134319 0.000259162
0.0285117 0.0106716 -0.000265158
0.0277208 0.00759897 -0.00037423
0.0274435 0.00494927 -0.000282858
0.0273983 0.00307714 -0.000151425
0.0274251 0.0018643 -5.75017e-05
0.0274696 0.00110484 -9.35777e-06
0.0275155 0.000639772 8.8467e-06
0.0275566 0.000361411 1.24737e-05
0.0275904 0.000198725 1.06671e-05
0.0276165 0.000105907 7.6675e-06
0.0276356 5.42455e-05 5.03108e-06
0.0276492 2.62598e-05 3.11895e-06
0.0276586 1.15809e-05 1.85935e-06
0.027665 4.20324e-06 1.07663e-06
0.0276693 7.24245e-07 6.09036e-07
0.0276722 -7.42129e-07 3.37622e-07
0.0276741 -1.21698e-06 1.83587e-07
0.0276754 -1.23799e-06 9.78135e-08
0.0276763 -1.07831e-06 5.08778e-08
0.0276768 -8.69593e-07 2.56452e-08
0.0276772 -6.70044e-07 1.23474e-08
0.0276775 -5.0116e-07 5.51072e-09
0.0276777 -3.67167e-07 2.11327e-09
0.0276778 -2.64977e-07 5.1026e-10
0.0276779 -1.8907e-07 -1.80689e-10
0.0276779 -1.33727e-07 -4.25107e-10
0.027678 -9.39279e-08 -4.63578e-10
0.027678 -6.561e-08 -4.17005e-10
0.027678 -4.56333e-08 -3.43738e-10
0.027678 -3.16465e-08 -2.70254e-10
0.027678 -2.19275e-08 -2.07405e-10
0.0276781 -1.52397e-08 -1.585e-10
0.0276781 -1.07158e-08 -1.2266e-10
0.0276781 -7.79882e-09 -9.78546e-11
0.0276781 -6.23033e-09 -9.27003e-11
0.0276781 -5.87111e-09 -1.49408e-10
0.0276781 -6.46221e-09 -2.52822e-10
0.0276781 -7.86012e-09 -1.15118e-09
0.0276781 -9.81685e-09 -6.04949e-09
0.0276781 -1.08652e-08 -1.01009e-08
0.018 -3.11247e-08 -2.49657e-08
0.018 -0.00658178 -0.00198523
0.0200912 -0.0175127 -0.00542589
0.0198882 -0.0227693 -0.00696432
0.0159201 -0.024647 -0.00663172
-1.84929e-08 -0.0128087 -0.00310808
1.58708e-06 5.20463e-07 1.00287e-08
-6.07905e-07 6.40376e-07 0.00042023
0.00744588 0.00519951 0.00085258
0.015613 0.0116244 0.000716588
0.0189771 0.0120226 0.000337948
0.0205773 0.00972592 -5.18771e-05
0.022311 0.00671829 -0.000232652
0.0240292 0.00413011 -0.000205985
0.0253953 0.00244124 -0.000106816
0.0263437 0.00141813 -2.60821e-05
0.0269588 0.000804072 1.43629e-05
0.0273462 0.000439975 2.57609e-05
0.0275865 0.000230072 2.35233e-05
0.027734 0.000113465 1.7342e-05
0.0278236 5.13219e-05 1.14527e-05
0.0278774 1.97552e-05 7.06921e-06
0.0279095 4.70286e-06 4.16705e-06
0.0279286 -1.78556e-06 2.37359e-06
0.0279398 -4.04485e-06 1.3147e-06
0.0279464 -4.35659e-06 7.09784e-07
0.0279503 -3.87533e-06 3.73078e-07
0.0279526 -3.15602e-06 1.8989e-07
0.0279539 -2.44475e-06 9.24557e-08
0.0279547 -1.83474e-06 4.1947e-08
0.0279552 -1.34766e-06 1.66193e-08
0.0279555 -9.74844e-07 4.52213e-09
0.0279557 -6.97224e-07 -8.00593e-10
0.0279558 -4.94372e-07 -2.77537e-09
0.0279558 -3.48168e-07 -3.18374e-09
0.0279559 -2.43866e-07 -2.92739e-09
0.0279559 -1.70046e-07 -2.4453e-09
0.0279559 -1.1813e-07 -1.93816e-09
0.0279559 -8.18113e-08 -1.48747e-09
0.0279559 -5.65236e-08 -1.1177e-09
0.0279559 -3.8999e-08 -8.2804e-10
0.0279559 -2.69228e-08 -6.08211e-10
0.0279559 -1.86767e-08 -4.46605e-10
0.0279559 -1.31515e-08 -3.3469e-10
0.0279559 -9.58283e-09 -2.70793e-10
0.0279559 -7.40078e-09 -2.80137e-10
0.0279559 -6.16978e-09 -4.18121e-10
0.0279559 -5.54514e-09 -6.12487e-10
0.0279559 -5.37034e-09 -1.58621e-09
0.0279559 -5.48014e-09 -6.2608e-09
0.0279559 -5.56352e-09 -1.0047e-08
0.0196 -3.92861e-08 -4.03268e-08
0.0196 -0.00519962 -0.00278983
0.0190892 -0.0117848 -0.00682087
0.0162775 -0.0141748 -0.00733772
0.0116341 -0.0126662 -0.00640988
0.00243049 -0.00507667 -0.00391174
1.20465e-06 -1.11025e-06 -0.000808511
5.02344e-07 -5.02344e-07 -7.35673e-10
-5.90872e-07 6.24937e-07 0.000112641
0.00516763 0.00391117 0.000235232
0.0115699 0.00844452 0.000187609
0.0143439 0.00742938 -4.21903e-05
0.0177633 0.00428506 -0.000264797
0.0211245 0.00197364 -0.00027601
0.0237471 0.000817335 -0.000171916
0.0254894 0.000314271 -6.20242e-05
0.0265492 9.56043e-05 1.45205e-06
0.0271698 -2.71104e-07 2.29948e-05
0.0275275 -3.76253e-05 2.3413e-05
0.0277318 -4.6469e-05 1.73461e-05
0.0278473 -4.27835e-05 1.11668e-05
0.027912 -3.48983e-05 6.63432e-06
0.0279479 -2.66941e-05 3.73664e-06
0.0279676 -1.96616e-05 2.02015e-06
0.0279784 -1.41481e-05 1.05238e-06
0.0279842 -1.00318e-05 5.26329e-07
0.0279872 -7.04627e-06 2.49258e-07
0.0279888 -4.91892e-06 1.07989e-07
0.0279897 -3.4199e-06 3.88057e-08
0.0279901 -2.37109e-06 6.88633e-09
0.0279903 -1.64063e-06 -6.3567e-09
0.0279903 -1.13343e-06 -1.06281e-08
0.0279904 -7.81997e-07 -1.08733e-08
0.0279904 -5.38871e-07 -9.53411e-09
0.0279903 -3.70888e-07 -7.76133e-09
0.0279903 -2.54959e-07 -6.05533e-09
0.0279903 -1.75045e-07 -4.59995e-09
0.0279903 -1.20026e-07 -3.43294e-09
0.0279903 -8.21999e-08 -2.53092e-09
0.0279903 -5.62405e-08 -1.85025e-09
0.0279903 -3.84687e-08 -1.34568e-09
0.0279903 -2.63479e-08 -9.78284e-10
0.0279903 -1.81281e-08 -7.18927e-10
0.0279903 -1.25936e-08 -5.50349e-10
0.0279903 -8.89038e-09 -4.65027e-10
0.0279903 -6.40758e-09 -4.72152e-10
0.0279903 -4.68182e-09 -6.10099e-10
0.0279903 -3.30561e-09 -7.92401e-10
0.0279903 -1.98449e-09 -1.74114e-09
0.0279903 -5.6403e-10 -6.27026e-09
0.0279903 1.86474e-10 -9.9245e-09
0.0196 -1.97061e-08 -5.40913e-08
0.0196 -0.00312056 -0.00312056
0.0190397 -0.00654513 -0.00688019
0.017802 -0.00611405 -0.0069096
0.0142705 -0.00248425 -0.00564468
0.0104744 0.00360138 -0.00403799
0.00660546 0.00339617 -0.00189161
1.20524e-06 -1.01526e-06 -0.000348375
4.24383e-07 -4.24383e-07 -2.01621e-09
-5.7078e-07 6.10964e-07 3.03799e-05
0.00390246 0.00281536 0.000332904
0.00852514 0.003594 0.000362263
0.0142089 9.85245e-05 -9.28937e-05
0.0193903 -0.00169598 -0.000354014
0.0231739 -0.00182586 -0.000330626
0.0254561 -0.00134593 -0.000180277
0.0266807 -0.000872902 -6.13519e-05
0.0273103 -0.000547586 -7.29812e-06
0.0276317 -0.000342329 7.95843e-06
0.0277957 -0.000214131 8.66366e-06
0.0278789 -0.000133918 6.00097e-06
0.0279206 -8.37932e-05 3.51811e-06
0.027941 -5.25572e-05 1.87135e-06
0.0279507 -3.31177e-05 9.1906e-07
0.0279551 -2.10025e-05 4.11087e-07
0.0279569 -1.34204e-05 1.56888e-07
0.0279574 -8.64505e-06 3.81252e-08
0.0279574 -5.61399e-06 -1.20367e-08
0.0279572 -3.67357e-06 -2.92359e-08
0.027957 -2.4205e-06 -3.16666e-08
0.0279567 -1.60451e-06 -2.82385e-08
0.0279565 -1.069e-06 -2.3097e-08
0.0279564 -7.15153e-07 -1.80233e-08
0.0279563 -4.79951e-07 -1.36704e-08
0.0279562 -3.22849e-07 -1.01815e-08
0.0279561 -2.17505e-07 -7.4913e-09
0.0279561 -1.4666e-07 -5.46616e-09
0.027956 -9.89193e-08 -3.96544e-09
0.027956 -6.67117e-08 -2.86541e-09
0.027956 -4.49777e-08 -2.06587e-09
0.027956 -3.03206e-08 -1.48978e-09
0.027956 -2.04487e-08 -1.08048e-09
0.027956 -1.38069e-08 -7.984e-10
0.027956 -9.33056e-09 -6.17637e-10
0.0279559 -6.27627e-09 -5.2286e-10
0.0279559 -4.10495e-09 -5.20078e-10
0.0279559 -2.38828e-09 -6.50165e-10
0.0279559 -6.85834e-10 -8.15583e-10
0.0279559 1.48388e-09 -1.70436e-09
0.0279559 4.32608e-09 -6.16685e-09
0.0279559 5.90687e-09 -9.80037e-09
0.018 -1.22159e-08 -5.30696e-08
0.018 -0.0014583 -0.00306924
0.0185346 -0.00239969 -0.00653384
0.0190312 -0.000801207 -0.00614613
0.0186254 0.00212101 -0.00468397
0.0186041 0.00770928 -0.00332994
0.0190673 0.0127528 -0.00188419
0.011759 0.00702434 -0.000840422
1.23335e-06 -7.97162e-07 -0.000283678
-4.6162e-07 -9.14384e-07 7.95839e-09
1.24723e-07 -0.000205708 0.000891596
0.00946194 -0.00297486 0.00136671
0.0171475 -0.00644388 0.000526641
0.022137 -0.00674991 -0.000128287
0.0251116 -0.00504863 -0.000357205
0.0266585 -0.00308516 -0.000275557
0.027345 -0.0017195 -0.000139166
0.0276108 -0.000943887 -5.56409e-05
0.0276993 -0.000525554 -1.94088e-05
0.0277202 -0.000297391 -6.27436e-06
0.0277181 -0.000170374 -1.99755e-06
0.0277101 -9.86301e-05 -7.04559e-07
0.0277019 -5.76957e-05 -3.29756e-07
0.0276952 -3.41278e-05 -2.13223e-07
0.0276902 -2.04263e-05 -1.62138e-07
0.0276866 -1.23748e-05 -1.2695e-07
0.027684 -7.58807e-06 -9.77057e-08
0.0276822 -4.70759e-06 -7.33887e-08
0.027681 -2.95275e-06 -5.40112e-08
0.0276801 -1.87066e-06 -3.91735e-08
0.0276795 -1.19563e-06 -2.81414e-08
0.027679 -7.69981e-07 -2.01007e-08
0.0276787 -4.98956e-07 -1.43142e-08
0.0276785 -3.24907e-07 -1.01814e-08
0.0276784 -2.12323e-07 -7.24148e-09
0.0276783 -1.39067e-07 -5.15381e-09
0.0276782 -9.1186e-08 -3.67177e-09
0.0276782 -5.97898e-08 -2.61927e-09
0.0276781 -3.9164e-08 -1.87156e-09
0.0276781 -2.56047e-08 -1.34084e-09
0.0276781 -1.66926e-08 -9.65754e-10
0.0276781 -1.08359e-08 -7.04115e-10
0.0276781 -6.97652e-09 -5.28064e-10
0.0276781 -4.39919e-09 -4.20849e-10
0.0276781 -2.60229e-09 -3.73351e-10
0.0276781 -1.20813e-09 -3.95049e-10
0.0276781 1.04801e-10 -5.32262e-10
0.0276781 1.7433e-09 -6.78854e-10
0.0276781 4.4519e-09 -1.44825e-09
0.0276781 8.65331e-09 -5.8534e-09
0.0276781 1.11099e-08 -9.52986e-09
0.0148 -7.52272e-09 -4.59477e-08
0.0148 -0.000554388 -0.00287709
0.0166192 -0.000347444 -0.00587154
0.0189868 0.00155835 -0.00515619
0.0211831 0.00432693 -0.00368903
0.0232977 0.00758454 -0.00271224
0.0267513 0.0126656 -0.001823
0.0298099 0.0199969 -0.000987682
0.0241868 0.0119404 -0.000133207
0.024661 1.4605e-14 0.000514486
0.0285961 -0.0070544 0.00158387
0.0335482 -0.0141184 0.00248681
0.0342676 -0.0126827 0.00185018
0.032279 -0.00947316 0.000662662
0.0299248 -0.00609932 -0.00021246
0.02827 -0.00340737 -0.000407816
0.0273091 -0.00174038 -0.00027633
0.0267804 -0.000868219 -0.000135758
0.0264895 -0.000440179 -5.79166e-05
0.0263271 -0.000229486 -2.32189e-05
0.0262352 -0.000122909 -9.08072e-06
0.0261823 -6.73577e-05 -3.53326e-06
0.0261514 -3.76301e-05 -1.38385e-06
0.0261331 -2.13667e-05 -5.48863e-07
0.0261221 -1.23032e-05 -2.19989e-07
0.0261154 -7.17205e-06 -8.76558e-08
0.0261113 -4.22684e-06 -3.3189e-08
0.0261087 -2.51536e-06 -1.04876e-08
0.026107 -1.50957e-06 -1.17661e-09
0.0261059 -9.1237e-07 2.33924e-09
0.0261053 -5.54454e-07 3.33231e-09
0.0261048 -3.38172e-07 3.26526e-09
0.0261045 -2.06563e-07 2.80507e-09
0.0261043 -1.26041e-07 2.25294e-09
0.0261042 -7.65941e-08 1.73684e-09
0.0261041 -4.61806e-08 1.30236e-09
0.026104 -2.74893e-08 9.56985e-10
0.026104 -1.60442e-08 6.921e-10
0.0261039 -9.08563e-09 4.9361e-10
0.0261039 -4.90143e-09 3.46839e-10
0.0261039 -2.423e-09 2.38421e-10
0.0261039 -9.78246e-10 1.56649e-10
0.0261039 -1.38094e-10 9.09181e-11
0.0261039 3.80955e-10 3.0897e-11
0.0261039 7.82528e-10 -3.29441e-11
0.0261039 1.24328e-09 -1.18938e-10
0.0261039 1.95024e-09 -2.72697e-10
0.0261039 3.19333e-09 -4.05364e-10
0.0261039 5.90409e-09 -1.03557e-09
0.0261039 1.08707e-08 -5.22747e-09
0.0261039 1.39299e-08 -8.82014e-09
0.01 -1.45057e-08 -4.10281e-08
0.01 -0.000334958 -0.00241976
0.0119921 2.1361e-05 -0.00462541
0.0149944 0.00134134 -0.00364437