# vtk DataFile Version 2.0
Tobias Weinzierl: CPU, Manycore and Cluster Computing
ASCII

DATASET STRUCTURED_POINTS
DIMENSIONS  51 11 6

ORIGIN 0 0 0 

SPACING 0.1 0.1 0.1 

POINT_DATA 3366

VECTORS velocity float
0 0 0
4.44946e-15 0 0
-9.84137e-10 0 0
-2.93222e-09 0 0
-4.40758e-09 0 0
-1.60561e-09 0 0
-4.73032e-10 0 0
8.76469e-11 0 0
7.59368e-11 0 0
-6.18288e-10 0 0
-1.46471e-09 0 0
-2.00809e-09 0 0
-2.17801e-09 0 0
-2.1335e-09 0 0
-2.0404e-09 0 0
-1.98188e-09 0 0
-1.96916e-09 0 0
-1.98442e-09 0 0
-2.00923e-09 0 0
-2.03284e-09 0 0
-2.05114e-09 0 0
-2.06369e-09 0 0
-2.07153e-09 0 0
-2.076e-09 0 0
-2.07827e-09 0 0
-2.07923e-09 0 0
-2.07944e-09 0 0
-2.07929e-09 0 0
-2.07899e-09 0 0
-2.07865e-09 0 0
-2.07833e-09 0 0
-2.07806e-09 0 0
-2.07783e-09 0 0
-2.07766e-09 0 0
-2.07752e-09 0 0
-2.07742e-09 0 0
-2.07734e-09 0 0
-2.07728e-09 0 0
-2.07724e-09 0 0
-2.07721e-09 0 0
-2.07718e-09 0 0
-2.07717e-09 0 0
-2.07715e-09 0 0
-2.07715e-09 0 0
-2.07714e-09 0 0
-2.07714e-09 0 0
-2.07713e-09 0 0
-2.07713e-09 0 0
-2.07713e-09 0 0
-2.07713e-09 0 0
0.00245955 0 0
0 6.79407e-09 0
1.70834e-14 3.62409e-10 0
-1.6769e-09 9.33054e-10 0
-5.37467e-09 1.1601e-09 0
-7.53292e-09 8.18387e-10 0
-3.02124e-09 1.07973e-09 0
-1.65259e-09 1.74647e-09 0
-9.55972e-10 1.4745e-09 0
-4.53252e-10 1.20154e-09 0
-1.08155e-09 1.2397e-09 0
-2.30978e-09 1.06136e-09 0
-3.26169e-09 6.5536e-10 0
-3.64837e-09 2.53397e-10 0
-3.68446e-09 1.82673e-11 0
-3.66142e-09 -4.7441e-11 0
-3.71169e-09 -2.66535e-11 0
-3.82824e-09 7.87844e-12 0
-3.9639e-09 2.75306e-11 0
-4.08449e-09 3.15879e-11 0
-4.17675e-09 2.70623e-11 0
-4.24071e-09 1.97987e-11 0
-4.28186e-09 1.29138e-11 0
-4.30666e-09 7.56055e-12 0
-4.32064e-09 3.86523e-12 0
-4.3279e-09 1.54207e-12 0
-4.33122e-09 2.11399e-13 0
-4.33237e-09 -4.64722e-13 0
-4.3324e-09 -7.41974e-13 0
-4.33195e-09 -7.95562e-13 0
-4.33132e-09 -7.36811e-13 0
-4.3307e-09 -6.31718e-13 0
-4.33015e-09 -5.16528e-13 0
-4.32969e-09 -4.09176e-13 0
-4.32932e-09 -3.17011e-13 0
-4.32904e-09 -2.41685e-13 0
-4.32883e-09 -1.82077e-13 0
-4.32866e-09 -1.35952e-13 0
-4.32854e-09 -1.00823e-13 0
-4.32845e-09 -7.4378e-14 0
-4.32839e-09 -5.46377e-14 0
-4.32834e-09 -3.99915e-14 0
-4.32831e-09 -2.91689e-14 0
-4.32828e-09 -2.11895e-14 0
-4.32826e-09 -1.53083e-14 0
-4.32825e-09 -1.09611e-14 0
-4.32824e-09 -7.70832e-15 0
-4.32823e-09 -5.22251e-15 0
-4.32823e-09 -3.23753e-15 0
-4.32823e-09 -6.73177e-16 0
-4.32823e-09 5.17122e-15 0
0.00674747 -2.42785e-09 0
0 1.33495e-10 0
2.89589e-14 4.07486e-10 0
-5.41038e-10 2.39912e-10 0
-3.367e-09 -1.34898e-09 0
-3.84865e-09 -2.03481e-09 0
-6.44296e-10 2.5216e-10 0
-1.75941e-09 2.53653e-09 0
-2.1473e-09 1.86574e-09 0
-1.62197e-09 5.29244e-10 0
-1.43275e-09 1.14746e-10 0
-2.1149e-09 1.38813e-10 0
-2.79314e-09 4.34771e-10 0
-3.08986e-09 7.42348e-10 0
-3.07873e-09 8.38252e-10 0
-3.02763e-09 7.55559e-10 0
-3.08154e-09 6.09007e-10 0
-3.22407e-09 4.60163e-10 0
-3.39003e-09 3.30366e-10 0
-3.53424e-09 2.26258e-10 0
-3.64094e-09 1.48115e-10 0
-3.71196e-09 9.26871e-11 0
-3.75558e-09 5.52727e-11 0
-3.78051e-09 3.11425e-11 0
-3.79368e-09 1.62612e-11 0
-3.79993e-09 7.51092e-12 0
-3.80236e-09 2.64662e-12 0
-3.80283e-09 1.39198e-13 0
-3.80241e-09 -1.00425e-12 0
-3.80166e-09 -1.40097e-12 0
-3.80085e-09 -1.41862e-12 0
-3.80012e-09 -1.26637e-12 0
-3.79952e-09 -1.05687e-12 0
-3.79903e-09 -8.46345e-13 0
-3.79865e-09 -6.59445e-13 0
-3.79837e-09 -5.04133e-13 0
-3.79815e-09 -3.8018e-13 0
-3.798e-09 -2.83857e-13 0
-3.79788e-09 -2.1037e-13 0
-3.79779e-09 -1.5503e-13 0
-3.79773e-09 -1.13741e-13 0
-3.79768e-09 -8.31349e-14 0
-3.79765e-09 -6.05431e-14 0
-3.79763e-09 -4.38978e-14 0
-3.79761e-09 -3.16181e-14 0
-3.7976e-09 -2.25053e-14 0
-3.79759e-09 -1.56128e-14 0
-3.79758e-09 -9.97919e-15 0
-3.79758e-09 -4.50254e-15 0
-3.79758e-09 1.21424e-15 0
-3.79758e-09 6.86806e-15 0
0.00907986 -3.60468e-09 0
0 -9.45677e-09 0
3.17457e-14 -9.12792e-11 0
4.78726e-10 -1.28485e-09 0
-1.86109e-09 -3.84511e-09 0
-2.45905e-09 -4.96674e-09 0
7.71339e-10 -2.31522e-09 0
-5.79853e-10 -3.11187e-14 0
-1.10368e-09 -6.88521e-10 0
-2.41126e-09 -1.89967e-09 0
-2.67194e-09 -2.18898e-09 0
-3.21587e-09 -1.39399e-09 0
-3.75037e-09 -1.42119e-10 0
-3.87984e-09 8.90664e-10 0
-3.59774e-09 1.24445e-09 0
-3.17857e-09 1.14659e-09 0
-2.87142e-09 9.12799e-10 0
-2.73223e-09 6.7623e-10 0
-2.70396e-09 4.73165e-10 0
-2.72045e-09 3.13348e-10 0
-2.74389e-09 1.96588e-10 0
-2.76065e-09 1.16695e-10 0
-2.76914e-09 6.50748e-11 0
-2.77167e-09 3.34369e-11 0
-2.77088e-09 1.50515e-11 0
-2.76865e-09 4.99773e-12 0
-2.76608e-09 -7.04064e-14 0
-2.76371e-09 -2.3029e-12 0
-2.76173e-09 -3.01567e-12 0
-2.76017e-09 -2.978e-12 0
-2.75898e-09 -2.61829e-12 0
-2.75809e-09 -2.16159e-12 0
-2.75744e-09 -1.71662e-12 0
-2.75697e-09 -1.32863e-12 0
-2.75662e-09 -1.01016e-12 0
-2.75638e-09 -7.58322e-13 0
-2.7562e-09 -5.64032e-13 0
-2.75607e-09 -4.16672e-13 0
-2.75598e-09 -3.06248e-13 0
-2.75591e-09 -2.24212e-13 0
-2.75587e-09 -1.63639e-13 0
-2.75583e-09 -1.19099e-13 0
-2.75581e-09 -8.64233e-14 0
-2.75579e-09 -6.24559e-14 0
-2.75578e-09 -4.48129e-14 0
-2.75577e-09 -3.16602e-14 0
-2.75576e-09 -2.15903e-14 0
-2.75576e-09 -1.3671e-14 0
-2.75575e-09 -7.34165e-15 0
-2.75575e-09 -1.92673e-15 0
-2.75575e-09 3.33623e-15 0
0.00968896 -2.82406e-09 0
0 -1.82392e-08 0
1.35872e-14 -8.03645e-10 0
1.46279e-10 -2.40161e-09 0
-2.32323e-09 -3.44007e-09 0
-3.91995e-09 -2.83035e-09 0
-1.66324e-14 -9.88263e-10 0
-1.43157e-13 -1.67763e-13 0
1.42117e-13 -1.59177e-13 0
-1.31847e-09 -1.39397e-09 0
-3.45543e-09 -2.74859e-09 0
-4.01821e-09 -1.89234e-09 0
-4.39566e-09 -2.64341e-10 0
-4.60286e-09 8.66581e-10 0
-4.38301e-09 1.12739e-09 0
-3.83384e-09 9.37461e-10 0
-3.26837e-09 6.99008e-10 0
-2.87249e-09 5.04051e-10 0
-2.64694e-09 3.44696e-10 0
-2.52711e-09 2.17848e-10 0
-2.4605e-09 1.25198e-10 0
-2.41946e-09 6.38218e-11 0
-2.39192e-09 2.67684e-11 0
-2.37273e-09 6.41178e-12 0
-2.35932e-09 -3.536e-12 0
-2.35007e-09 -7.5147e-12 0
-2.34379e-09 -8.35536e-12 0
-2.33959e-09 -7.7266e-12 0
-2.33681e-09 -6.54323e-12 0
-2.33497e-09 -5.26748e-12 0
-2.33377e-09 -4.10678e-12 0
-2.33298e-09 -3.13401e-12 0
-2.33246e-09 -2.35651e-12 0
-2.33212e-09 -1.75346e-12 0
-2.33188e-09 -1.29498e-12 0
-2.33173e-09 -9.51211e-13 0
-2.33162e-09 -6.9595e-13 0
-2.33155e-09 -5.07721e-13 0
-2.3315e-09 -3.69608e-13 0
-2.33146e-09 -2.68619e-13 0
-2.33144e-09 -1.94947e-13 0
-2.33142e-09 -1.4127e-13 0
-2.33141e-09 -1.02163e-13 0
-2.3314e-09 -7.36245e-14 0
-2.33139e-09 -5.27181e-14 0
-2.33139e-09 -3.7322e-14 0
-2.33138e-09 -2.59082e-14 0
-2.33138e-09 -1.7326e-14 0
-2.33138e-09 -1.06515e-14 0
-2.33138e-09 -5.03089e-15 0
-2.33138e-09 3.06183e-16 0
0.0098111 -1.28932e-09 0
0 -1.62777e-08 0
8.84608e-16 -9.16303e-10 0
-3.68437e-10 -2.05624e-09 0
-2.72195e-09 -2.77822e-09 0
-4.8412e-09 -3.12735e-09 0
-1.98917e-09 -1.48907e-09 0
-1.40337e-13 1.36354e-13 0
5.76469e-15 -5.76469e-15 0
1.30368e-13 -1.53853e-13 0
-1.75298e-09 -1.26858e-09 0
-3.46846e-09 -1.88531e-09 0
-3.68271e-09 -1.71161e-10 0
-4.36676e-09 1.19176e-09 0
-4.7994e-09 1.2636e-09 0
-4.49883e-09 7.87607e-10 0
-3.80252e-09 4.06008e-10 0
-3.18229e-09 2.0191e-10 0
-2.78317e-09 8.96996e-11 0
-2.55622e-09 2.13488e-11 0
-2.42883e-09 -1.77018e-11 0
-2.35493e-09 -3.5301e-11 0
-2.3107e-09 -3.92326e-11 0
-2.28385e-09 -3.60387e-11 0
-2.26757e-09 -3.00748e-11 0
-2.25779e-09 -2.37347e-11 0
-2.25199e-09 -1.80959e-11 0
-2.2486e-09 -1.34991e-11 0
-2.24665e-09 -9.93171e-12 0
-2.24553e-09 -7.24399e-12 0
-2.24491e-09 -5.2557e-12 0
-2.24457e-09 -3.80134e-12 0
-2.24438e-09 -2.74482e-12 0
-2.24429e-09 -1.9804e-12 0
-2.24424e-09 -1.42857e-12 0
-2.24422e-09 -1.03063e-12 0
-2.24421e-09 -7.43777e-13 0
-2.2442e-09 -5.36971e-13 0
-2.2442e-09 -3.87818e-13 0
-2.2442e-09 -2.80181e-13 0
-2.2442e-09 -2.02439e-13 0
-2.24421e-09 -1.46226e-13 0
-2.24421e-09 -1.05522e-13 0
-2.24421e-09 -7.599e-14 0
-2.24421e-09 -5.45008e-14 0
-2.24421e-09 -3.87826e-14 0
-2.24421e-09 -2.71849e-14 0
-2.24421e-09 -1.8526e-14 0
-2.24421e-09 -1.19395e-14 0
-2.24421e-09 -6.63008e-15 0
-2.24421e-09 -1.80073e-15 0
0.00982817 3.7548e-10 0
0 -1.14663e-08 0
4.32634e-15 -8.21514e-10 0
-4.38208e-10 -1.94737e-09 0
-2.70279e-09 -2.11161e-09 0
-5.16227e-09 -1.71995e-09 0
-4.44586e-09 -1.0557e-09 0
-1.2832e-09 -3.215e-10 0
-1.38347e-13 1.34356e-13 0
-3.98241e-15 3.98241e-15 0
1.12867e-13 -1.47861e-13 0
-1.39628e-09 -5.52867e-10 0
-1.66697e-09 4.20828e-10 0
-2.97457e-09 2.22287e-09 0
-4.57912e-09 1.89775e-09 0
-4.97202e-09 7.83698e-10 0
-4.29232e-09 6.5061e-11 0
-3.46056e-09 -1.87695e-10 0
-2.90179e-09 -2.3262e-10 0
-2.60352e-09 -2.131e-10 0
-2.45772e-09 -1.75683e-10 0
-2.38806e-09 -1.35713e-10 0
-2.35496e-09 -1.00034e-10 0
-2.33948e-09 -7.13791e-11 0
-2.33254e-09 -4.99003e-11 0
-2.32972e-09 -3.44976e-11 0
-2.32884e-09 -2.37442e-11 0
-2.32881e-09 -1.63455e-11 0
-2.32913e-09 -1.12864e-11 0
-2.32953e-09 -7.82919e-12 0
-2.32992e-09 -5.45991e-12 0
-2.33026e-09 -3.82825e-12 0
-2.33053e-09 -2.69802e-12 0
-2.33075e-09 -1.91037e-12 0
-2.33091e-09 -1.35826e-12 0
-2.33103e-09 -9.69153e-13 0
-2.33112e-09 -6.93613e-13 0
-2.33119e-09 -4.97669e-13 0
-2.33124e-09 -3.57817e-13 0
-2.33128e-09 -2.57682e-13 0
-2.3313e-09 -1.85785e-13 0
-2.33132e-09 -1.34029e-13 0
-2.33134e-09 -9.66784e-14 0
-2.33135e-09 -6.96444e-14 0
-2.33135e-09 -5.00053e-14 0
-2.33136e-09 -3.56662e-14 0
-2.33136e-09 -2.51249e-14 0
-2.33137e-09 -1.73286e-14 0
-2.33137e-09 -1.15742e-14 0
-2.33137e-09 -7.2785e-15 0
-2.33137e-09 -3.69157e-15 0
0.0098111 1.97634e-09 0
0 -8.12842e-09 0
5.81267e-15 -7.45501e-10 0
-6.15388e-10 -1.68417e-09 0
-2.86879e-09 -1.64555e-09 0
-4.99344e-09 -9.11417e-10 0
-4.80687e-09 -3.23087e-10 0
-3.05131e-09 -6.24621e-10 0
-1.48394e-09 -5.06075e-10 0
-1.45352e-13 1.23349e-13 0
1.06397e-13 1.27352e-13 0
-1.17594e-14 -2.18873e-10 0
-5.11162e-10 1.41912e-09 0
-9.47298e-10 3.56902e-09 0
-2.64389e-09 2.7903e-09 0
-4.04427e-09 8.66335e-10 0
-4.11736e-09 -2.59729e-10 0
-3.55856e-09 -5.4008e-10 0
-3.07733e-09 -4.88881e-10 0
-2.82719e-09 -3.71141e-10 0
-2.73146e-09 -2.62464e-10 0
-2.7075e-09 -1.78171e-10 0
-2.70999e-09 -1.17941e-10 0
-2.7195e-09 -7.70729e-11 0
-2.72904e-09 -5.0206e-11 0
-2.7367e-09 -3.28266e-11 0
-2.74234e-09 -2.16368e-11 0
-2.74635e-09 -1.44091e-11 0
-2.74915e-09 -9.70293e-12 0
-2.7511e-09 -6.60554e-12 0
-2.75246e-09 -4.54282e-12 0
-2.75342e-09 -3.15282e-12 0
-2.75409e-09 -2.20563e-12 0
-2.75456e-09 -1.55358e-12 0
-2.7549e-09 -1.10063e-12 0
-2.75514e-09 -7.83515e-13 0
-2.75531e-09 -5.6e-13 0
-2.75543e-09 -4.01559e-13 0
-2.75552e-09 -2.88706e-13 0
-2.75558e-09 -2.07995e-13 0
-2.75562e-09 -1.50072e-13 0
-2.75566e-09 -1.08373e-13 0
-2.75568e-09 -7.82666e-14 0
-2.7557e-09 -5.64629e-14 0
-2.75571e-09 -4.06195e-14 0
-2.75572e-09 -2.90648e-14 0
-2.75572e-09 -2.06029e-14 0
-2.75573e-09 -1.44012e-14 0
-2.75573e-09 -1.00074e-14 0
-2.75573e-09 -7.31067e-15 0
-2.75574e-09 -5.89799e-15 0
0.00968896 3.29143e-09 0
0 -7.19812e-09 0
8.82329e-15 -5.87936e-10 0
-1.0034e-09 -1.35969e-09 0
-3.35709e-09 -1.30616e-09 0
-5.21752e-09 -6.46334e-10 0
-5.14714e-09 2.43385e-11 0
-3.79579e-09 -1.94192e-10 0
-2.97807e-09 -1.47386e-09 0
-1.55369e-09 -1.1434e-09 0
-1.96717e-09 -1.03033e-17 0
-3.96893e-09 5.95799e-10 0
-4.53841e-09 1.9375e-09 0
-1.9626e-09 2.94405e-09 0
-1.08814e-09 2.4695e-09 0
-2.59943e-09 9.86859e-10 0
-3.7363e-09 -7.72508e-11 0
-3.87046e-09 -4.26267e-10 0
-3.72048e-09 -4.02149e-10 0
-3.64063e-09 -2.86903e-10 0
-3.64156e-09 -1.86093e-10 0
-3.67377e-09 -1.17141e-10 0
-3.70856e-09 -7.35773e-11 0
-3.7364e-09 -4.67084e-11 0
-3.7563e-09 -3.01288e-11 0
-3.76983e-09 -1.97691e-11 0
-3.77886e-09 -1.31811e-11 0
-3.78486e-09 -8.91346e-12 0
-3.78885e-09 -6.10104e-12 0
-3.79154e-09 -4.21923e-12 0
-3.79336e-09 -2.94342e-12 0
-3.79461e-09 -2.06861e-12 0
-3.79548e-09 -1.4629e-12 0
-3.79608e-09 -1.03999e-12 0
-3.79651e-09 -7.4259e-13 0
-3.79681e-09 -5.32175e-13 0
-3.79702e-09 -3.82532e-13 0
-3.79717e-09 -2.75644e-13 0
-3.79728e-09 -1.99013e-13 0
-3.79736e-09 -1.43903e-13 0
-3.79741e-09 -1.04162e-13 0
-3.79746e-09 -7.5434e-14 0
-3.79748e-09 -5.46194e-14 0
-3.79751e-09 -3.95034e-14 0
-3.79752e-09 -2.85001e-14 0
-3.79753e-09 -2.04781e-14 0
-3.79754e-09 -1.46364e-14 0
-3.79755e-09 -1.04141e-14 0
-3.79755e-09 -7.58708e-15 0
-3.79755e-09 -6.66162e-15 0
-3.79756e-09 -8.08081e-15 0
0.00907986 3.67002e-09 0
0 -7.61846e-09 0
1.0598e-14 -3.09631e-10 0
-1.34846e-09 -7.38879e-10 0
-3.56431e-09 -6.93102e-10 0
-5.05355e-09 -3.64845e-10 0
-5.28638e-09 -2.85849e-10 0
-4.46297e-09 -6.24439e-10 0
-3.92021e-09 -1.39193e-09 0
-4.30926e-09 -8.38432e-10 0
-4.14247e-09 1.54363e-09 0
-4.88053e-09 2.87076e-09 0
-4.23308e-09 1.54186e-09 0
-2.12237e-09 -6.61029e-10 0
-1.58709e-09 -1.49793e-09 0
-3.1351e-09 -1.02051e-09 0
-4.35598e-09 -2.3328e-10 0
-4.56042e-09 1.82658e-10 0
-4.40771e-09 2.26459e-10 0
-4.28706e-09 1.42446e-10 0
-4.24551e-09 6.53432e-11 0
-4.24682e-09 2.15407e-11 0
-4.26241e-09 1.96772e-12 0
-4.27927e-09 -4.92753e-12 0
-4.29319e-09 -6.30159e-12 0
-4.30356e-09 -5.66963e-12 0
-4.31095e-09 -4.52825e-12 0
-4.31612e-09 -3.42957e-12 0
-4.31971e-09 -2.53144e-12 0
-4.32221e-09 -1.84508e-12 0
-4.32396e-09 -1.33689e-12 0
-4.32518e-09 -9.66314e-13 0
-4.32605e-09 -6.98014e-13 0
-4.32666e-09 -5.04336e-13 0
-4.3271e-09 -3.64638e-13 0
-4.32741e-09 -2.63846e-13 0
-4.32763e-09 -1.91067e-13 0
-4.32779e-09 -1.38463e-13 0
-4.32791e-09 -1.004e-13 0
-4.32799e-09 -7.28304e-14 0
-4.32805e-09 -5.28401e-14 0
-4.32809e-09 -3.83295e-14 0
-4.32813e-09 -2.77851e-14 0
-4.32815e-09 -2.01146e-14 0
-4.32817e-09 -1.45288e-14 0
-4.32818e-09 -1.04629e-14 0
-4.32819e-09 -7.52488e-15 0
-4.32819e-09 -5.44948e-15 0
-4.3282e-09 -4.14786e-15 0
-4.3282e-09 -4.21138e-15 0
-4.32821e-09 -6.72577e-15 0
0.00674747 2.15968e-09 0
0 0 0
5.97916e-15 0 0
-7.09956e-10 0 0
-1.70846e-09 0 0
-2.32418e-09 0 0
-2.48939e-09 0 0
-2.43529e-09 0 0
-2.42608e-09 0 0
-2.75558e-09 0 0
-2.17531e-09 0 0
-9.11614e-10 0 0
-3.67543e-11 0 0
-1.56736e-10 0 0
-1.05008e-09 0 0
-2.04488e-09 0 0
-2.49856e-09 0 0
-2.46501e-09 0 0
-2.29241e-09 0 0
-2.16068e-09 0 0
-2.09289e-09 0 0
-2.06622e-09 0 0
-2.05938e-09 0 0
-2.06031e-09 0 0
-2.06349e-09 0 0
-2.06678e-09 0 0
-2.06952e-09 0 0
-2.07161e-09 0 0
-2.07315e-09 0 0
-2.07427e-09 0 0
-2.07507e-09 0 0
-2.07565e-09 0 0
-2.07606e-09 0 0
-2.07635e-09 0 0
-2.07657e-09 0 0
-2.07672e-09 0 0
-2.07683e-09 0 0
-2.07691e-09 0 0
-2.07697e-09 0 0
-2.07701e-09 0 0
-2.07704e-09 0 0
-2.07706e-09 0 0
-2.07708e-09 0 0
-2.07709e-09 0 0
-2.0771e-09 0 0
-2.07711e-09 0 0
-2.07711e-09 0 0
-2.07711e-09 0 0
-2.07712e-09 0 0
-2.07712e-09 0 0
-2.07712e-09 0 0
0.00245955 0 0
0 0 8.5212e-09
2.41184e-14 0 6.21728e-10
-1.56568e-09 0 1.99917e-09
-5.87227e-09 0 2.26334e-09
-1.20203e-08 0 -2.145e-09
-4.06987e-09 0 -5.01428e-09
-3.29139e-10 0 -3.43972e-09
1.74416e-09 0 -2.02347e-09
2.34112e-09 0 -4.95601e-10
1.42031e-09 0 3.00952e-10
-1.94172e-10 0 3.28442e-10
-1.66433e-09 0 5.79352e-11
-2.63798e-09 0 -1.27984e-10
-3.17261e-09 0 -1.5588e-10
-3.46097e-09 0 -1.04183e-10
-3.66304e-09 0 -4.45869e-11
-3.84322e-09 0 -5.33645e-12
-4.00455e-09 0 1.25416e-11
-4.13643e-09 0 1.68273e-11
-4.23463e-09 0 1.48499e-11
-4.3023e-09 0 1.10563e-11
-4.34604e-09 0 7.47566e-12
-4.3727e-09 0 4.74511e-12
-4.38799e-09 0 2.87846e-12
-4.39616e-09 0 1.68623e-12
-4.40007e-09 0 9.59827e-13
-4.40159e-09 0 5.32672e-13
-4.40185e-09 0 2.88596e-13
-4.40152e-09 0 1.52576e-13
-4.40096e-09 0 7.85306e-14
-4.40037e-09 0 3.91682e-14
-4.39983e-09 0 1.87785e-14
-4.39937e-09 0 8.53416e-15
-4.39901e-09 0 3.58256e-15
-4.39872e-09 0 1.31387e-15
-4.3985e-09 0 3.57283e-16
-4.39833e-09 0 1.0588e-17
-4.39821e-09 0 -7.30031e-17
-4.39811e-09 0 -5.72808e-17
-4.39805e-09 0 -1.51658e-17
-4.398e-09 0 2.60649e-17
-4.39796e-09 0 5.96503e-17
-4.39793e-09 0 8.82405e-17
-4.39791e-09 0 1.18016e-16
-4.3979e-09 0 1.60363e-16
-4.39789e-09 0 2.40958e-16
-4.39788e-09 0 3.51224e-16
-4.39788e-09 0 4.13316e-16
-4.39788e-09 0 1.14533e-15
-4.39788e-09 0 5.19374e-15
0.0067325 0 -1.72644e-09
0.0036 -1.77189e-09 1.00132e-09
0.0036 -0.00133163 -6.4513e-05
0.00696959 -0.00423473 -0.00054392
0.0143543 -0.00760407 -0.00223999
0.0256304 -0.0139167 -0.0051739
0.0462756 -0.0107742 -0.00448879
0.0491262 -0.000832223 -0.00121558
0.0486006 0.00325088 0.000314525
0.0433471 0.00533242 0.000859331
0.037694 0.00523412 0.0005238
0.0326711 0.00428137 1.17612e-06
0.0285076 0.00315675 -0.000327058
0.0252998 0.00216053 -0.000393206
0.0230141 0.00140931 -0.000301946
0.0214773 0.000902598 -0.000178415
0.0204789 0.000577132 -8.61686e-05
0.0198459 0.000367686 -3.40532e-05
0.0194536 0.000231442 -9.80627e-06
0.019216 0.000143066 -4.72784e-07
0.0190754 8.66142e-05 2.16885e-06
0.0189942 5.13019e-05 2.29381e-06
0.0189484 2.96988e-05 1.71703e-06
0.0189234 1.67713e-05 1.10764e-06
0.0189102 9.20433e-06 6.49792e-07
0.0189036 4.8754e-06 3.51838e-07
0.0189006 2.46046e-06 1.74309e-07
0.0188994 1.15255e-06 7.56454e-08
0.0188991 4.70446e-07 2.44982e-08
0.0188991 1.33137e-07 2.42532e-10
0.0188994 -1.99834e-08 -9.65108e-09
0.0188997 -7.8626e-08 -1.23676e-08
0.0188999 -9.15973e-08 -1.1825e-08
0.0189001 -8.45987e-08 -1.00491e-08
0.0189003 -7.05792e-08 -8.01822e-09
0.0189004 -5.56394e-08 -6.15621e-09
0.0189005 -4.2327e-08 -4.60827e-09
0.0189005 -3.14346e-08 -3.38964e-09
0.0189006 -2.29521e-08 -2.46228e-09
0.0189006 -1.65532e-08 -1.77244e-09
0.0189006 -1.18308e-08 -1.26754e-09
0.0189007 -8.40027e-09 -9.02733e-10
0.0189007 -5.9381e-09 -6.4258e-10
0.0189007 -4.18828e-09 -4.60751e-10
0.0189007 -2.95636e-09 -3.39037e-10
0.0189007 -2.09721e-09 -2.64151e-10
0.0189007 -1.50945e-09 -2.29766e-10
0.0189007 -1.13815e-09 -2.33296e-10
0.0189007 -9.16969e-10 -1.64405e-10
0.0189007 -1.34088e-09 -2.99415e-10
0.0189007 -4.79771e-09 -2.78291e-09
0.0189007 -7.74491e-09 -5.05185e-09
0.01 -1.03238e-09 -1.88761e-08
0.01 -0.00316452 -0.000528789
0.0149947 -0.0103708 -0.00126404
0.0240103 -0.0182888 -0.00282142
0.037223 -0.0301343 -0.00424775
0.0567949 -0.0212393 -0.00119048
0.0548368 -0.00151752 0.00212615
0.0549448 0.00577727 0.00247441
0.0494284 0.0106678 0.00228524
0.0438864 0.0106393 0.00131322
0.0391639 0.00938622 0.000233417
0.035087 0.00766371 -0.000419254
0.0318624 0.00574949 -0.000595946
0.0296052 0.00399097 -0.000483276
0.0281296 0.00262384 -0.000293913
0.0271989 0.00166866 -0.000145194
0.0266279 0.00103651 -5.89707e-05
0.0262879 0.000630609 -1.79072e-05
0.0260918 0.000375879 -1.55765e-06
0.0259826 0.000219372 3.4359e-06
0.0259242 0.000125176 3.98833e-06
0.0258945 6.96341e-05 3.17984e-06
0.0258804 3.75696e-05 2.19745e-06
0.0258744 1.9476e-05 1.40584e-06
0.0258726 9.52916e-06 8.56372e-07
0.0258726 4.23374e-06 5.03901e-07
0.0258733 1.53341e-06 2.88721e-07
0.0258742 2.42388e-07 1.61819e-07
0.0258751 -3.08838e-07 8.89142e-08
0.0258758 -4.89497e-07 4.7917e-08
0.0258764 -4.97599e-07 2.52921e-08
0.0258769 -4.35553e-07 1.30278e-08
0.0258772 -3.53662e-07 6.50209e-09
0.0258775 -2.74644e-07 3.10227e-09
0.0258777 -2.07173e-07 1.37679e-09
0.0258778 -1.53174e-07 5.31739e-10
0.0258779 -1.11633e-07 1.3956e-10
0.0258779 -8.05014e-08 -2.63034e-11
0.025878 -5.75954e-08 -8.36838e-11
0.025878 -4.09655e-08 -9.25404e-11
0.025878 -2.90139e-08 -8.26665e-11
0.0258781 -2.04941e-08 -6.85639e-11
0.0258781 -1.44648e-08 -5.74052e-11
0.0258781 -1.02346e-08 -5.38865e-11
0.0258781 -7.31045e-09 -5.86973e-11
0.0258781 -5.34884e-09 -6.15178e-11
0.0258781 -4.24217e-09 -6.64958e-11
0.0258781 -4.40479e-09 -1.69343e-11
0.0258781 -6.22947e-09 -3.70243e-10
0.0258781 -9.57922e-09 -3.98918e-09
0.0258781 -1.15982e-08 -7.19901e-09
0.0148 -1.47501e-08 -2.38988e-08
0.0148 -0.00534938 -0.00106328
0.01992 -0.0162376 -0.00273115
0.026148 -0.0274991 -0.00475953
0.0305803 -0.0429337 -0.00526461
0.029067 -0.0263232 -0.000829142
0.0261705 -1.72443e-07 0.00242448
0.0262138 0.00747955 0.00248035
0.0306596 0.0155643 0.00240385
0.0309644 0.0152845 0.00147493
0.0297586 0.0133385 0.000477983
0.0285757 0.0108864 -0.000189212
0.0277721 0.00802794 -0.000410515
0.0274801 0.00540231 -0.000357615
0.0274403 0.00344978 -0.000212725
0.0274762 0.00214074 -9.10087e-05
0.0275243 0.00129936 -2.13537e-05
0.02757 0.000770673 8.2034e-06
0.0276108 0.000445685 1.60248e-05
0.0276452 0.000250706 1.48228e-05
0.027673 0.000136667 1.10986e-05
0.0276941 7.16884e-05 7.48448e-06
0.0277097 3.56821e-05 4.7379e-06
0.0277208 1.63572e-05 2.87378e-06
0.0277285 6.39553e-06 1.68952e-06
0.0277338 1.54652e-06 9.69342e-07
0.0277374 -6.00436e-07 5.44896e-07
0.0277399 -1.37933e-06 3.00684e-07
0.0277415 -1.50833e-06 1.6291e-07
0.0277426 -1.36123e-06 8.65166e-08
0.0277434 -1.12375e-06 4.48523e-08
0.0277439 -8.81739e-07 2.25188e-08
0.0277442 -6.69865e-07 1.07835e-08
0.0277444 -4.97872e-07 4.77079e-09
0.0277446 -3.64336e-07 1.79636e-09
0.0277447 -2.63607e-07 4.02456e-10
0.0277448 -1.89119e-07 -1.91135e-10
0.0277448 -1.34814e-07 -3.95003e-10
0.0277449 -9.56383e-08 -4.20654e-10
0.0277449 -6.76024e-08 -3.73937e-10
0.0277449 -4.76671e-08 -3.05694e-10
0.0277449 -3.35714e-08 -2.38882e-10
0.0277449 -2.36644e-08 -1.82484e-10
0.0277449 -1.67615e-08 -1.37748e-10
0.0277449 -1.20539e-08 -1.01717e-10
0.0277449 -9.08611e-09 -7.58232e-11
0.0277449 -7.59933e-09 -9.98047e-11
0.027745 -7.27158e-09 -1.96891e-10
0.027745 -7.84827e-09 -9.01143e-10
0.027745 -8.9144e-09 -4.68437e-09
0.027745 -9.47924e-09 -7.82692e-09
0.018 -3.08107e-08 -2.63711e-08
0.018 -0.00662934 -0.00189484
0.0202768 -0.0177256 -0.00511721
0.0200464 -0.0231791 -0.00672783
0.015899 -0.0252493 -0.00698492
-2.02759e-08 -0.0131666 -0.00347948
1.56223e-06 4.91686e-07 1.13276e-08
-5.84881e-07 6.14427e-07 0.000470622
0.00724246 0.00494827 0.000974433
0.0151652 0.0112106 0.000850143
0.0185765 0.0118879 0.000437317
0.0201905 0.00994856 -1.71786e-05
0.0219152 0.00713608 -0.000262852
0.0236829 0.00452499 -0.000264225
0.0251605 0.0027338 -0.000157369
0.0262284 0.00162382 -5.34053e-05
0.0269367 0.000947339 7.52807e-06
0.0273882 0.000535939 2.99508e-05
0.0276714 0.000290365 3.10734e-05
0.0278476 0.000148707 2.43765e-05
0.0279564 7.03824e-05 1.67463e-05
0.0280229 2.91292e-05 1.06364e-05
0.0280632 8.67016e-06 6.41321e-06
0.0280875 -6.22326e-07 3.72426e-06
0.0281019 -4.20339e-06 2.10004e-06
0.0281105 -5.04288e-06 1.15457e-06
0.0281156 -4.69264e-06 6.19486e-07
0.0281187 -3.92491e-06 3.23645e-07
0.0281205 -3.09829e-06 1.6356e-07
0.0281216 -2.36036e-06 7.88483e-08
0.0281222 -1.7564e-06 3.51861e-08
0.0281226 -1.28581e-06 1.34559e-08
0.0281228 -9.30313e-07 3.1951e-09
0.028123 -6.67305e-07 -1.22758e-09
0.0281231 -4.75549e-07 -2.78923e-09
0.0281231 -3.37219e-07 -3.0304e-09
0.0281232 -2.38214e-07 -2.72578e-09
0.0281232 -1.6778e-07 -2.24886e-09
0.0281232 -1.17907e-07 -1.76756e-09
0.0281232 -8.27264e-08 -1.34774e-09
0.0281232 -5.79926e-08 -1.00701e-09
0.0281232 -4.06634e-08 -7.41927e-10
0.0281232 -2.85815e-08 -5.41963e-10
0.0281232 -2.0243e-08 -3.97195e-10
0.0281232 -1.46013e-08 -3.01957e-10
0.0281232 -1.08841e-08 -2.71211e-10
0.0281232 -8.49657e-09 -3.63193e-10
0.0281232 -6.95828e-09 -5.58086e-10
0.0281232 -5.98374e-09 -1.37473e-09
0.0281232 -5.27085e-09 -4.97296e-09
0.0281232 -4.91936e-09 -7.86235e-09
0.0196 -4.02311e-08 -4.10309e-08
0.0196 -0.00532314 -0.00273054
0.0191089 -0.0120167 -0.00658597
0.0162034 -0.0145875 -0.00708713
0.0114109 -0.0132556 -0.00660239
0.00224048 -0.00536162 -0.00430498
1.1819e-06 -1.08796e-06 -0.000934245
5.03076e-07 -5.03076e-07 -6.82503e-10
-5.69787e-07 5.99976e-07 0.000139382
0.00490552 0.00373218 0.000287449
0.0111423 0.00828641 0.000229398
0.0139199 0.0076673 -2.88016e-05
0.0172308 0.00471866 -0.000287704
0.0205475 0.0023107 -0.000328806
0.0232854 0.000990841 -0.000234103
0.0252152 0.000392899 -0.000106463
0.0264374 0.000135117 -1.66753e-05
0.0271703 1.99904e-05 2.243e-05
0.0276002 -2.99397e-05 2.95918e-05
0.0278496 -4.66436e-05 2.41077e-05
0.027993 -4.68597e-05 1.63728e-05
0.0280746 -4.0203e-05 1.00841e-05
0.0281205 -3.17973e-05 5.83842e-06
0.0281461 -2.39798e-05 3.23321e-06
0.0281602 -1.75597e-05 1.7258e-06
0.0281679 -1.26211e-05 8.8866e-07
0.0281721 -8.96434e-06 4.38682e-07
0.0281743 -6.31906e-06 2.04002e-07
0.0281754 -4.43307e-06 8.56035e-08
0.028176 -3.10063e-06 2.84089e-08
0.0281762 -2.16461e-06 2.57657e-09
0.0281764 -1.50939e-06 -7.70513e-09
0.0281764 -1.05173e-06 -1.06311e-08
0.0281764 -7.32478e-07 -1.03409e-08
0.0281764 -5.09967e-07 -8.85475e-09
0.0281764 -3.54963e-07 -7.10741e-09
0.0281764 -2.47024e-07 -5.49217e-09
0.0281764 -1.71884e-07 -4.14224e-09
0.0281764 -1.19595e-07 -3.07346e-09
0.0281764 -8.32231e-08 -2.25467e-09
0.0281763 -5.79431e-08 -1.64118e-09
0.0281763 -4.03977e-08 -1.18983e-09
0.0281763 -2.82505e-08 -8.656e-10
0.0281763 -1.98644e-08 -6.45728e-10
0.0281763 -1.40795e-08 -5.17606e-10
0.0281763 -1.0064e-08 -4.80124e-10
0.0281763 -7.19996e-09 -5.72578e-10
0.0281763 -4.9683e-09 -7.57671e-10
0.0281763 -2.96051e-09 -1.55658e-09
0.0281763 -8.80232e-10 -5.00606e-09
0.0281763 2.12731e-10 -7.75412e-09
0.0196 -1.97964e-08 -5.50043e-08
0.0196 -0.0032536 -0.00307441
0.0190127 -0.00688172 -0.00664724
0.0177406 -0.00651594 -0.00662489
0.0139637 -0.00282955 -0.00572361
0.0101112 0.00340085 -0.00444544
0.00648559 0.00334261 -0.00217705
1.18259e-06 -9.93326e-07 -0.000403221
4.23539e-07 -4.23539e-07 -2.01539e-09
-5.52724e-07 5.8685e-07 3.92381e-05
0.003722 0.00284074 0.000338575
0.0083407 0.00393397 0.000378043
0.0138065 0.000702035 -4.44208e-05
0.018756 -0.00132414 -0.000332464
0.0225807 -0.00178938 -0.000374396
0.0250946 -0.00146008 -0.000245254
0.0265392 -0.000992768 -0.000103309
0.0273101 -0.000635644 -2.27694e-05
0.0277109 -0.00040294 6.22431e-06
0.0279176 -0.000255853 1.1112e-05
0.0280234 -0.000162565 8.6602e-06
0.0280768 -0.000103236 5.39241e-06
0.0281033 -6.55854e-05 2.99364e-06
0.028116 -4.17714e-05 1.53255e-06
0.0281217 -2.67303e-05 7.25118e-07
0.0281241 -1.72161e-05 3.08037e-07
0.0281249 -1.11724e-05 1.05535e-07
0.028125 -7.30865e-06 1.44519e-08
0.0281248 -4.81938e-06 -2.16042e-08
0.0281245 -3.20201e-06 -3.19958e-08
0.0281242 -2.14213e-06 -3.13928e-08
0.028124 -1.44183e-06 -2.68062e-08
0.0281238 -9.75589e-07 -2.13897e-08
0.0281236 -6.63057e-07 -1.64225e-08
0.0281235 -4.52312e-07 -1.23121e-08
0.0281234 -3.09484e-07 -9.08877e-09
0.0281234 -2.12276e-07 -6.63981e-09
0.0281233 -1.4589e-07 -4.81615e-09
0.0281233 -1.0043e-07 -3.47613e-09
0.0281233 -6.9237e-08 -2.50093e-09
0.0281233 -4.78024e-08 -1.79722e-09
0.0281232 -3.30571e-08 -1.29524e-09
0.0281232 -2.28985e-08 -9.45163e-10
0.0281232 -1.58739e-08 -7.13308e-10
0.0281232 -1.09655e-08 -5.76846e-10
0.0281232 -7.44003e-09 -5.28582e-10
0.0281232 -4.73937e-09 -6.09962e-10
0.0281232 -2.34495e-09 -7.76886e-10
0.0281232 2.97844e-10 -1.51262e-09
0.0281232 3.53076e-09 -4.87151e-09
0.0281232 5.30921e-09 -7.57872e-09
0.018 -1.24504e-08 -5.39833e-08
0.018 -0.00160743 -0.00301584
0.0184909 -0.00276134 -0.00631054
0.0188611 -0.00118237 -0.00586256
0.0182899 0.00188166 -0.00465486
0.0182401 0.00763966 -0.00358451
0.0187907 0.012704 -0.00214124
0.011597 0.00697442 -0.000953226
1.20995e-06 -7.76705e-07 -0.000309442
-4.44779e-07 -8.92742e-07 8.41133e-09
1.21926e-07 -0.000187353 0.00085084
0.00938572 -0.00253307 0.00136191
0.0170965 -0.00557046 0.000675175
0.0219764 -0.0061939 5.12699e-05
0.024887 -0.00508756 -0.000302381
0.0265127 -0.00340185 -0.000322861
0.0273098 -0.00200935 -0.000198588
0.0276462 -0.00113285 -9.13493e-05
0.0277661 -0.000638272 -3.53242e-05
0.027797 -0.000364258 -1.23556e-05
0.027796 -0.000210442 -4.16365e-06
0.0277861 -0.00012283 -1.47891e-06
0.0277756 -7.24114e-05 -6.33925e-07
0.0277669 -4.31524e-05 -3.56899e-07
0.0277604 -2.60233e-05 -2.45077e-07
0.0277558 -1.58935e-05 -1.81499e-07
0.0277525 -9.83379e-06 -1.3553e-07
0.0277502 -6.16335e-06 -9.98748e-08
0.0277486 -3.91102e-06 -7.24408e-08
0.0277475 -2.51068e-06 -5.18722e-08
0.0277467 -1.62885e-06 -3.68182e-08
0.0277462 -1.06676e-06 -2.59964e-08
0.0277458 -7.04423e-07 -1.83094e-08
0.0277455 -4.68461e-07 -1.28881e-08
0.0277454 -3.13404e-07 -9.07836e-09
0.0277452 -2.10713e-07 -6.40398e-09
0.0277452 -1.42247e-07 -4.52573e-09
0.0277451 -9.63467e-08 -3.2048e-09
0.027745 -6.54337e-08 -2.2744e-09
0.027745 -4.45371e-08 -1.61855e-09
0.027745 -3.03663e-08 -1.15706e-09
0.027745 -2.0724e-08 -8.34847e-10
0.027745 -1.41289e-08 -6.1492e-10
0.027745 -9.568e-09 -4.74094e-10
0.027745 -6.33067e-09 -3.97314e-10
0.027745 -3.89294e-09 -3.81678e-10
0.027745 -1.83761e-09 -4.73486e-10
0.027745 2.75081e-10 -6.22574e-10
0.027745 3.17177e-09 -1.23109e-09
0.027745 7.344e-09 -4.48956e-09
0.027745 9.75269e-09 -7.20517e-09
0.0148 -7.39122e-09 -4.69514e-08
0.0148 -0.000700938 -0.00281109
0.0165061 -0.000694974 -0.00564828
0.0186579 0.00122561 -0.00490274
0.020681 0.00417213 -0.00362321
0.0227877 0.00760731 -0.00284463
0.026363 0.0127095 -0.00198936
0.0294728 0.0198614 -0.00108429
0.0239796 0.0118067 -0.000137689
0.0243688 1.42329e-14 0.00056992
0.0279797 -0.0069697 0.00151119
0.0326799 -0.013793 0.0023605
0.0338369 -0.0120921 0.00202241
0.0324165 -0.00898052 0.00108229
0.0302461 -0.00605005 7.38747e-05
0.0284873 -0.00364678 -0.000375625
0.0273731 -0.00199039 -0.00035087
0.0267303 -0.00103165 -0.000202954
0.0263676 -0.000531558 -9.56132e-05
0.0261625 -0.000278729 -4.09367e-05
0.0260454 -0.000149717 -1.67996e-05
0.0259779 -8.23523e-05 -6.79686e-06
0.0259385 -4.62917e-05 -2.75831e-06
0.0259152 -2.65345e-05 -1.13637e-06
0.0259012 -1.54801e-05 -4.78888e-07
0.0258927 -9.17717e-06 -2.06717e-07
0.0258875 -5.52157e-06 -9.07013e-08
0.0258842 -3.36792e-06 -3.96548e-08
0.0258821 -2.08053e-06 -1.66086e-08
0.0258807 -1.30037e-06 -6.10261e-09
0.0258799 -8.21464e-07 -1.40195e-09
0.0258793 -5.23921e-07 5.59831e-10
0.0258789 -3.36983e-07 1.23445e-09
0.0258786 -2.18332e-07 1.32683e-09
0.0258785 -1.42335e-07 1.18109e-09
0.0258784 -9.32661e-08 9.61806e-10
0.0258783 -6.13665e-08 7.43114e-10
0.0258782 -4.05084e-08 5.54086e-10
0.0258782 -2.68046e-08 4.02092e-10
0.0258782 -1.7764e-08 2.84769e-10
0.0258781 -1.17751e-08 1.95932e-10
0.0258781 -7.78387e-09 1.28264e-10
0.0258781 -5.09134e-09 7.41769e-11
0.0258781 -3.2227e-09 2.54548e-11
0.0258781 -1.84042e-09 -2.49394e-11
0.0258781 -6.76886e-10 -8.6685e-11
0.0258781 5.14688e-10 -2.04681e-10
0.0258781 2.02564e-09 -3.40254e-10
0.0258781 4.63788e-09 -8.09873e-10
0.0258781 9.02375e-09 -3.84491e-09
0.0258781 1.16749e-08 -6.46339e-09
0.01 -1.43633e-08 -4.18959e-08
0.01 -0.000432424 -0.00234348
0.0117701 -0.000186028 -0.0044315