# vtk DataFile Version 2.0
Tobias Weinzierl: CPU, Manycore and Cluster Computing
ASCII

DATASET STRUCTURED_POINTS
DIMENSIONS  51 11 6

ORIGIN 0 0 0 

SPACING 0.1 0.1 0.1 

POINT_DATA 3366

VECTORS velocity float
0 0 0
4.19047e-15 0 0
-1.47127e-09 0 0
-3.71262e-09 0 0
-4.93929e-09 0 0
-1.63387e-09 0 0
-3.15238e-10 0 0
1.49413e-10 0 0
-1.47239e-10 0 0
-1.1083e-09 0 0
-2.02643e-09 0 0
-2.50065e-09 0 0
-2.58646e-09 0 0
-2.50037e-09 0 0
-2.40165e-09 0 0
-2.35145e-09 0 0
-2.34723e-09 0 0
-2.36724e-09 0 0
-2.39361e-09 0 0
-2.41711e-09 0 0
-2.4347e-09 0 0
-2.4465e-09 0 0
-2.45374e-09 0 0
-2.45782e-09 0 0
-2.45986e-09 0 0
-2.46071e-09 0 0
-2.46089e-09 0 0
-2.46074e-09 0 0
-2.46046e-09 0 0
-2.46014e-09 0 0
-2.45985e-09 0 0
-2.4596e-09 0 0
-2.4594e-09 0 0
-2.45923e-09 0 0
-2.45911e-09 0 0
-2.45901e-09 0 0
-2.45894e-09 0 0
-2.45889e-09 0 0
-2.45885e-09 0 0
-2.45882e-09 0 0
-2.4588e-09 0 0
-2.45878e-09 0 0
-2.45877e-09 0 0
-2.45876e-09 0 0
-2.45875e-09 0 0
-2.45875e-09 0 0
-2.45875e-09 0 0
-2.45874e-09 0 0
-2.45874e-09 0 0
-2.45875e-09 0 0
0.00254638 0 0
0 6.97306e-09 0
1.95059e-14 6.39556e-10 0
-2.60442e-09 1.38144e-09 0
-6.96147e-09 1.39875e-09 0
-8.6622e-09 9.74335e-10 0
-3.27735e-09 1.20994e-09 0
-1.53379e-09 1.84377e-09 0
-8.25626e-10 1.63811e-09 0
-6.0306e-10 1.44356e-09 0
-1.68048e-09 1.42925e-09 0
-3.11303e-09 1.09135e-09 0
-4.00276e-09 5.84102e-10 0
-4.28274e-09 1.80888e-10 0
-4.2872e-09 -1.39407e-11 0
-4.28939e-09 -4.86822e-11 0
-4.37488e-09 -1.73506e-11 0
-4.51433e-09 1.60303e-11 0
-4.65927e-09 3.17558e-11 0
-4.78094e-09 3.28596e-11 0
-4.87091e-09 2.68591e-11 0
-4.93189e-09 1.91137e-11 0
-4.97053e-09 1.22354e-11 0
-4.99358e-09 7.06275e-12 0
-5.0065e-09 3.56724e-12 0
-5.0132e-09 1.40332e-12 0
-5.01628e-09 1.79048e-13 0
-5.01738e-09 -4.36171e-13 0
-5.01747e-09 -6.85133e-13 0
-5.01711e-09 -7.30949e-13 0
-5.01658e-09 -6.7574e-13 0
-5.01605e-09 -5.79344e-13 0
-5.01557e-09 -4.74311e-13 0
-5.01518e-09 -3.76609e-13 0
-5.01486e-09 -2.92718e-13 0
-5.01461e-09 -2.24049e-13 0
-5.01442e-09 -1.6957e-13 0
-5.01428e-09 -1.27265e-13 0
-5.01417e-09 -9.49111e-14 0
-5.01409e-09 -7.04367e-14 0
-5.01404e-09 -5.20685e-14 0
-5.01399e-09 -3.83608e-14 0
-5.01396e-09 -2.8168e-14 0
-5.01394e-09 -2.06025e-14 0
-5.01392e-09 -1.49872e-14 0
-5.01391e-09 -1.0804e-14 0
-5.0139e-09 -7.64588e-15 0
-5.01389e-09 -5.21544e-15 0
-5.01389e-09 -3.24294e-15 0
-5.01389e-09 -4.26545e-16 0
-5.0139e-09 6.47067e-15 0
0.00692644 -2.82564e-09 0
0 2.91719e-10 0
3.66572e-14 7.27527e-10 0
-1.24456e-09 6.8021e-10 0
-4.78396e-09 -1.15541e-09 0
-4.7396e-09 -1.56819e-09 0
-9.77854e-10 8.49749e-10 0
-1.947e-09 2.77792e-09 0
-2.23124e-09 1.76788e-09 0
-1.73485e-09 3.37789e-10 0
-1.81228e-09 8.77782e-11 0
-2.67019e-09 2.63526e-10 0
-3.29016e-09 6.41056e-10 0
-3.49355e-09 9.30756e-10 0
-3.46583e-09 9.54403e-10 0
-3.45986e-09 8.09933e-10 0
-3.56793e-09 6.2817e-10 0
-3.74545e-09 4.62e-10 0
-3.92599e-09 3.24918e-10 0
-4.07268e-09 2.18957e-10 0
-4.177e-09 1.41531e-10 0
-4.24472e-09 8.77103e-11 0
-4.28568e-09 5.19437e-11 0
-4.3089e-09 2.91586e-11 0
-4.32116e-09 1.52408e-11 0
-4.32706e-09 7.11324e-12 0
-4.32945e-09 2.6116e-12 0
-4.33005e-09 2.88688e-13 0
-4.32981e-09 -7.81623e-13 0
-4.32925e-09 -1.16841e-12 0
-4.32861e-09 -1.20764e-12 0
-4.32803e-09 -1.08935e-12 0
-4.32754e-09 -9.15621e-13 0
-4.32714e-09 -7.37531e-13 0
-4.32683e-09 -5.77785e-13 0
-4.32659e-09 -4.4408e-13 0
-4.32641e-09 -3.36733e-13 0
-4.32628e-09 -2.52848e-13 0
-4.32618e-09 -1.88496e-13 0
-4.3261e-09 -1.3976e-13 0
-4.32605e-09 -1.03184e-13 0
-4.32601e-09 -7.59054e-14 0
-4.32598e-09 -5.56392e-14 0
-4.32596e-09 -4.06043e-14 0
-4.32595e-09 -2.94286e-14 0
-4.32593e-09 -2.10628e-14 0
-4.32593e-09 -1.46494e-14 0
-4.32592e-09 -9.24958e-15 0
-4.32592e-09 -3.75175e-15 0
-4.32592e-09 2.15144e-15 0
-4.32592e-09 8.11363e-15 0
0.00923559 -4.00168e-09 0
0 -9.3311e-09 0
4.20894e-14 9.24914e-11 0
1.18776e-11 -1.19606e-09 0
-3.07053e-09 -4.1776e-09 0
-3.11314e-09 -5.12049e-09 0
6.65625e-10 -2.23148e-09 0
-7.28464e-10 -3.20702e-14 0
-1.2562e-09 -9.05295e-10 0
-2.91471e-09 -2.34426e-09 0
-3.31746e-09 -2.47201e-09 0
-3.9089e-09 -1.34115e-09 0
-4.32729e-09 1.37739e-10 0
-4.31571e-09 1.18358e-09 0
-3.94412e-09 1.42744e-09 0
-3.51477e-09 1.23663e-09 0
-3.24364e-09 9.50976e-10 0
-3.14267e-09 6.86633e-10 0
-3.13709e-09 4.70018e-10 0
-3.16285e-09 3.05651e-10 0
-3.1887e-09 1.8911e-10 0
-3.20554e-09 1.1122e-10 0
-3.21377e-09 6.17836e-11 0
-3.2163e-09 3.18736e-11 0
-3.21578e-09 1.46355e-11 0
-3.21398e-09 5.23687e-12 0
-3.21186e-09 4.75952e-13 0
-3.20991e-09 -1.66538e-12 0
-3.20828e-09 -2.40507e-12 0
-3.20699e-09 -2.44824e-12 0
-3.20601e-09 -2.18552e-12 0
-3.20528e-09 -1.82208e-12 0
-3.20475e-09 -1.4579e-12 0
-3.20436e-09 -1.13572e-12 0
-3.20407e-09 -8.68714e-13 0
-3.20387e-09 -6.55997e-13 0
-3.20372e-09 -4.90818e-13 0
-3.20361e-09 -3.64772e-13 0
-3.20353e-09 -2.69754e-13 0
-3.20348e-09 -1.98739e-13 0
-3.20344e-09 -1.45982e-13 0
-3.20341e-09 -1.06941e-13 0
-3.20339e-09 -7.81079e-14 0
-3.20337e-09 -5.68081e-14 0
-3.20336e-09 -4.1e-14 0
-3.20335e-09 -2.90942e-14 0
-3.20335e-09 -1.98698e-14 0
-3.20334e-09 -1.25387e-14 0
-3.20334e-09 -6.60736e-15 0
-3.20334e-09 -1.38145e-15 0
-3.20334e-09 3.90931e-15 0
0.00980316 -3.06632e-09 0
0 -1.80221e-08 0
2.23542e-14 -7.92239e-10 0
-2.42576e-10 -2.53912e-09 0
-3.45152e-09 -3.8182e-09 0
-4.7835e-09 -3.14711e-09 0
-1.90428e-14 -1.07582e-09 0
-1.69287e-13 -1.94028e-13 0
1.63752e-13 -1.84314e-13 0
-1.63568e-09 -1.64735e-09 0
-4.11193e-09 -3.09076e-09 0
-4.6536e-09 -1.88871e-09 0
-5.00674e-09 -2.38181e-11 0
-5.1597e-09 1.09513e-09 0
-4.83032e-09 1.24016e-09 0
-4.20579e-09 9.89795e-10 0
-3.63768e-09 7.32309e-10 0
-3.27033e-09 5.23419e-10 0
-3.06926e-09 3.52182e-10 0
-2.96271e-09 2.1903e-10 0
-2.90227e-09 1.24774e-10 0
-2.86437e-09 6.39721e-11 0
-2.83891e-09 2.79203e-11 0
-2.82136e-09 8.2647e-12 0
-2.80928e-09 -1.41214e-12 0
-2.80108e-09 -5.44783e-12 0
-2.7956e-09 -6.53e-12 0
-2.79197e-09 -6.21375e-12 0
-2.7896e-09 -5.34338e-12 0
-2.78805e-09 -4.34553e-12 0
-2.78704e-09 -3.41473e-12 0
-2.78638e-09 -2.62364e-12 0
-2.78594e-09 -1.98522e-12 0
-2.78565e-09 -1.48623e-12 0
-2.78546e-09 -1.10432e-12 0
-2.78532e-09 -8.16155e-13 0
-2.78523e-09 -6.00874e-13 0
-2.78517e-09 -4.41158e-13 0
-2.78513e-09 -3.23244e-13 0
-2.7851e-09 -2.36482e-13 0
-2.78508e-09 -1.7278e-13 0
-2.78506e-09 -1.26058e-13 0
-2.78505e-09 -9.1783e-14 0
-2.78504e-09 -6.65893e-14 0
-2.78504e-09 -4.79975e-14 0
-2.78503e-09 -3.4208e-14 0
-2.78503e-09 -2.3909e-14 0
-2.78503e-09 -1.60891e-14 0
-2.78503e-09 -9.91947e-15 0
-2.78503e-09 -4.60164e-15 0
-2.78503e-09 5.6755e-16 0
0.0099091 -1.4074e-09 0
0 -1.60941e-08 0
7.29457e-15 -9.92741e-10 0
-7.21989e-10 -2.27716e-09 0
-3.78198e-09 -3.08992e-09 0
-5.87661e-09 -3.41902e-09 0
-2.2468e-09 -1.61353e-09 0
-1.63722e-13 1.59598e-13 0
4.15177e-15 -4.15177e-15 0
1.50049e-13 -1.77445e-13 0
-2.03457e-09 -1.38935e-09 0
-3.84503e-09 -1.87686e-09 0
-4.21957e-09 1.56107e-10 0
-5.09336e-09 1.45508e-09 0
-5.45244e-09 1.31833e-09 0
-4.96453e-09 7.69744e-10 0
-4.18555e-09 4.02308e-10 0
-3.5731e-09 2.10767e-10 0
-3.20093e-09 9.91556e-11 0
-2.99255e-09 2.94062e-11 0
-2.87501e-09 -9.91698e-12 0
-2.80641e-09 -2.7478e-11 0
-2.7654e-09 -3.18135e-11 0
-2.74068e-09 -2.95164e-11 0
-2.72584e-09 -2.46962e-11 0
-2.71701e-09 -1.95081e-11 0
-2.71182e-09 -1.4889e-11 0
-2.7088e-09 -1.11262e-11 0
-2.70707e-09 -8.20703e-12 0
-2.70609e-09 -6.00635e-12 0
-2.70554e-09 -4.37566e-12 0
-2.70524e-09 -3.17974e-12 0
-2.70508e-09 -2.30796e-12 0
-2.70499e-09 -1.6746e-12 0
-2.70495e-09 -1.21521e-12 0
-2.70493e-09 -8.82204e-13 0
-2.70492e-09 -6.40807e-13 0
-2.70491e-09 -4.6574e-13 0
-2.70491e-09 -3.3869e-13 0
-2.70491e-09 -2.46407e-13 0
-2.70491e-09 -1.79307e-13 0
-2.70491e-09 -1.30453e-13 0
-2.70491e-09 -9.48263e-14 0
-2.70492e-09 -6.87904e-14 0
-2.70492e-09 -4.97031e-14 0
-2.70492e-09 -3.56325e-14 0
-2.70492e-09 -2.51688e-14 0
-2.70492e-09 -1.73023e-14 0
-2.70492e-09 -1.12772e-14 0
-2.70492e-09 -6.35457e-15 0
-2.70492e-09 -1.80233e-15 0
0.00992296 3.55412e-10 0
0 -1.1362e-08 0
9.63104e-15 -9.38859e-10 0
-7.77881e-10 -2.20569e-09 0
-3.72618e-09 -2.32514e-09 0
-6.19246e-09 -1.84901e-09 0
-5.00462e-09 -1.21314e-09 0
-1.46427e-09 -4.22441e-10 0
-1.61951e-13 1.57238e-13 0
-7.18969e-15 7.18969e-15 0
1.30136e-13 -1.69954e-13 0
-1.51675e-09 -3.05307e-10 0
-2.03789e-09 1.03404e-09 0
-3.91879e-09 2.66466e-09 0
-5.61953e-09 1.88293e-09 0
-5.6523e-09 6.25638e-10 0
-4.71262e-09 -2.2283e-11 0
-3.83143e-09 -2.07507e-10 0
-3.30061e-09 -2.25327e-10 0
-3.03073e-09 -1.97636e-10 0
-2.90054e-09 -1.58594e-10 0
-2.83804e-09 -1.19845e-10 0
-2.808e-09 -8.67368e-11 0
-2.79373e-09 -6.09991e-11 0
-2.78716e-09 -4.21819e-11 0
-2.78436e-09 -2.89401e-11 0
-2.78335e-09 -1.98242e-11 0
-2.78316e-09 -1.36148e-11 0
-2.78332e-09 -9.39772e-12 0
-2.7836e-09 -6.5278e-12 0
-2.78388e-09 -4.56469e-12 0
-2.78413e-09 -3.2128e-12 0
-2.78435e-09 -2.27495e-12 0
-2.78451e-09 -1.61957e-12 0
-2.78464e-09 -1.15842e-12 0
-2.78474e-09 -8.31904e-13 0
-2.78482e-09 -5.99443e-13 0
-2.78487e-09 -4.33153e-13 0
-2.78491e-09 -3.13707e-13 0
-2.78494e-09 -2.27606e-13 0
-2.78496e-09 -1.65348e-13 0
-2.78498e-09 -1.20203e-13 0
-2.78499e-09 -8.73778e-14 0
-2.785e-09 -6.34365e-14 0
-2.78501e-09 -4.5908e-14 0
-2.78501e-09 -3.3009e-14 0
-2.78501e-09 -2.34591e-14 0
-2.78502e-09 -1.63676e-14 0
-2.78502e-09 -1.11421e-14 0
-2.78502e-09 -7.2541e-15 0
-2.78502e-09 -3.9813e-15 0
0.0099091 2.05979e-09 0
0 -8.08052e-09 0
1.02997e-14 -8.92022e-10 0
-9.79745e-10 -1.9652e-09 0
-3.83297e-09 -1.8266e-09 0
-5.96857e-09 -9.64936e-10 0
-5.39654e-09 -4.05015e-10 0
-3.43933e-09 -8.67094e-10 0
-1.73663e-09 -6.7359e-10 0
-1.70139e-13 1.44328e-13 0
1.20236e-13 1.48622e-13 0
-1.43515e-14 7.74113e-11 0
-4.56042e-10 2.3146e-09 0
-1.54182e-09 4.31676e-09 0
-3.80623e-09 2.74743e-09 0
-5.00261e-09 5.19512e-10 0
-4.68795e-09 -4.69479e-10 0
-3.97273e-09 -6.00233e-10 0
-3.48574e-09 -4.85228e-10 0
-3.25985e-09 -3.49229e-10 0
-3.17989e-09 -2.38798e-10 0
-3.16185e-09 -1.58151e-10 0
-3.16514e-09 -1.02743e-10 0
-3.17357e-09 -6.62072e-11 0
-3.18163e-09 -4.26964e-11 0
-3.18795e-09 -2.77268e-11 0
-3.19254e-09 -1.81993e-11 0
-3.19578e-09 -1.20961e-11 0
-3.19803e-09 -8.14437e-12 0
-3.19959e-09 -5.55258e-12 0
-3.20068e-09 -3.82938e-12 0
-3.20144e-09 -2.66819e-12 0
-3.20198e-09 -1.87578e-12 0
-3.20236e-09 -1.3288e-12 0
-3.20263e-09 -9.47378e-13 0
-3.20283e-09 -6.79057e-13 0
-3.20297e-09 -4.88875e-13 0
-3.20307e-09 -3.53216e-13 0
-3.20314e-09 -2.55933e-13 0
-3.20319e-09 -1.85855e-13 0
-3.20323e-09 -1.35183e-13 0
-3.20326e-09 -9.84191e-14 0
-3.20328e-09 -7.16626e-14 0
-3.20329e-09 -5.21281e-14 0
-3.2033e-09 -3.78192e-14 0
-3.20331e-09 -2.73029e-14 0
-3.20331e-09 -1.95503e-14 0
-3.20332e-09 -1.38574e-14 0
-3.20332e-09 -9.88508e-15 0
-3.20332e-09 -7.59707e-15 0
-3.20332e-09 -6.56213e-15 0
0.00980316 3.5146e-09 0
0 -7.20533e-09 0
1.22601e-14 -7.42467e-10 0
-1.44974e-09 -1.64469e-09 0
-4.30825e-09 -1.47011e-09 0
-6.16469e-09 -6.81497e-10 0
-5.79692e-09 -2.29782e-11 0
-4.23779e-09 -3.56991e-10 0
-3.39576e-09 -1.81236e-09 0
-1.8549e-09 -1.36474e-09 0
-2.6672e-09 -1.29163e-17 0
-4.91655e-09 7.49592e-10 0
-4.73274e-09 2.62421e-09 0
-1.85057e-09 3.80141e-09 0
-1.71749e-09 2.72618e-09 0
-3.55865e-09 7.57666e-10 0
-4.44543e-09 -3.29106e-10 0
-4.39807e-09 -5.43041e-10 0
-4.2272e-09 -4.28168e-10 0
-4.16754e-09 -2.79426e-10 0
-4.1813e-09 -1.71842e-10 0
-4.21642e-09 -1.04583e-10 0
-4.24949e-09 -6.43065e-11 0
-4.27443e-09 -4.02991e-11 0
-4.29165e-09 -2.58025e-11 0
-4.3031e-09 -1.68654e-11 0
-4.31062e-09 -1.12287e-11 0
-4.31555e-09 -7.59578e-12 0
-4.31882e-09 -5.20851e-12 0
-4.321e-09 -3.61311e-12 0
-4.32248e-09 -2.53121e-12 0
-4.32349e-09 -1.78814e-12 0
-4.32419e-09 -1.27215e-12 0
-4.32468e-09 -9.10423e-13 0
-4.32502e-09 -6.54758e-13 0
-4.32527e-09 -4.72801e-13 0
-4.32544e-09 -3.42543e-13 0
-4.32557e-09 -2.48836e-13 0
-4.32566e-09 -1.81146e-13 0
-4.32573e-09 -1.32081e-13 0
-4.32577e-09 -9.6411e-14 0
-4.32581e-09 -7.04122e-14 0
-4.32583e-09 -5.14171e-14 0
-4.32585e-09 -3.7507e-14 0
-4.32587e-09 -2.72991e-14 0
-4.32588e-09 -1.98029e-14 0
-4.32588e-09 -1.43135e-14 0
-4.32589e-09 -1.03447e-14 0
-4.32589e-09 -7.7744e-15 0
-4.32589e-09 -7.27783e-15 0
-4.3259e-09 -9.35866e-15 0
0.00923559 4.06024e-09 0
0 -7.6573e-09 0
1.28046e-14 -4.10528e-10 0
-1.85908e-09 -9.23332e-10 0
-4.47552e-09 -7.99512e-10 0
-5.97029e-09 -4.08523e-10 0
-6.07506e-09 -3.88727e-10 0
-5.15151e-09 -8.52548e-10 0
-4.56558e-09 -1.66398e-09 0
-5.0336e-09 -6.81514e-10 0
-4.9833e-09 2.249e-09 0
-5.75536e-09 3.24973e-09 0
-4.64447e-09 1.10939e-09 0
-2.32431e-09 -1.30405e-09 0
-2.37909e-09 -1.7393e-09 0
-4.24288e-09 -8.78108e-10 0
-5.24939e-09 -1.44625e-11 0
-5.26499e-09 3.01444e-10 0
-5.07293e-09 2.59525e-10 0
-4.96335e-09 1.43282e-10 0
-4.93346e-09 6.07181e-11 0
-4.93952e-09 1.85553e-11 0
-4.95559e-09 9.61333e-13 0
-4.97126e-09 -4.85081e-12 0
-4.98367e-09 -5.82847e-12 0
-4.99271e-09 -5.14467e-12 0
-4.99907e-09 -4.08134e-12 0
-5.00349e-09 -3.08882e-12 0
-5.00655e-09 -2.28612e-12 0
-5.00868e-09 -1.67432e-12 0
-5.01017e-09 -1.2206e-12 0
-5.01122e-09 -8.88389e-13 0
-5.01196e-09 -6.46509e-13 0
-5.01249e-09 -4.70751e-13 0
-5.01287e-09 -3.43066e-13 0
-5.01315e-09 -2.50242e-13 0
-5.01334e-09 -1.8269e-13 0
-5.01349e-09 -1.33473e-13 0
-5.01359e-09 -9.75721e-14 0
-5.01367e-09 -7.1356e-14 0
-5.01372e-09 -5.21911e-14 0
-5.01376e-09 -3.81664e-14 0
-5.01379e-09 -2.78923e-14 0
-5.01381e-09 -2.0358e-14 0
-5.01383e-09 -1.48297e-14 0
-5.01384e-09 -1.07796e-14 0
-5.01385e-09 -7.84057e-15 0
-5.01385e-09 -5.76626e-15 0
-5.01386e-09 -4.52874e-15 0
-5.01386e-09 -4.94477e-15 0
-5.01387e-09 -8.36604e-15 0
0.00692644 2.53603e-09 0
0 0 0
6.90124e-15 0 0
-9.67341e-10 0 0
-2.13994e-09 0 0
-2.77128e-09 0 0
-2.91684e-09 0 0
-2.88879e-09 0 0
-2.90645e-09 0 0
-3.17871e-09 0 0
-2.31611e-09 0 0
-8.38823e-10 0 0
-8.1945e-11 0 0
-5.48868e-10 0 0
-1.73554e-09 0 0
-2.73594e-09 0 0
-3.02631e-09 0 0
-2.87531e-09 0 0
-2.66566e-09 0 0
-2.53228e-09 0 0
-2.46976e-09 0 0
-2.44695e-09 0 0
-2.44185e-09 0 0
-2.44325e-09 0 0
-2.44634e-09 0 0
-2.44937e-09 0 0
-2.45185e-09 0 0
-2.45373e-09 0 0
-2.45511e-09 0 0
-2.45611e-09 0 0
-2.45684e-09 0 0
-2.45736e-09 0 0
-2.45774e-09 0 0
-2.45801e-09 0 0
-2.45821e-09 0 0
-2.45835e-09 0 0
-2.45845e-09 0 0
-2.45853e-09 0 0
-2.45859e-09 0 0
-2.45863e-09 0 0
-2.45865e-09 0 0
-2.45868e-09 0 0
-2.45869e-09 0 0
-2.4587e-09 0 0
-2.45871e-09 0 0
-2.45872e-09 0 0
-2.45872e-09 0 0
-2.45873e-09 0 0
-2.45873e-09 0 0
-2.45873e-09 0 0
-2.45873e-09 0 0
0.00254638 0 0
0 0 8.51285e-09
2.82549e-14 0 8.31712e-10
-2.55845e-09 0 2.33118e-09
-7.75624e-09 0 2.06928e-09
-1.3581e-08 0 -3.05308e-09
-4.01952e-09 0 -5.83399e-09
3.47127e-10 0 -3.62706e-09
2.3333e-09 0 -1.80611e-09
2.42627e-09 0 -1.85839e-10
9.43224e-10 0 4.49935e-10
-9.43362e-10 0 3.00988e-10
-2.42053e-09 0 -2.40729e-11
-3.3248e-09 0 -1.81165e-10
-3.82112e-09 0 -1.70863e-10
-4.11167e-09 0 -1.00238e-10
-4.33222e-09 0 -3.70691e-11
-4.52776e-09 0 -2.45558e-13
-4.69595e-09 0 1.46207e-11
-4.82844e-09 0 1.70118e-11
-4.92443e-09 0 1.42304e-11
-4.98932e-09 0 1.02751e-11
-5.0307e-09 0 6.80691e-12
-5.05572e-09 0 4.25822e-12
-5.07001e-09 0 2.55614e-12
-5.07766e-09 0 1.48669e-12
-5.08136e-09 0 8.42922e-13
-5.08285e-09 0 4.67724e-13
-5.08318e-09 0 2.54657e-13
-5.08296e-09 0 1.36304e-13
-5.08252e-09 0 7.18519e-14
-5.08203e-09 0 3.73989e-14
-5.08157e-09 0 1.93108e-14
-5.08118e-09 0 9.97931e-15
-5.08087e-09 0 5.24426e-15
-5.08062e-09 0 2.87374e-15
-5.08043e-09 0 1.69365e-15
-5.08028e-09 0 1.09974e-15
-5.08017e-09 0 7.87327e-16
-5.08009e-09 0 6.08133e-16
-5.08003e-09 0 4.93285e-16
-5.07999e-09 0 4.11711e-16
-5.07995e-09 0 3.50753e-16
-5.07993e-09 0 3.08332e-16
-5.07991e-09 0 2.86446e-16
-5.0799e-09 0 2.95433e-16
-5.07989e-09 0 3.58502e-16
-5.07988e-09 0 4.49608e-16
-5.07988e-09 0 4.94491e-16
-5.07988e-09 0 1.43634e-15
-5.07989e-09 0 6.48497e-15
0.00691408 0 -2.09188e-09
0.0036 -8.59271e-10 1.55359e-09
0.0036 -0.0013975 -0.000124472
0.00710243 -0.00444768 -0.00076295
0.0147096 -0.00790632 -0.0025182
0.0261736 -0.013724 -0.0051286
0.0463603 -0.0102968 -0.00421796
0.0490481 -0.000650028 -0.00102589
0.0484797 0.00331308 0.000426453
0.0432068 0.00530171 0.00085781
0.0375659 0.0051296 0.000443503
0.0325568 0.0041575 -7.82964e-05
0.0284183 0.00305605 -0.000354957
0.0252645 0.00209537 -0.000374619
0.0230511 0.00137196 -0.00026774
0.0215845 0.000880294 -0.000150461
0.0206444 0.000561 -6.99024e-05
0.020056 0.00035443 -2.66462e-05
0.0196958 0.000220653 -7.26705e-06
0.0194802 0.000134845 -7.82499e-08
0.019354 8.07766e-05 1.83044e-06
0.0192819 4.741e-05 1.82592e-06
0.0192416 2.72469e-05 1.32474e-06
0.0192198 1.53101e-05 8.30073e-07
0.0192084 8.38584e-06 4.69996e-07
0.0192028 4.45276e-06 2.41611e-07
0.0192002 2.26932e-06 1.09269e-07
0.0191992 1.08902e-06 3.83547e-08
0.0191989 4.71876e-07 3.60076e-09
0.019199 1.63562e-07 -1.12481e-08
0.0191992 1.99315e-08 -1.58686e-08
0.0191994 -3.89989e-08 -1.56872e-08
0.0191996 -5.65465e-08 -1.35797e-08
0.0191998 -5.54846e-08 -1.09719e-08
0.0191999 -4.73192e-08 -8.50508e-09
0.0192 -3.75314e-08 -6.41724e-09
0.0192001 -2.84815e-08 -4.7532e-09
0.0192001 -2.0984e-08 -3.47483e-09
0.0192002 -1.51382e-08 -2.5163e-09
0.0192002 -1.07519e-08 -1.8096e-09
0.0192002 -7.54708e-09 -1.29504e-09
0.0192002 -5.25129e-09 -9.24341e-10
0.0192003 -3.63273e-09 -6.60483e-10
0.0192003 -2.50818e-09 -4.7659e-10
0.0192003 -1.73942e-09 -3.54283e-10
0.0192003 -1.22456e-09 -2.80668e-10
0.0192003 -8.97849e-10 -2.5205e-10
0.0192003 -7.30858e-10 -2.63762e-10
0.0192003 -6.71946e-10 -1.87815e-10
0.0192003 -1.34444e-09 -3.92408e-10
0.0192003 -5.47217e-09 -3.3567e-09
0.0192003 -8.91351e-09 -6.02617e-09
0.01 -4.87715e-10 -1.75605e-08
0.01 -0.00326755 -0.000581476
0.0150239 -0.0105985 -0.00151179
0.0240271 -0.0184075 -0.00315619
0.0370702 -0.0296488 -0.00435215
0.0564975 -0.0206304 -0.00122879
0.054716 -0.00137665 0.00200446
0.0549369 0.00581599 0.0023917
0.0494165 0.0107097 0.00217562
0.043782 0.0106562 0.00114489
0.0389516 0.00935863 8.41762e-05
0.0348117 0.00756355 -0.000478258
0.0316119 0.00558985 -0.00057333
0.0294302 0.00382004 -0.00043002
0.0280365 0.0024779 -0.000248187
0.0271748 0.00155765 -0.000117772
0.0266562 0.000957113 -4.60557e-05
0.0263529 0.000576203 -1.31796e-05
0.0261812 0.000339964 -5.51154e-07
0.0260872 0.000196474 3.08863e-06
0.0260378 0.00011106 3.32879e-06
0.0260132 6.12252e-05 2.58463e-06
0.0260019 3.27439e-05 1.75832e-06
0.0259973 1.68273e-05 1.1119e-06
0.0259961 8.15934e-06 6.70701e-07
0.0259963 3.58787e-06 3.91077e-07
0.0259971 1.27938e-06 2.22047e-07
0.025998 1.87904e-07 1.23241e-07
0.0259988 -2.7108e-07 6.69596e-08
0.0259995 -4.16737e-07 3.5588e-08
0.026 -4.18507e-07 1.8443e-08
0.0260004 -3.63085e-07 9.25592e-09
0.0260007 -2.92518e-07 4.4388e-09
0.0260009 -2.2546e-07 1.9788e-09
0.0260011 -1.68797e-07 7.66319e-10
0.0260012 -1.23841e-07 1.99604e-10
0.0260013 -8.95318e-08 -4.21999e-11
0.0260013 -6.4021e-08 -1.26991e-10
0.0260014 -4.53994e-08 -1.40649e-10
0.0260014 -3.1992e-08 -1.25881e-10
0.0260014 -2.24422e-08 -1.03243e-10
0.0260014 -1.5702e-08 -8.23748e-11
0.0260014 -1.09877e-08 -6.80543e-11
0.0260014 -7.73046e-09 -6.37345e-11
0.0260014 -5.53144e-09 -6.90944e-11
0.0260014 -4.12252e-09 -7.56943e-11
0.0260014 -3.48463e-09 -8.9129e-11
0.0260014 -4.14843e-09 -3.34783e-11
0.0260015 -6.54326e-09 -4.81476e-10
0.0260015 -1.04765e-08 -4.70388e-09
0.0260015 -1.27833e-08 -8.41123e-09
0.0148 -1.46212e-08 -2.25425e-08
0.0148 -0.00541527 -0.00110534
0.0198161 -0.0163211 -0.00293716
0.0259403 -0.0273119 -0.00496748
0.0303487 -0.0423229 -0.0051885
0.0288412 -0.0259171 -0.000808292
0.0261279 -1.69933e-07 0.00224931
0.0262483 0.00755707 0.00233368
0.0307997 0.0157504 0.00225959
0.0310379 0.0154615 0.0013244
0.0297611 0.0134015 0.000357189
0.0285458 0.0107886 -0.000236236
0.0277484 0.00780929 -0.000394691
0.0274649 0.00516223 -0.000317628
0.0274222 0.00324825 -0.000178308
0.0274523 0.00198941 -7.1547e-05
0.0274976 0.00119185 -1.40799e-05
0.0275429 0.000697713 8.82771e-06
0.0275836 0.000398375 1.40992e-05
0.0276176 0.000221365 1.24665e-05
0.0276443 0.000119241 9.12176e-06
0.0276643 6.17914e-05 6.05804e-06
0.0276788 3.03415e-05 3.79067e-06
0.0276888 1.36637e-05 2.27735e-06
0.0276958 5.17574e-06 1.32774e-06
0.0277005 1.10673e-06 7.55949e-07
0.0277037 -6.55047e-07 4.21785e-07
0.0277058 -1.26444e-06 2.30961e-07
0.0277072 -1.33598e-06 1.24066e-07
0.0277082 -1.18554e-06 6.52102e-08
0.0277088 -9.67786e-07 3.33504e-08
0.0277093 -7.52714e-07 1.6419e-08
0.0277096 -5.67509e-07 7.61738e-09
0.0277098 -4.1884e-07 3.17335e-09
0.0277099 -3.04424e-07 1.02267e-09
0.02771 -2.18771e-07 5.15521e-11
0.0277101 -1.55874e-07 -3.31779e-10
0.0277101 -1.10328e-07 -4.35934e-10
0.0277101 -7.76927e-08 -4.17987e-10
0.0277102 -5.4501e-08 -3.55206e-10
0.0277102 -3.81332e-08 -2.83746e-10
0.0277102 -2.66565e-08 -2.19246e-10
0.0277102 -1.86711e-08 -1.67231e-10
0.0277102 -1.31837e-08 -1.27577e-10
0.0277102 -9.53622e-09 -9.76029e-11
0.0277102 -7.39157e-09 -8.26153e-11
0.0277102 -6.56445e-09 -1.25061e-10
0.0277102 -6.77068e-09 -2.27942e-10
0.0277102 -7.81595e-09 -1.0309e-09
0.0277102 -9.37911e-09 -5.38824e-09
0.0277102 -1.02117e-08 -9.00102e-09
0.018 -3.10011e-08 -2.57454e-08
0.018 -0.00659939 -0.00193244
0.0201812 -0.0176054 -0.00526246
0.0199571 -0.0229674 -0.00685201
0.015904 -0.0249435 -0.00680655
-1.93547e-08 -0.0129822 -0.00328457
1.57495e-06 5.06575e-07 1.06485e-08
-5.96795e-07 6.27839e-07 0.000444599
0.00734659 0.00507943 0.000910732
0.0153988 0.0114329 0.000778786
0.018788 0.0119717 0.000382267
0.0203955 0.00984255 -3.83751e-05
0.0221271 0.00691814 -0.000248194
0.0238731 0.00431206 -0.000232788
0.0252939 0.00257421 -0.000128848
0.026297 0.00151148 -3.7224e-05
0.0269535 0.00086884 1.21163e-05
0.0273687 0.000482967 2.79828e-05
0.0276277 0.00025682 2.69334e-05
0.0277876 0.000128993 2.03885e-05
0.0278854 5.97074e-05 1.36961e-05
0.0279446 2.3909e-05 8.56e-06
0.0279802 6.50744e-06 5.09629e-06
0.0280014 -1.20007e-06 2.92797e-06
0.028014 -4.03981e-06 1.63496e-06
0.0280214 -4.59086e-06 8.90164e-07
0.0280258 -4.17795e-06 4.72508e-07
0.0280284 -3.4486e-06 2.43602e-07
0.0280299 -2.69682e-06 1.20864e-07
0.0280308 -2.03913e-06 5.66039e-08
0.0280313 -1.5075e-06 2.39377e-08
0.0280317 -1.09697e-06 8.00404e-09
0.0280319 -7.89095e-07 7.26691e-10
0.028032 -5.62751e-07 -2.2089e-09
0.0280321 -3.98685e-07 -3.06402e-09
0.0280321 -2.80995e-07 -2.99573e-09
0.0280322 -1.97237e-07 -2.57664e-09
0.0280322 -1.37992e-07 -2.07585e-09
0.0280322 -9.62931e-08 -1.60883e-09
0.0280322 -6.70679e-08 -1.21614e-09
0.0280322 -4.66655e-08 -9.03964e-10
0.0280322 -3.24858e-08 -6.6447e-10
0.0280322 -2.26985e-08 -4.86262e-10
0.0280322 -1.6039e-08 -3.6006e-10
0.0280322 -1.16318e-08 -2.82202e-10
0.0280322 -8.82649e-09 -2.7343e-10
0.0280322 -7.12301e-09 -3.9225e-10
0.0280322 -6.12061e-09 -5.90612e-10
0.0280322 -5.60811e-09 -1.48683e-09
0.0280322 -5.3644e-09 -5.63862e-09
0.0280322 -5.26022e-09 -8.99184e-09
0.0196 -3.97238e-08 -4.07693e-08
0.0196 -0.0052559 -0.00275384
0.0191003 -0.0118915 -0.00669457
0.0162385 -0.0143713 -0.00721806
0.0115203 -0.0129487 -0.00651345
0.00233868 -0.00521308 -0.00410327
1.19361e-06 -1.09941e-06 -0.000867115
5.02612e-07 -5.02612e-07 -7.10482e-10
-5.80696e-07 6.12894e-07 0.000125046
0.00504298 0.0038295 0.000259121
0.0113726 0.00838071 0.000206507
0.0141427 0.0075535 -3.65572e-05
0.0175071 0.0044894 -0.000276694
0.0208542 0.00212363 -0.000301739
0.0235395 0.00089225 -0.000200477
0.0253712 0.000349077 -8.10339e-05
0.0265042 0.000113973 -5.49752e-06
0.0271742 9.38588e-06 2.34012e-05
0.0275633 -3.38086e-05 2.63561e-05
0.027787 -4.62348e-05 2.03172e-05
0.0279145 -4.42944e-05 1.33813e-05
0.0279863 -3.69658e-05 8.07475e-06
0.0280265 -2.87019e-05 4.60347e-06
0.0280487 -2.13631e-05 2.51594e-06
0.0280608 -1.54917e-05 1.32564e-06
0.0280674 -1.10506e-05 6.72437e-07
0.0280709 -7.80046e-06 3.25172e-07
0.0280728 -5.46929e-06 1.46197e-07
0.0280737 -3.81822e-06 5.72523e-08
0.0280742 -2.65805e-06 1.52418e-08
0.0280744 -1.84692e-06 -2.99152e-09
0.0280745 -1.28163e-06 -9.62033e-09
0.0280746 -8.88489e-07 -1.08978e-08
0.0280746 -6.15449e-07 -9.94643e-09
0.0280746 -4.26013e-07 -8.26404e-09
0.0280745 -2.94688e-07 -6.52338e-09
0.0280745 -2.03713e-07 -4.99073e-09
0.0280745 -1.40736e-07 -3.74084e-09
0.0280745 -9.71769e-08 -2.76509e-09
0.0280745 -6.70801e-08 -2.02408e-09
0.0280745 -4.63169e-08 -1.47226e-09
0.0280745 -3.20285e-08 -1.06855e-09
0.0280745 -2.22348e-08 -7.81149e-10
0.0280745 -1.55539e-08 -5.90385e-10
0.0280745 -1.10108e-08 -4.86369e-10
0.0280745 -7.90737e-09 -4.73699e-10
0.0280745 -5.7196e-09 -5.92863e-10
0.0280745 -3.99541e-09 -7.80218e-10
0.0280745 -2.39204e-09 -1.65467e-09
0.0280745 -6.96315e-10 -5.65974e-09
0.0280745 1.977e-10 -8.87707e-09
0.0196 -1.97459e-08 -5.46072e-08
0.0196 -0.00318392 -0.00309187
0.019028 -0.0067041 -0.00675651
0.0177678 -0.00630268 -0.00677369
0.0141183 -0.00264625 -0.00569273
0.0103 0.00350515 -0.0042347
0.00654721 0.00336891 -0.00202405
1.19422e-06 -1.00459e-06 -0.000373074
4.23898e-07 -4.23898e-07 -2.01699e-09
-5.62048e-07 5.99343e-07 3.43329e-05
0.00382009 0.00284005 0.000337128
0.00843365 0.00377501 0.000373852
0.0139991 0.00038279 -6.86479e-05
0.019076 -0.00154064 -0.000347696
0.0228977 -0.0018244 -0.000354816
0.0252974 -0.00140278 -0.000210619
0.0266233 -0.000926461 -7.92149e-05
0.027315 -0.000585552 -1.3265e-05
0.0276706 -0.000368116 7.60529e-06
0.0278528 -0.000231727 9.84073e-06
0.0279455 -0.000145884 7.15276e-06
0.0279922 -9.18322e-05 4.30223e-06
0.0280152 -5.78925e-05 2.3324e-06
0.0280261 -3.66316e-05 1.16813e-06
0.0280311 -2.33116e-05 5.37376e-07
0.0280331 -1.49414e-05 2.17073e-07
0.0280337 -9.65294e-06 6.45858e-08
0.0280338 -6.28729e-06 -1.93463e-09
0.0280336 -4.12754e-06 -2.65998e-08
0.0280333 -2.72956e-06 -3.21295e-08
0.0280331 -1.8169e-06 -2.97556e-08
0.0280329 -1.21625e-06 -2.47739e-08
0.0280327 -8.18054e-07 -1.95141e-08
0.0280326 -5.52372e-07 -1.48778e-08
0.0280325 -3.74132e-07 -1.11118e-08
0.0280324 -2.54013e-07 -8.18712e-09
0.0280323 -1.72766e-07 -5.97673e-09
0.0280323 -1.17658e-07 -4.3353e-09
0.0280323 -8.02041e-08 -3.13087e-09
0.0280323 -5.47167e-08 -2.25495e-09
0.0280322 -3.7363e-08 -1.62337e-09
0.0280322 -2.55465e-08 -1.17374e-09
0.0280322 -1.74968e-08 -8.62037e-10
0.0280322 -1.19969e-08 -6.58949e-10
0.0280322 -8.19555e-09 -5.4565e-10
0.0280322 -5.47746e-09 -5.22322e-10
0.0280322 -3.36425e-09 -6.32019e-10
0.0280322 -1.38613e-09 -8.01953e-10
0.0280322 9.68645e-10 -1.61458e-09
0.0280322 3.96415e-09 -5.54175e-09
0.0280322 5.62345e-09 -8.72927e-09
0.018 -1.23181e-08 -5.35676e-08
0.018 -0.00153112 -0.00303761
0.0185137 -0.00257322 -0.00641627
0.0189463 -0.000979259 -0.00601065
0.0184622 0.002012 -0.00467974
0.0184317 0.00767738 -0.00345525
0.0189359 0.0127259 -0.00200329
0.0116816 0.00699769 -0.000891644
1.22198e-06 -7.87207e-07 -0.000295797
-4.53581e-07 -9.03898e-07 8.17563e-09
1.23365e-07 -0.00018284 0.00087502
0.00943637 -0.00273314 0.00137466
0.0171216 -0.00602027 0.000605652
0.0220448 -0.00651787 -4.83458e-05
0.0249955 -0.00510059 -0.000341649
0.0265897 -0.00324448 -0.000302204
0.0273311 -0.00185153 -0.000166326
0.0276292 -0.0010262 -7.06891e-05
0.0277313 -0.000573635 -2.57951e-05
0.0277564 -0.000325586 -8.63981e-06
0.0277547 -0.000187115 -2.82498e-06
0.0277459 -0.000108655 -9.98531e-07
0.0277368 -6.37426e-05 -4.46157e-07
0.0277293 -3.78086e-05 -2.69401e-07
0.0277237 -2.26938e-05 -1.95387e-07
0.0277196 -1.37917e-05 -1.49246e-07
0.0277168 -8.48755e-06 -1.1337e-07
0.0277148 -5.288e-06 -8.44612e-08
0.0277134 -3.33339e-06 -6.1775e-08
0.0277124 -2.12417e-06 -4.45608e-08
0.0277117 -1.36691e-06 -3.18479e-08
0.0277113 -8.87208e-07 -2.26368e-08
0.027711 -5.80112e-07 -1.6045e-08
0.0277107 -3.81653e-07 -1.13623e-08
0.0277106 -2.52341e-07 -8.04851e-09
0.0277105 -1.67493e-07 -5.70682e-09
0.0277104 -1.11499e-07 -4.05197e-09
0.0277103 -7.43786e-08 -2.88156e-09
0.0277103 -4.96843e-08 -2.05304e-09
0.0277103 -3.32154e-08 -1.4666e-09
0.0277103 -2.22116e-08 -1.0528e-09
0.0277102 -1.48439e-08 -7.63856e-10
0.0277102 -9.88859e-09 -5.67909e-10
0.0277102 -6.51383e-09 -4.45368e-10
0.0277102 -4.13617e-09 -3.84263e-10
0.0277102 -2.32081e-09 -3.88489e-10
0.0277102 -7.10087e-10 -5.06231e-10
0.0277102 1.11173e-09 -6.57317e-10
0.0277102 3.87806e-09 -1.34578e-09
0.0277102 8.04352e-09 -5.19369e-09
0.0277102 1.04685e-08 -8.40713e-09
0.0148 -7.44846e-09 -4.64625e-08
0.0148 -0.000627261 -0.00284008
0.016563 -0.000516134 -0.00575663
0.0188255 0.00140311 -0.00503631
0.0209433 0.00425896 -0.00366547
0.0230596 0.00759665 -0.00277948
0.0265718 0.0126833 -0.00190126
0.0296527 0.0199297 -0.00103145
0.0240881 0.011876 -0.000133566
0.0245097 1.44579e-14 0.000536939
0.0282815 -0.00701466 0.0015423
0.0331389 -0.0139462 0.00243907
0.0341007 -0.0123767 0.00195908
0.0323786 -0.00924663 0.000867765
0.0300873 -0.00610382 -9.40977e-05
0.0283695 -0.00353636 -0.000407228
0.0273341 -0.00185931 -0.000314823
0.0267534 -0.000941468 -0.000165832
0.0264309 -0.000479756 -7.3821e-05
0.0262501 -0.000250367 -3.0454e-05
0.0261475 -0.000134114 -1.21701e-05
0.0260886 -7.35595e-05 -4.82297e-06
0.0260542 -4.11828e-05 -1.92311e-06
0.0260338 -2.34714e-05 -7.78912e-07
0.0260216 -1.35888e-05 -3.21719e-07
0.0260142 -7.97879e-06 -1.34851e-07
0.0260096 -4.7451e-06 -5.62902e-08
0.0260067 -2.85518e-06 -2.23966e-08
0.0260049 -1.73641e-06 -7.59482e-09
0.0260037 -1.0662e-06 -1.24355e-09
0.026003 -6.60218e-07 1.27733e-09
0.0260025 -4.11761e-07 2.06046e-09
0.0260021 -2.58293e-07 2.08465e-09
0.0260019 -1.62722e-07 1.81348e-09
0.0260018 -1.02795e-07 1.46291e-09
0.0260017 -6.50096e-08 1.12751e-09
0.0260016 -4.10884e-08 8.42543e-10
0.0260015 -2.59061e-08 6.15288e-10
0.0260015 -1.62605e-08 4.40863e-10
0.0260015 -1.01343e-08 3.09984e-10
0.0260015 -6.24621e-09 2.12515e-10
0.0260015 -3.77438e-09 1.38787e-10
0.0260015 -2.18375e-09 7.96258e-11
0.0260015 -1.11567e-09 2.57383e-11
0.0260015 -3.14039e-10 -3.10465e-11
0.0260015 4.33238e-10 -1.05003e-10
0.0260015 1.33587e-09 -2.42841e-10
0.0260015 2.67911e-09 -3.79226e-10
0.0260015 5.32067e-09 -9.27611e-10
0.0260015 9.99505e-09 -4.55335e-09
0.0260015 1.28541e-08 -7.67325e-09
0.01 -1.44326e-08 -4.14545e-08
0.01 -0.000383854 -0.00237915
0.0118805 -8.01906e-05 -0.00452775
0.0147396 0.00126125 -0.00355927