# vtk DataFile Version 2.0
Tobias Weinzierl: CPU, Manycore and Cluster Computing
ASCII

DATASET STRUCTURED_POINTS
DIMENSIONS  51 11 6

ORIGIN 0 0 0 

SPACING 0.1 0.1 0.1 

POINT_DATA 3366

VECTORS velocity float
0 0 0
2.49232e-15 0 0
-2.52948e-09 0 0
-5.11608e-09 0 0
-5.6564e-09 0 0
-1.54622e-09 0 0
-1.07818e-10 0 0
-7.41467e-11 0 0
-9.72659e-10 0 0
-2.28845e-09 0 0
-3.16813e-09 0 0
-3.45215e-09 0 0
-3.40553e-09 0 0
-3.27959e-09 0 0
-3.19136e-09 0 0
-3.16313e-09 0 0
-3.17534e-09 0 0
-3.20384e-09 0 0
-3.23339e-09 0 0
-3.25747e-09 0 0
-3.27473e-09 0 0
-3.28608e-09 0 0
-3.29303e-09 0 0
-3.297e-09 0 0
-3.2991e-09 0 0
-3.30007e-09 0 0
-3.30042e-09 0 0
-3.30044e-09 0 0
-3.30031e-09 0 0
-3.30013e-09 0 0
-3.29994e-09 0 0
-3.29978e-09 0 0
-3.29963e-09 0 0
-3.29952e-09 0 0
-3.29943e-09 0 0
-3.29936e-09 0 0
-3.2993e-09 0 0
-3.29926e-09 0 0
-3.29923e-09 0 0
-3.29921e-09 0 0
-3.29919e-09 0 0
-3.29918e-09 0 0
-3.29917e-09 0 0
-3.29916e-09 0 0
-3.29915e-09 0 0
-3.29915e-09 0 0
-3.29915e-09 0 0
-3.29915e-09 0 0
-3.29915e-09 0 0
-3.29915e-09 0 0
0.00272671 0 0
0 7.2815e-09 0
2.13543e-14 1.2792e-09 0
-4.6969e-09 2.31722e-09 0
-9.89425e-09 1.77868e-09 0
-1.02665e-08 1.09066e-09 0
-3.4092e-09 1.29118e-09 0
-1.21301e-09 2.05117e-09 0
-8.63357e-10 2.03648e-09 0
-1.39757e-09 1.8772e-09 0
-3.20258e-09 1.62888e-09 0
-4.72596e-09 9.99579e-10 0
-5.37406e-09 4.05725e-10 0
-5.5077e-09 7.02557e-11 0
-5.52861e-09 -4.00046e-11 0
-5.61126e-09 -3.15334e-11 0
-5.76657e-09 7.45474e-12 0
-5.945e-09 3.39719e-11 0
-6.10506e-09 4.15907e-11 0
-6.22934e-09 3.73973e-11 0
-6.31718e-09 2.87433e-11 0
-6.37522e-09 1.99332e-11 0
-6.41156e-09 1.27473e-11 0
-6.43327e-09 7.55068e-12 0
-6.44565e-09 4.09287e-12 0
-6.45234e-09 1.94537e-12 0
-6.4557e-09 6.99018e-13 0
-6.45721e-09 3.15068e-14 0
-6.45773e-09 -2.85737e-13 0
-6.45775e-09 -4.03556e-13 0
-6.45757e-09 -4.15943e-13 0
-6.45731e-09 -3.78472e-13 0
-6.45704e-09 -3.22226e-13 0
-6.45681e-09 -2.63422e-13 0
-6.45661e-09 -2.09669e-13 0
-6.45646e-09 -1.63836e-13 0
-6.45633e-09 -1.26357e-13 0
-6.45624e-09 -9.65273e-14 0
-6.45617e-09 -7.32206e-14 0
-6.45611e-09 -5.52425e-14 0
-6.45607e-09 -4.14993e-14 0
-6.45604e-09 -3.10594e-14 0
-6.45602e-09 -2.31602e-14 0
-6.456e-09 -1.71954e-14 0
-6.45599e-09 -1.26901e-14 0
-6.45598e-09 -9.26874e-15 0
-6.45597e-09 -6.62972e-15 0
-6.45597e-09 -4.56067e-15 0
-6.45596e-09 -2.7774e-15 0
-6.45597e-09 5.18665e-16 0
-6.45597e-09 9.73924e-15 0
0.00728656 -3.69788e-09 0
0 5.93228e-10 0
5.02761e-14 1.51362e-09 0
-3.02007e-09 1.75335e-09 0
-7.58205e-09 -5.61548e-10 0
-6.06012e-09 -5.9478e-10 0
-1.40603e-09 1.69012e-09 0
-2.15923e-09 2.88179e-09 0
-2.51329e-09 1.42862e-09 0
-2.25778e-09 5.98461e-11 0
-2.77254e-09 2.19102e-10 0
-3.68814e-09 6.16934e-10 0
-4.07484e-09 1.05146e-09 0
-4.17186e-09 1.24619e-09 0
-4.20773e-09 1.12824e-09 0
-4.32986e-09 8.87135e-10 0
-4.54293e-09 6.55789e-10 0
-4.77758e-09 4.66349e-10 0
-4.97946e-09 3.1997e-10 0
-5.1295e-09 2.11943e-10 0
-5.2309e-09 1.35633e-10 0
-5.29494e-09 8.38707e-11 0
-5.33328e-09 5.00489e-11 0
-5.35519e-09 2.87138e-11 0
-5.36714e-09 1.57083e-11 0
-5.3733e-09 8.05318e-12 0
-5.37624e-09 3.71742e-12 0
-5.37747e-09 1.37358e-12 0
-5.37783e-09 1.85331e-13 0
-5.37778e-09 -3.57043e-13 0
-5.37757e-09 -5.54541e-13 0
-5.37732e-09 -5.79279e-13 0
-5.37708e-09 -5.26203e-13 0
-5.37688e-09 -4.45393e-13 0
-5.37671e-09 -3.61628e-13 0
-5.37658e-09 -2.85898e-13 0
-5.37647e-09 -2.22009e-13 0
-5.37639e-09 -1.70259e-13 0
-5.37634e-09 -1.29413e-13 0
-5.37629e-09 -9.77225e-14 0
-5.37626e-09 -7.34199e-14 0
-5.37623e-09 -5.49258e-14 0
-5.37622e-09 -4.0916e-14 0
-5.3762e-09 -3.03176e-14 0
-5.37619e-09 -2.22756e-14 0
-5.37619e-09 -1.61064e-14 0
-5.37618e-09 -1.11781e-14 0
-5.37618e-09 -6.6461e-15 0
-5.37618e-09 -1.43075e-15 0
-5.37618e-09 4.59412e-15 0
-5.37618e-09 1.10705e-14 0
0.0095409 -4.80104e-09 0
0 -9.0885e-09 0
6.29024e-14 5.83274e-10 0
-1.39425e-09 -8.3739e-10 0
-5.66893e-09 -4.53433e-09 0
-4.19491e-09 -4.91707e-09 0
4.56954e-10 -1.80343e-09 0
-1.05405e-09 -3.07698e-14 0
-1.72408e-09 -1.44101e-09 0
-4.23842e-09 -3.31634e-09 0
-4.75122e-09 -2.92024e-09 0
-5.18764e-09 -1.05973e-09 0
-5.27497e-09 7.77178e-10 0
-5.03627e-09 1.742e-09 0
-4.58033e-09 1.7423e-09 0
-4.19665e-09 1.38499e-09 0
-4.01546e-09 1.01284e-09 0
-3.98301e-09 7.04456e-10 0
-4.01241e-09 4.68378e-10 0
-4.05156e-09 2.98579e-10 0
-4.08135e-09 1.83011e-10 0
-4.09927e-09 1.07974e-10 0
-4.10826e-09 6.11963e-11 0
-4.11181e-09 3.30927e-11 0
-4.11252e-09 1.68046e-11 0
-4.11195e-09 7.7195e-12 0
-4.11095e-09 2.87862e-12 0
-4.10993e-09 4.56071e-13 0
-4.10904e-09 -6.37954e-13 0
-4.10832e-09 -1.03409e-12 0
-4.10777e-09 -1.08608e-12 0
-4.10735e-09 -9.85518e-13 0
-4.10705e-09 -8.31716e-13 0
-4.10682e-09 -6.72925e-13 0
-4.10665e-09 -5.30098e-13 0
-4.10653e-09 -4.10222e-13 0
-4.10644e-09 -3.13594e-13 0
-4.10638e-09 -2.37674e-13 0
-4.10633e-09 -1.79025e-13 0
-4.1063e-09 -1.34234e-13 0
-4.10627e-09 -1.00289e-13 0
-4.10625e-09 -7.46874e-14 0
-4.10624e-09 -5.54212e-14 0
-4.10623e-09 -4.09078e-14 0
-4.10622e-09 -2.98939e-14 0
-4.10622e-09 -2.13644e-14 0
-4.10621e-09 -1.45347e-14 0
-4.10621e-09 -8.92561e-15 0
-4.10621e-09 -4.18482e-15 0
-4.10621e-09 3.89733e-16 0
-4.10621e-09 5.5297e-15 0
0.0100329 -3.5339e-09 0
0 -1.75911e-08 0
4.28753e-14 -6.4815e-10 0
-1.50964e-09 -2.63411e-09 0
-6.00624e-09 -4.39422e-09 0
-6.34736e-09 -3.514e-09 0
-2.27827e-14 -1.10578e-09 0
-2.20047e-13 -2.46264e-13 0
2.07289e-13 -2.35899e-13 0
-2.40555e-09 -2.17836e-09 0
-5.49415e-09 -3.74633e-09 0
-5.86566e-09 -1.79046e-09 0
-6.13672e-09 4.7961e-10 0
-6.172e-09 1.51565e-09 0
-5.64998e-09 1.44931e-09 0
-4.94449e-09 1.10713e-09 0
-4.41111e-09 8.10166e-10 0
-4.10196e-09 5.67596e-10 0
-3.93964e-09 3.72857e-10 0
-3.85263e-09 2.28895e-10 0
-3.80185e-09 1.31695e-10 0
-3.76968e-09 7.08912e-11 0
-3.74837e-09 3.51894e-11 0
-3.73408e-09 1.53989e-11 0
-3.72458e-09 5.07781e-12 0
-3.71833e-09 1.05238e-13 0
-3.71428e-09 -1.99347e-12 0
-3.71168e-09 -2.63336e-12 0
-3.71002e-09 -2.58949e-12 0
-3.70896e-09 -2.26793e-12 0
-3.70828e-09 -1.87014e-12 0
-3.70785e-09 -1.4881e-12 0
-3.70757e-09 -1.15761e-12 0
-3.70738e-09 -8.87139e-13 0
-3.70726e-09 -6.72995e-13 0
-3.70718e-09 -5.0699e-13 0
-3.70712e-09 -3.80088e-13 0
-3.70708e-09 -2.83987e-13 0
-3.70706e-09 -2.11674e-13 0
-3.70704e-09 -1.5749e-13 0
-3.70702e-09 -1.16996e-13 0
-3.70701e-09 -8.67678e-14 0
-3.70701e-09 -6.41927e-14 0
-3.707e-09 -4.72927e-14 0
-3.707e-09 -3.45902e-14 0
-3.707e-09 -2.4996e-14 0
-3.70699e-09 -1.76861e-14 0
-3.70699e-09 -1.19812e-14 0
-3.70699e-09 -7.29007e-15 0
-3.70699e-09 -2.96082e-15 0
-3.70699e-09 1.54553e-15 0
0.010113 -1.62794e-09 0
0 -1.57274e-08 0
2.53287e-14 -1.07958e-09 0
-1.86225e-09 -2.59788e-09 0
-6.23746e-09 -3.55547e-09 0
-7.77457e-09 -3.80815e-09 0
-2.6797e-09 -1.77099e-09 0
-2.10727e-13 2.06221e-13 0
1.05622e-15 -1.05622e-15 0
1.90103e-13 -2.24465e-13 0
-2.60133e-09 -1.60565e-09 0
-4.53676e-09 -1.78081e-09 0
-5.36575e-09 8.22046e-10 0
-6.53785e-09 1.8876e-09 0
-6.6196e-09 1.3893e-09 0
-5.81786e-09 7.73174e-10 0
-4.96615e-09 4.34512e-10 0
-4.39598e-09 2.48856e-10 0
-4.07038e-09 1.30026e-10 0
-3.88948e-09 5.50129e-11 0
-3.78659e-09 1.3096e-11 0
-3.72649e-09 -6.72455e-12 0
-3.69092e-09 -1.38814e-11 0
-3.66982e-09 -1.47687e-11 0
-3.65736e-09 -1.30616e-11 0
-3.65007e-09 -1.06146e-11 0
-3.64584e-09 -8.24467e-12 0
-3.64341e-09 -6.2421e-12 0
-3.64202e-09 -4.65733e-12 0
-3.64124e-09 -3.44672e-12 0
-3.6408e-09 -2.54006e-12 0
-3.64056e-09 -1.86844e-12 0
-3.64042e-09 -1.37383e-12 0
-3.64035e-09 -1.01056e-12 0
-3.64031e-09 -7.43961e-13 0
-3.64029e-09 -5.48265e-13 0
-3.64028e-09 -4.04486e-13 0
-3.64028e-09 -2.98721e-13 0
-3.64028e-09 -2.20811e-13 0
-3.64027e-09 -1.63333e-13 0
-3.64027e-09 -1.20862e-13 0
-3.64027e-09 -8.94219e-14 0
-3.64027e-09 -6.61013e-14 0
-3.64027e-09 -4.87601e-14 0
-3.64027e-09 -3.58171e-14 0
-3.64027e-09 -2.60968e-14 0
-3.64027e-09 -1.87368e-14 0
-3.64027e-09 -1.31186e-14 0
-3.64027e-09 -8.7454e-15 0
-3.64027e-09 -5.04259e-15 0
-3.64027e-09 -1.45325e-15 0
0.0101222 3.29905e-10 0
0 -1.11487e-08 0
2.451e-14 -1.15593e-09 0
-1.83867e-09 -2.66417e-09 0
-6.09687e-09 -2.65499e-09 0
-8.10838e-09 -2.02468e-09 0
-5.95045e-09 -1.55244e-09 0
-1.86249e-09 -6.74507e-10 0
-2.10012e-13 2.02422e-13 0
-1.23297e-14 1.23297e-14 0
1.6689e-13 -2.13307e-13 0
-1.72843e-09 3.56101e-10 0
-3.15144e-09 2.33422e-09 0
-6.09178e-09 3.30034e-09 0
-7.50902e-09 1.70076e-09 0
-6.7526e-09 3.67424e-10 0
-5.47857e-09 -1.0809e-10 0
-4.60117e-09 -1.97679e-10 0
-4.13945e-09 -1.87102e-10 0
-3.91601e-09 -1.54371e-10 0
-3.80856e-09 -1.18052e-10 0
-3.75614e-09 -8.53968e-11 0
-3.73031e-09 -5.94373e-11 0
-3.71757e-09 -4.04032e-11 0
-3.71135e-09 -2.71443e-11 0
-3.70839e-09 -1.81842e-11 0
-3.70706e-09 -1.22224e-11 0
-3.70652e-09 -8.27613e-12 0
-3.70636e-09 -5.65873e-12 0
-3.70637e-09 -3.91089e-12 0
-3.70645e-09 -2.73229e-12 0
-3.70655e-09 -1.92854e-12 0
-3.70664e-09 -1.37394e-12 0
-3.70672e-09 -9.86866e-13 0
-3.70678e-09 -7.13819e-13 0
-3.70683e-09 -5.19361e-13 0
-3.70687e-09 -3.79714e-13 0
-3.7069e-09 -2.78709e-13 0
-3.70692e-09 -2.05209e-13 0
-3.70694e-09 -1.51452e-13 0
-3.70695e-09 -1.11964e-13 0
-3.70696e-09 -8.28479e-14 0
-3.70697e-09 -6.13043e-14 0
-3.70697e-09 -4.53058e-14 0
-3.70698e-09 -3.33764e-14 0
-3.70698e-09 -2.44416e-14 0
-3.70698e-09 -1.77321e-14 0
-3.70698e-09 -1.27353e-14 0
-3.70698e-09 -9.12379e-15 0
-3.70698e-09 -6.53104e-15 0
-3.70698e-09 -4.34517e-15 0
0.010113 2.23701e-09 0
0 -7.98064e-09 0
2.23945e-14 -1.2039e-09 0
-2.04154e-09 -2.51658e-09 0
-6.02694e-09 -2.12519e-09 0
-7.8055e-09 -1.05279e-09 0
-6.42395e-09 -6.18634e-10 0
-4.25764e-09 -1.45911e-09 0
-2.3365e-09 -1.08076e-09 0
-2.21246e-13 1.83592e-13 0
1.49645e-13 1.83068e-13 0
-1.38889e-14 1.01719e-09 0
-8.33199e-10 4.3684e-09 0
-3.5158e-09 5.38252e-09 0
-6.24914e-09 2.25086e-09 0
-6.57659e-09 -1.50573e-10 0
-5.60962e-09 -7.33428e-10 0
-4.75967e-09 -6.24071e-10 0
-4.32094e-09 -4.3588e-10 0
-4.14624e-09 -2.8902e-10 0
-4.09068e-09 -1.86148e-10 0
-4.07977e-09 -1.17353e-10 0
-4.08274e-09 -7.31024e-11 0
-4.08851e-09 -4.54352e-11 0
-4.09366e-09 -2.84023e-11 0
-4.09752e-09 -1.79601e-11 0
-4.10023e-09 -1.15304e-11 0
-4.10208e-09 -7.53016e-12 0
-4.10333e-09 -5.00572e-12 0
-4.10419e-09 -3.38586e-12 0
-4.10478e-09 -2.32777e-12 0
-4.10519e-09 -1.62408e-12 0
-4.10547e-09 -1.14785e-12 0
-4.10567e-09 -8.20295e-13 0
-4.10582e-09 -5.91661e-13 0
-4.10592e-09 -4.30008e-13 0
-4.106e-09 -3.14444e-13 0
-4.10605e-09 -2.31058e-13 0
-4.10609e-09 -1.70426e-13 0
-4.10612e-09 -1.26059e-13 0
-4.10614e-09 -9.34253e-14 0
-4.10616e-09 -6.93163e-14 0
-4.10617e-09 -5.14383e-14 0
-4.10618e-09 -3.81355e-14 0
-4.10618e-09 -2.8209e-14 0
-4.10619e-09 -2.07899e-14 0
-4.10619e-09 -1.52575e-14 0
-4.10619e-09 -1.12312e-14 0
-4.1062e-09 -8.64119e-15 0
-4.1062e-09 -7.63749e-15 0
-4.1062e-09 -7.80367e-15 0
0.0100329 3.96289e-09 0
0 -7.20956e-09 0
2.05929e-14 -1.09514e-09 0
-2.61718e-09 -2.23906e-09 0
-6.37877e-09 -1.75017e-09 0
-7.95543e-09 -7.39424e-10 0
-6.98006e-09 -1.69495e-10 0
-5.12032e-09 -7.36908e-10 0
-4.38311e-09 -2.58281e-09 0
-2.73987e-09 -1.88222e-09 0
-4.35376e-09 -1.8159e-17 0
-6.55647e-09 1.30431e-09 0
-4.85861e-09 4.39689e-09 0
-2.19705e-09 5.3466e-09 0
-3.45058e-09 2.66696e-09 0
-5.27227e-09 4.25464e-11 0
-5.59952e-09 -7.71561e-10 0
-5.37995e-09 -6.6394e-10 0
-5.2465e-09 -4.14002e-10 0
-5.23181e-09 -2.35983e-10 0
-5.26223e-09 -1.32759e-10 0
-5.29727e-09 -7.59034e-11 0
-5.32459e-09 -4.46063e-11 0
-5.34321e-09 -2.70282e-11 0
-5.3552e-09 -1.68676e-11 0
-5.36274e-09 -1.08115e-11 0
-5.36745e-09 -7.09558e-12 0
-5.37042e-09 -4.75506e-12 0
-5.3723e-09 -3.24588e-12 0
-5.37353e-09 -2.25192e-12 0
-5.37433e-09 -1.58454e-12 0
-5.37487e-09 -1.12851e-12 0
-5.37524e-09 -8.11962e-13 0
-5.3755e-09 -5.89156e-13 0
-5.37568e-09 -4.30435e-13 0
-5.37581e-09 -3.16208e-13 0
-5.3759e-09 -2.33301e-13 0
-5.37597e-09 -1.72707e-13 0
-5.37602e-09 -1.2817e-13 0
-5.37606e-09 -9.52853e-14 0
-5.37608e-09 -7.09154e-14 0
-5.3761e-09 -5.28018e-14 0
-5.37612e-09 -3.93043e-14 0
-5.37613e-09 -2.92273e-14 0
-5.37614e-09 -2.1698e-14 0
-5.37614e-09 -1.60862e-14 0
-5.37615e-09 -1.19477e-14 0
-5.37615e-09 -9.00878e-15 0
-5.37615e-09 -7.4099e-15 0
-5.37616e-09 -8.19104e-15 0
-5.37616e-09 -1.20104e-14 0
0.00954089 4.86427e-09 0
0 -7.72689e-09 0
1.73865e-14 -6.49642e-10 0
-3.11033e-09 -1.32364e-09 0
-6.4314e-09 -9.98823e-10 0
-7.79495e-09 -5.02165e-10 0
-7.65638e-09 -6.21334e-10 0
-6.59045e-09 -1.29132e-09 0
-5.92478e-09 -2.02292e-09 0
-6.65456e-09 -3.19699e-11 0
-6.81991e-09 3.601e-09 0
-7.33588e-09 3.30216e-09 0
-5.39081e-09 -2.86295e-10 0
-3.25278e-09 -2.40256e-09 0
-4.45871e-09 -1.7579e-09 0
-6.38375e-09 -3.57737e-10 0
-6.87226e-09 3.97881e-10 0
-6.6754e-09 4.58882e-10 0
-6.48518e-09 2.8625e-10 0
-6.40776e-09 1.37019e-10 0
-6.39401e-09 5.43048e-11 0
-6.40299e-09 1.67864e-11 0
-6.41628e-09 2.05875e-12 0
-6.4278e-09 -2.76468e-12 0
-6.43638e-09 -3.73992e-12 0
-6.4424e-09 -3.41245e-12 0
-6.44653e-09 -2.76204e-12 0
-6.44934e-09 -2.12731e-12 0
-6.45127e-09 -1.60202e-12 0
-6.4526e-09 -1.19419e-12 0
-6.45354e-09 -8.86342e-13 0
-6.4542e-09 -6.56901e-13 0
-6.45467e-09 -4.86815e-13 0
-6.45501e-09 -3.60956e-13 0
-6.45526e-09 -2.6783e-13 0
-6.45544e-09 -1.98875e-13 0
-6.45557e-09 -1.47767e-13 0
-6.45567e-09 -1.09846e-13 0
-6.45574e-09 -8.1681e-14 0
-6.45579e-09 -6.07437e-14 0
-6.45583e-09 -4.51664e-14 0
-6.45586e-09 -3.3569e-14 0
-6.45588e-09 -2.4929e-14 0
-6.4559e-09 -1.84904e-14 0
-6.45591e-09 -1.36961e-14 0
-6.45592e-09 -1.01451e-14 0
-6.45593e-09 -7.56104e-15 0
-6.45593e-09 -5.77783e-15 0
-6.45594e-09 -4.9397e-15 0
-6.45594e-09 -6.39896e-15 0
-6.45595e-09 -1.21762e-14 0
0.00728655 3.38692e-09 0
0 0 0
8.61976e-15 0 0
-1.59022e-09 0 0
-3.07899e-09 0 0
-3.70874e-09 0 0
-3.82949e-09 0 0
-3.86529e-09 0 0
-3.87816e-09 0 0
-3.91472e-09 0 0
-2.46617e-09 0 0
-7.79416e-10 0 0
-5.65043e-10 0 0
-1.81218e-09 0 0
-3.33948e-09 0 0
-4.09551e-09 0 0
-4.03482e-09 0 0
-3.72306e-09 0 0
-3.48507e-09 0 0
-3.36104e-09 0 0
-3.30881e-09 0 0
-3.29098e-09 0 0
-3.28714e-09 0 0
-3.28812e-09 0 0
-3.2903e-09 0 0
-3.29242e-09 0 0
-3.29415e-09 0 0
-3.29546e-09 0 0
-3.29644e-09 0 0
-3.29716e-09 0 0
-3.29768e-09 0 0
-3.29806e-09 0 0
-3.29835e-09 0 0
-3.29855e-09 0 0
-3.2987e-09 0 0
-3.29882e-09 0 0
-3.2989e-09 0 0
-3.29896e-09 0 0
-3.29901e-09 0 0
-3.29904e-09 0 0
-3.29907e-09 0 0
-3.29908e-09 0 0
-3.2991e-09 0 0
-3.29911e-09 0 0
-3.29912e-09 0 0
-3.29912e-09 0 0
-3.29913e-09 0 0
-3.29913e-09 0 0
-3.29913e-09 0 0
-3.29913e-09 0 0
-3.29914e-09 0 0
0.00272671 0 0
0 0 8.42546e-09
3.33819e-14 0 1.25028e-09
-4.842e-09 0 2.79887e-09
-1.12546e-08 0 1.34824e-09
-1.56045e-08 0 -4.66052e-09
-3.2773e-09 0 -6.83976e-09
1.68778e-09 0 -3.52324e-09
2.93203e-09 0 -1.17164e-09
1.86466e-09 0 3.37104e-10
-4.61956e-10 0 5.66593e-10
-2.5323e-09 0 1.64112e-10
-3.86988e-09 0 -1.68327e-10
-4.6543e-09 0 -2.42808e-10
-5.12911e-09 0 -1.74159e-10
-5.45587e-09 0 -8.49316e-11
-5.72182e-09 0 -2.3482e-11
-5.94777e-09 0 6.74038e-12
-6.12952e-09 0 1.6462e-11
-6.26519e-09 0 1.62296e-11
-6.35996e-09 0 1.25991e-11
-6.42265e-09 0 8.67782e-12
-6.46226e-09 0 5.55182e-12
-6.48628e-09 0 3.37571e-12
-6.50025e-09 0 1.97626e-12
-6.50803e-09 0 1.12269e-12
-6.51212e-09 0 6.21853e-13
-6.51409e-09 0 3.36797e-13
-6.51491e-09 0 1.7867e-13
-6.51512e-09 0 9.2956e-14
-6.51505e-09 0 4.75099e-14
-6.51486e-09 0 2.39441e-14
-6.51464e-09 0 1.20042e-14
-6.51443e-09 0 6.10017e-15
-6.51425e-09 0 3.25052e-15
-6.5141e-09 0 1.90135e-15
-6.51398e-09 0 1.26406e-15
-6.51389e-09 0 9.50297e-16
-6.51382e-09 0 7.76639e-16
-6.51377e-09 0 6.6121e-16
-6.51373e-09 0 5.69821e-16
-6.5137e-09 0 4.92086e-16
-6.51367e-09 0 4.27284e-16
-6.51366e-09 0 3.78604e-16
-6.51364e-09 0 3.53439e-16
-6.51364e-09 0 3.67483e-16
-6.51363e-09 0 4.39088e-16
-6.51362e-09 0 5.12403e-16
-6.51362e-09 0 5.54666e-16
-6.51362e-09 0 2.03274e-15
-6.51363e-09 0 9.39982e-15
0.00727812 0 -2.90046e-09
0.0036 9.29811e-10 2.56171e-09
0.00359999 -0.00159068 -0.000282397
0.00746138 -0.00493105 -0.00121968
0.0155434 -0.00839732 -0.00294778
0.027255 -0.0132567 -0.00487975
0.0465038 -0.00938884 -0.00362262
0.0488636 -0.000340575 -0.000682642
0.0482268 0.00335427 0.000556339
0.042917 0.00516262 0.000769794
0.0373005 0.00489442 0.000264841
0.0323303 0.00393691 -0.000195936
0.0282693 0.00289826 -0.000363772
0.0252457 0.00199718 -0.000318762
0.0231794 0.00131312 -0.000204553
0.0218419 0.000841757 -0.000106758
0.0210024 0.000531653 -4.69069e-05
0.0204876 0.000330709 -1.70093e-05
0.0201788 0.000202099 -4.3255e-06
0.0199975 0.000121208 1.29326e-07
0.0198934 7.13486e-05 1.19984e-06
0.0198349 4.12331e-05 1.1134e-06
0.0198029 2.33914e-05 7.6224e-07
0.0197859 1.30144e-05 4.44417e-07
0.0197772 7.08722e-06 2.25217e-07
0.019773 3.7638e-06 9.37054e-08
0.0197712 1.93708e-06 2.29165e-08
0.0197705 9.55508e-07 -1.0796e-08
0.0197704 4.42383e-07 -2.38393e-08
0.0197705 1.83593e-07 -2.63469e-08
0.0197707 5.95793e-08 -2.40957e-08
0.0197708 4.83175e-09 -2.01513e-08
0.019771 -1.57739e-08 -1.60101e-08
0.0197711 -2.05801e-08 -1.23134e-08
0.0197712 -1.88392e-08 -9.26615e-09
0.0197713 -1.49922e-08 -6.86792e-09
0.0197714 -1.10067e-08 -5.03549e-09
0.0197714 -7.62848e-09 -3.66302e-09
0.0197714 -5.03511e-09 -2.64933e-09
0.0197714 -3.16661e-09 -1.90823e-09
0.0197715 -1.88469e-09 -1.37081e-09
0.0197715 -1.04408e-09 -9.84155e-10
0.0197715 -5.20287e-10 -7.09082e-10
0.0197715 -2.16882e-10 -5.17818e-10
0.0197715 -6.39657e-11 -3.91718e-10
0.0197715 -1.39558e-11 -3.19108e-10
0.0197715 -4.7551e-11 -3.00347e-10
0.0197715 -1.68045e-10 -3.21903e-10
0.0197715 -3.47322e-10 -2.28967e-10
0.0197715 -1.48103e-09 -6.06809e-10
0.0197715 -6.94741e-09 -4.60242e-09
0.0197715 -1.13764e-08 -8.11097e-09
0.01 8.25728e-10 -1.47503e-08
0.01 -0.00353737 -0.000751187
0.0151014 -0.0111223 -0.00208148
0.0241235 -0.0185856 -0.00374635
0.0368281 -0.028677 -0.00442697
0.0559891 -0.0194937 -0.00122519
0.0545297 -0.00110809 0.00180992
0.0549317 0.00591198 0.00221026
0.0493249 0.0108013 0.00189894
0.0434579 0.0106572 0.000799304
0.038432 0.00924256 -0.000150613
0.034235 0.00730982 -0.000523573
0.0311416 0.00525716 -0.000497655
0.029128 0.00350216 -0.000330937
0.0278893 0.00222472 -0.000176081
0.0271486 0.0013732 -7.8442e-05
0.026717 0.000829053 -2.87973e-05
0.0264726 0.000490431 -7.33538e-06
0.0263385 0.000284343 4.26496e-07
0.0262675 0.000161485 2.41836e-06
0.0262316 8.96901e-05 2.34966e-06
0.0262145 4.85566e-05 1.74991e-06
0.0262072 2.54699e-05 1.15966e-06
0.0262047 1.28022e-05 7.18487e-07
0.0262045 6.03452e-06 4.25522e-07
0.0262052 2.54002e-06 2.43627e-07
0.0262061 8.19787e-07 1.35596e-07
0.026207 3.46103e-08 7.34986e-08
0.0262077 -2.75778e-07 3.87405e-08
0.0262083 -3.57845e-07 1.97463e-08
0.0262088 -3.39659e-07 9.61469e-09
0.0262091 -2.85077e-07 4.35709e-09
0.0262094 -2.23997e-07 1.72311e-09
0.0262096 -1.68928e-07 4.6905e-10
0.0262097 -1.23883e-07 -7.93317e-11
0.0262098 -8.90191e-08 -2.80321e-10
0.0262098 -6.29791e-08 -3.19976e-10
0.0262099 -4.40076e-08 -2.92135e-10
0.0262099 -3.04401e-08 -2.42244e-10
0.0262099 -2.08798e-08 -1.91049e-10
0.02621 -1.42286e-08 -1.4725e-10
0.02621 -9.65898e-09 -1.14183e-10
0.02621 -6.56634e-09 -9.34689e-11
0.02621 -4.52431e-09 -8.67854e-11
0.02621 -3.24535e-09 -9.30257e-11
0.02621 -2.56019e-09 -1.08082e-10
0.02621 -2.58736e-09 -1.34191e-10
0.02621 -4.04053e-09 -6.18525e-11
0.02621 -7.37441e-09 -7.30234e-10
0.02621 -1.22922e-08 -6.20211e-09
0.02621 -1.50941e-08 -1.09164e-08
0.0148 -1.43103e-08 -1.93794e-08
0.0148 -0.00559408 -0.00125962
0.0196092 -0.0165299 -0.00344842
0.0255871 -0.0268883 -0.00536398
0.0299116 -0.0411029 -0.00502307
0.0284241 -0.0251508 -0.000784111
0.0260622 -1.65855e-07 0.0019404
0.0263259 0.00773211 0.0020649
0.0310757 0.0161371 0.00196718
0.0311548 0.0157716 0.00103604
0.0297361 0.0134355 0.000162255
0.0284637 0.0105107 -0.000284375
0.0276817 0.00735127 -0.000346543
0.0274108 0.00471481 -0.000245999
0.0273637 0.00289555 -0.000125383
0.027389 0.00173452 -4.48318e-05
0.0274343 0.00101623 -5.53475e-06
0.0274816 0.0005817 8.50233e-06
0.0275235 0.000324821 1.07999e-05
0.0275572 0.000176499 8.94671e-06
0.0275827 9.28629e-05 6.31877e-06
0.0276011 4.68489e-05 4.09602e-06
0.027614 2.22201e-05 2.51537e-06
0.0276228 9.4743e-06 1.48762e-06
0.0276287 3.17437e-06 8.5522e-07
0.0276327 2.74681e-07 4.8045e-07
0.0276353 -8.94485e-07 2.64428e-07
0.0276371 -1.22698e-06 1.42621e-07
0.0276383 -1.18766e-06 7.52302e-08
0.0276391 -1.00904e-06 3.8609e-08
0.0276396 -8.0081e-07 1.90812e-08
0.02764 -6.09701e-07 8.89627e-09
0.0276402 -4.51504e-07 3.73493e-09
0.0276404 -3.27831e-07 1.22564e-09
0.0276405 -2.34567e-07 8.49845e-11
0.0276405 -1.6594e-07 -3.70857e-10
0.0276406 -1.16331e-07 -4.99611e-10
0.0276406 -8.09472e-08 -4.8401e-10
0.0276407 -5.59783e-08 -4.14338e-10
0.0276407 -3.85169e-08 -3.33017e-10
0.0276407 -2.64069e-08 -2.5844e-10
0.0276407 -1.80842e-08 -1.97504e-10
0.0276407 -1.24356e-08 -1.51757e-10
0.0276407 -8.69167e-09 -1.19896e-10
0.0276407 -6.37556e-09 -1.00937e-10
0.0276407 -5.29107e-09 -1.0673e-10
0.0276407 -5.3323e-09 -1.76493e-10
0.0276407 -6.26142e-09 -2.76374e-10
0.0276407 -7.98825e-09 -1.29155e-09
0.0276407 -1.03348e-08 -6.82509e-09
0.0276407 -1.16007e-08 -1.13856e-08
0.018 -3.12004e-08 -2.38529e-08
0.018 -0.00657373 -0.00206869
0.0199889 -0.0174236 -0.00564519
0.0198284 -0.0225334 -0.00708618
0.0159504 -0.0242935 -0.00642101
-1.74964e-08 -0.0126101 -0.00291134
1.60139e-06 5.36628e-07 9.33415e-09
-6.20853e-07 6.55048e-07 0.000391486
0.00756533 0.0053366 0.000786351
0.0158597 0.0118303 0.000649408
0.0191881 0.0120543 0.000293567
0.0207778 0.00957497 -6.20905e-05
0.0225083 0.00649191 -0.000213749
0.0241872 0.00393521 -0.000178012
0.0254905 0.00230114 -8.58012e-05
0.0263818 0.00132 -1.66233e-05
0.0269561 0.000736658 1.54365e-05
0.0273163 0.000395922 2.30694e-05
0.0275387 0.00020303 2.00822e-05
0.0276743 9.78609e-05 1.44376e-05
0.0277561 4.28496e-05 9.37815e-06
0.0278049 1.54577e-05 5.718e-06
0.0278338 2.71775e-06 3.33707e-06
0.0278509 -2.5585e-06 1.88409e-06
0.0278609 -4.22301e-06 1.03461e-06
0.0278668 -4.27055e-06 5.53333e-07
0.0278702 -3.69336e-06 2.87508e-07
0.0278723 -2.95823e-06 1.44029e-07
0.0278735 -2.26531e-06 6.84134e-08
0.0278742 -1.68498e-06 2.96786e-08
0.0278746 -1.22838e-06 1.05863e-08
0.0278748 -8.82527e-07 1.71973e-09
0.027875 -6.27092e-07 -1.97628e-09
0.0278751 -4.41754e-07 -3.16507e-09
0.0278751 -3.09024e-07 -3.21827e-09
0.0278752 -2.14914e-07 -2.82076e-09
0.0278752 -1.48717e-07 -2.29896e-09
0.0278752 -1.02458e-07 -1.79651e-09
0.0278752 -7.03177e-08 -1.36698e-09
0.0278752 -4.8106e-08 -1.02194e-09
0.0278752 -3.28427e-08 -7.5524e-10
0.0278752 -2.24297e-08 -5.55006e-10
0.0278752 -1.54105e-08 -4.09825e-10
0.0278752 -1.07945e-08 -3.12165e-10
0.0278752 -7.90232e-09 -2.62679e-10
0.0278752 -6.227e-09 -2.90535e-10
0.0278752 -5.38589e-09 -4.44453e-10
0.0278752 -5.08198e-09 -6.28194e-10
0.0278752 -5.20823e-09 -1.69853e-09
0.0278752 -5.64616e-09 -6.98854e-09
0.0278752 -5.90533e-09 -1.12778e-08
0.0196 -3.88091e-08 -3.95801e-08
0.0196 -0.00514144 -0.00285055
0.0190745 -0.0116712 -0.0069954
0.0163335 -0.0139505 -0.00746883
0.0117789 -0.0123427 -0.00626823
0.00253643 -0.00492202 -0.00368977
1.21763e-06 -1.12303e-06 -0.000745489
5.02181e-07 -5.02181e-07 -7.63667e-10
-6.02746e-07 6.38959e-07 9.9341e-05
0.00530895 0.00399695 0.000210146
0.0117814 0.00849498 0.000167968
0.014573 0.00727018 -4.72694e-05
0.0180581 0.00406049 -0.000249484
0.0214175 0.00182283 -0.000246395
0.0239566 0.000743817 -0.000142432
0.0256007 0.000277839 -4.46676e-05
0.026586 7.50794e-05 6.59947e-06
0.027158 -1.13549e-05 2.16716e-05
0.0274854 -4.23455e-05 2.02553e-05
0.0276709 -4.74192e-05 1.44673e-05
0.0277751 -4.19215e-05 9.11373e-06
0.027833 -3.34135e-05 5.33283e-06
0.027865 -2.51822e-05 2.96693e-06
0.0278825 -1.83608e-05 1.5856e-06
0.0278919 -1.31158e-05 8.1541e-07
0.027897 -9.24805e-06 4.00862e-07
0.0278997 -6.4661e-06 1.84743e-07
0.0279011 -4.49573e-06 7.59364e-08
0.0279018 -3.11371e-06 2.36206e-08
0.0279021 -2.15046e-06 2.27812e-10
0.0279023 -1.48192e-06 -8.85612e-09
0.0279024 -1.01927e-06 -1.12049e-08
0.0279024 -6.99806e-07 -1.06415e-08
0.0279024 -4.7962e-07 -9.02747e-09
0.0279024 -3.28105e-07 -7.21978e-09
0.0279024 -2.24013e-07 -5.57464e-09
0.0279023 -1.52622e-07 -4.20814e-09
0.0279023 -1.03752e-07 -3.12852e-09
0.0279023 -7.03711e-08 -2.30149e-09
0.0279023 -4.76326e-08 -1.68101e-09
0.0279023 -3.22e-08 -1.22311e-09
0.0279023 -2.17825e-08 -8.91388e-10
0.0279023 -1.48063e-08 -6.59523e-10
0.0279023 -1.01828e-08 -5.1269e-10
0.0279023 -7.15129e-09 -4.45956e-10
0.0279023 -5.16796e-09 -4.72803e-10
0.0279023 -3.81535e-09 -6.26149e-10
0.0279023 -2.72113e-09 -7.96777e-10
0.0279023 -1.63414e-09 -1.83897e-09
0.0279023 -4.503e-10 -6.98454e-09
0.0279023 1.75291e-10 -1.11456e-08
0.0196 -1.96671e-08 -5.33139e-08
0.0196 -0.00304866 -0.00317034
0.0190524 -0.00636742 -0.00704852
0.0178544 -0.00590543 -0.00706019
0.0144553 -0.00230552 -0.00556782
0.0106733 0.00371239 -0.00381275
0.00667434 0.00343126 -0.00175008
1.21826e-06 -1.0278e-06 -0.000323185
4.25057e-07 -4.25057e-07 -2.01245e-09
-5.81047e-07 6.24445e-07 2.63995e-05
0.00398905 0.00276086 0.000324269
0.00864505 0.00335425 0.00034116
0.0144879 -0.000208697 -0.000120124
0.019763 -0.00182874 -0.000352388
0.0234663 -0.00180386 -0.000298547
0.0256081 -0.00128193 -0.000148594
0.0267278 -0.000820219 -4.5202e-05
0.0272969 -0.000511866 -2.73824e-06
0.0275861 -0.000318519 7.76699e-06
0.027733 -0.000198151 7.40652e-06
0.0278073 -0.000123256 4.91259e-06
0.0278443 -7.67711e-05 2.80966e-06
0.0278624 -4.7985e-05 1.46485e-06
0.027871 -3.01593e-05 7.03124e-07
0.0278747 -1.90895e-05 3.03216e-07
0.0278762 -1.21785e-05 1.06386e-07
0.0278767 -7.83278e-06 1.65517e-08
0.0278766 -5.0775e-06 -1.97568e-08
0.0278764 -3.3153e-06 -3.07507e-08
0.0278762 -2.1785e-06 -3.06973e-08
0.027876 -1.43918e-06 -2.65057e-08
0.0278758 -9.54856e-07 -2.13368e-08
0.0278757 -6.3557e-07 -1.65067e-08
0.0278755 -4.23983e-07 -1.246e-08
0.0278755 -2.83187e-07 -9.25605e-09
0.0278754 -1.89212e-07 -6.80203e-09
0.0278754 -1.26363e-07 -4.96147e-09
0.0278753 -8.42886e-08 -3.60021e-09
0.0278753 -5.61239e-08 -2.60337e-09
0.0278753 -3.72912e-08 -1.87925e-09
0.0278753 -2.47267e-08 -1.35795e-09
0.0278753 -1.63714e-08 -9.88499e-10
0.0278753 -1.08337e-08 -7.35722e-10
0.0278753 -7.16471e-09 -5.77176e-10
0.0278753 -4.70281e-09 -5.0131e-10
0.0278753 -2.96589e-09 -5.19506e-10
0.0278752 -1.56116e-09 -6.66758e-10
0.0278752 -6.74754e-11 -8.20984e-10
0.0278752 1.9713e-09 -1.80599e-09
0.0278752 4.70544e-09 -6.89738e-09
0.0278752 6.22883e-09 -1.1047e-08
0.018 -1.21204e-08 -5.23575e-08
0.018 -0.00137164 -0.00312065
0.01856 -0.00220031 -0.00669159
0.0191376 -0.000607055 -0.00629686
0.0188169 0.00223496 -0.00466782
0.0187964 0.00774387 -0.00318197
0.019216 0.0127915 -0.0017572
0.0118484 0.00706099 -0.000787128
1.24677e-06 -8.0884e-07 -0.00026994
-4.70847e-07 -9.26435e-07 7.75599e-09
1.26138e-07 -0.000267831 0.000900983
0.00947742 -0.00331401 0.00133453
0.0171978 -0.0069204 0.000426846
0.0222787 -0.00693525 -0.000201949
0.0252553 -0.00493259 -0.000355984
0.0267302 -0.00289951 -0.000241282
0.0273537 -0.00158551 -0.000112032
0.0275867 -0.000865261 -4.21973e-05
0.0276622 -0.000480893 -1.40698e-05
0.0276793 -0.000271662 -4.37658e-06
0.027677 -0.000155346 -1.34988e-06
0.0276696 -8.97805e-05 -4.76625e-07
0.0276623 -5.2447e-05 -2.38355e-07
0.0276563 -3.09858e-05 -1.6743e-07
0.0276518 -1.85224e-05 -1.33796e-07
0.0276485 -1.12042e-05 -1.0727e-07
0.0276462 -6.85644e-06 -8.35489e-08
0.0276445 -4.24231e-06 -6.32149e-08
0.0276434 -2.65157e-06 -4.67841e-08
0.0276426 -1.67229e-06 -3.41006e-08
0.027642 -1.0628e-06 -2.46129e-08
0.0276416 -6.7966e-07 -1.76603e-08
0.0276413 -4.36683e-07 -1.26309e-08
0.0276411 -2.81442e-07 -9.02073e-09
0.027641 -1.8166e-07 -6.44021e-09
0.0276409 -1.17239e-07 -4.59937e-09
0.0276409 -7.55275e-08 -3.28707e-09
0.0276408 -4.84856e-08 -2.3516e-09
0.0276408 -3.09611e-08 -1.68491e-09
0.0276408 -1.96277e-08 -1.21055e-09
0.0276407 -1.2324e-08 -8.74982e-10
0.0276407 -7.63616e-09 -6.41465e-10
0.0276407 -4.63026e-09 -4.86062e-10
0.0276407 -2.67795e-09 -3.94917e-10
0.0276407 -1.33828e-09 -3.62123e-10
0.0276407 -2.75165e-10 -4.02481e-10
0.0276407 8.09391e-10 -5.56721e-10
0.0276407 2.32461e-09 -6.92872e-10
0.0276407 5.03232e-09 -1.56589e-09
0.0276407 9.3214e-09 -6.62711e-09
0.0276407 1.18335e-08 -1.08397e-08
0.0148 -7.63141e-09 -4.52794e-08
0.0148 -0.000464802 -0.00293243
0.0166892 -0.000149733 -0.00602004
0.01918 0.00172678 -0.00528764
0.0214547 0.00439256 -0.00369914
0.0235565 0.00756923 -0.00262902
0.026944 0.012652 -0.00173715
0.0299839 0.0200794 -0.0009421
0.024305 0.0120158 -0.00013374
0.0248664 1.47401e-14 0.000501007
0.0289957 -0.00710737 0.00163778
0.0339856 -0.0143632 0.0025016
0.0343683 -0.0130709 0.00167755
0.0321055 -0.00968973 0.000437575
0.0297321 -0.00603263 -0.000305369
0.0281686 -0.00323939 -0.000385648
0.0272912 -0.00161149 -0.000231755
0.0268157 -0.000795625 -0.000106614
0.0265555 -0.000402892 -4.36672e-05
0.0264105 -0.000210436 -1.70133e-05
0.0263283 -0.000112923 -6.5013e-06
0.0262809 -6.19374e-05 -2.4745e-06
0.0262531 -3.45804e-05 -9.45086e-07
0.0262366 -1.95917e-05 -3.61875e-07
0.0262267 -1.12382e-05 -1.36718e-07
0.0262206 -6.51536e-06 -4.84647e-08
0.0262168 -3.81191e-06 -1.36233e-08
0.0262144 -2.24729e-06 -1.68876e-10
0.0262129 -1.33281e-06 4.52108e-09
0.0262119 -7.9363e-07 5.60171e-09
0.0262112 -4.73336e-07 5.25521e-09
0.0262108 -2.8192e-07 4.42689e-09
0.0262105 -1.67042e-07 3.52321e-09
0.0262104 -9.79618e-08 2.70734e-09
0.0262102 -5.64546e-08 2.03134e-09
0.0262102 -3.16222e-08 1.49792e-09
0.0262101 -1.68977e-08 1.08996e-09
0.0262101 -8.29874e-09 7.84491e-10
0.02621 -3.39849e-09 5.58967e-10
0.02621 -7.12745e-10 3.93644e-10
0.02621 6.68805e-10 2.72022e-10
0.02621 1.30712e-09 1.80339e-10
0.02621 1.5526e-09 1.06505e-10
0.02621 1.6331e-09 3.90346e-11
0.02621 1.71384e-09 -3.3345e-11
0.02621 1.94619e-09 -1.3303e-10
0.02621 2.50292e-09 -3.01538e-10
0.02621 3.6899e-09 -4.26026e-10
0.02621 6.52693e-09 -1.16281e-09
0.02621 1.18605e-08 -6.02955e-09
0.02621 1.5161e-08 -1.01764e-08
0.01 -1.4599e-08 -4.05156e-08
0.01 -0.000273853 -0.0024757
0.0121324 0.000142534 -0.0047473
0.0152985 0.00142998 -0.00373639
0.0188342 0.0030572 -0.00239598
0.023195 0.00574378 -0.00186474