# vtk DataFile Version 2.0
Tobias Weinzierl: CPU, Manycore and Cluster Computing
ASCII

DATASET STRUCTURED_POINTS
DIMENSIONS  51 11 6

ORIGIN 0 0 0 

SPACING 0.1 0.1 0.1 

POINT_DATA 3366

VECTORS velocity float
0 0 0
3.94085e-15 0 0
-1.63521e-09 0 0
-3.95315e-09 0 0
-5.08229e-09 0 0
-1.62843e-09 0 0
-2.67744e-10 0 0
1.46212e-10 0 0
-2.47806e-10 0 0
-1.28277e-09 0 0
-2.20915e-09 0 0
-2.65559e-09 0 0
-2.71647e-09 0 0
-2.62046e-09 0 0
-2.52183e-09 0 0
-2.47481e-09 0 0
-2.47329e-09 0 0
-2.49472e-09 0 0
-2.52157e-09 0 0
-2.54508e-09 0 0
-2.56251e-09 0 0
-2.57414e-09 0 0
-2.58127e-09 0 0
-2.58527e-09 0 0
-2.58728e-09 0 0
-2.58811e-09 0 0
-2.5883e-09 0 0
-2.58816e-09 0 0
-2.58789e-09 0 0
-2.58759e-09 0 0
-2.58732e-09 0 0
-2.58707e-09 0 0
-2.58688e-09 0 0
-2.58672e-09 0 0
-2.5866e-09 0 0
-2.58651e-09 0 0
-2.58644e-09 0 0
-2.58639e-09 0 0
-2.58635e-09 0 0
-2.58632e-09 0 0
-2.5863e-09 0 0
-2.58628e-09 0 0
-2.58627e-09 0 0
-2.58626e-09 0 0
-2.58625e-09 0 0
-2.58625e-09 0 0
-2.58625e-09 0 0
-2.58625e-09 0 0
-2.58624e-09 0 0
-2.58625e-09 0 0
0.00257463 0 0
0 7.02728e-09 0
1.99292e-14 7.35514e-10 0
-2.92234e-09 1.52922e-09 0
-7.45786e-09 1.4681e-09 0
-8.9751e-09 1.00931e-09 0
-3.32654e-09 1.23669e-09 0
-1.4821e-09 1.87406e-09 0
-7.99696e-10 1.69669e-09 0
-6.86802e-10 1.51979e-09 0
-1.90029e-09 1.47762e-09 0
-3.3742e-09 1.08854e-09 0
-4.23202e-09 5.57207e-10 0
-4.48137e-09 1.59747e-10 0
-4.48202e-09 -2.12695e-11 0
-4.49505e-09 -4.74365e-11 0
-4.59194e-09 -1.38511e-11 0
-4.73817e-09 1.87413e-11 0
-4.88574e-09 3.31714e-11 0
-5.00773e-09 3.33824e-11 0
-5.09712e-09 2.69436e-11 0
-5.15737e-09 1.90454e-11 0
-5.19541e-09 1.21508e-11 0
-5.21806e-09 7.0103e-12 0
-5.23076e-09 3.55332e-12 0
-5.23737e-09 1.41862e-12 0
-5.24043e-09 2.11236e-13 0
-5.24156e-09 -3.97297e-13 0
-5.24169e-09 -6.46405e-13 0
-5.24136e-09 -6.9617e-13 0
-5.24088e-09 -6.46515e-13 0
-5.24039e-09 -5.55908e-13 0
-5.23994e-09 -4.56163e-13 0
-5.23956e-09 -3.62932e-13 0
-5.23926e-09 -2.82634e-13 0
-5.23903e-09 -2.16749e-13 0
-5.23885e-09 -1.64366e-13 0
-5.23871e-09 -1.23608e-13 0
-5.23861e-09 -9.23736e-14 0
-5.23854e-09 -6.86979e-14 0
-5.23848e-09 -5.0892e-14 0
-5.23844e-09 -3.75748e-14 0
-5.23841e-09 -2.76502e-14 0
-5.23838e-09 -2.02676e-14 0
-5.23837e-09 -1.47753e-14 0
-5.23836e-09 -1.06729e-14 0
-5.23835e-09 -7.56634e-15 0
-5.23834e-09 -5.17001e-15 0
-5.23834e-09 -3.21282e-15 0
-5.23834e-09 -3.16432e-16 0
-5.23835e-09 6.93341e-15 0
0.00698385 -2.95808e-09 0
0 3.42144e-10 0
3.89114e-14 8.41582e-10 0
-1.49912e-09 8.36835e-10 0
-5.24181e-09 -1.0758e-09 0
-4.99373e-09 -1.40988e-09 0
-1.06492e-09 1.01872e-09 0
-1.9891e-09 2.82406e-09 0
-2.25984e-09 1.721e-09 0
-1.79129e-09 2.81808e-10 0
-1.95245e-09 9.37779e-11 0
-2.84521e-09 3.13649e-10 0
-3.43453e-09 7.08771e-10 0
-3.61228e-09 9.86981e-10 0
-3.58678e-09 9.8689e-10 0
-3.59874e-09 8.24521e-10 0
-3.72416e-09 6.33168e-10 0
-3.91189e-09 4.62431e-10 0
-4.09642e-09 3.23503e-10 0
-4.2437e-09 2.17131e-10 0
-4.34736e-09 1.39944e-10 0
-4.41424e-09 8.65671e-11 0
-4.45455e-09 5.1234e-11 0
-4.47738e-09 2.8789e-11 0
-4.48948e-09 1.51038e-11 0
-4.49533e-09 7.11705e-12 0
-4.49776e-09 2.68884e-12 0
-4.49843e-09 3.95173e-13 0
-4.49827e-09 -6.71902e-13 0
-4.49778e-09 -1.06883e-12 0
-4.49721e-09 -1.12363e-12 0
-4.49667e-09 -1.02178e-12 0
-4.49621e-09 -8.63084e-13 0
-4.49584e-09 -6.97691e-13 0
-4.49556e-09 -5.4815e-13 0
-4.49533e-09 -4.2237e-13 0
-4.49517e-09 -3.21024e-13 0
-4.49504e-09 -2.41597e-13 0
-4.49495e-09 -1.80508e-13 0
-4.49488e-09 -1.34133e-13 0
-4.49483e-09 -9.9248e-14 0
-4.49479e-09 -7.31703e-14 0
-4.49476e-09 -5.37511e-14 0
-4.49474e-09 -3.93089e-14 0
-4.49473e-09 -2.8546e-14 0
-4.49472e-09 -2.04648e-14 0
-4.49471e-09 -1.42387e-14 0
-4.49471e-09 -8.93952e-15 0
-4.49471e-09 -3.45601e-15 0
-4.49471e-09 2.49018e-15 0
-4.49471e-09 8.54527e-15 0
0.00928498 -4.12864e-09 0
0 -9.29101e-09 0
4.53638e-14 1.60787e-10 0
-1.73056e-10 -1.15435e-09 0
-3.47664e-09 -4.26216e-09 0
-3.30855e-09 -5.12996e-09 0
6.3319e-10 -2.18296e-09 0
-7.74751e-10 -3.20134e-14 0
-1.31394e-09 -9.81295e-10 0
-3.09916e-09 -2.49207e-09 0
-3.53777e-09 -2.55429e-09 0
-4.12571e-09 -1.31075e-09 0
-4.49719e-09 2.34387e-10 0
-4.44321e-09 1.276e-09 0
-4.04999e-09 1.48221e-09 0
-3.62286e-09 1.26286e-09 0
-3.36504e-09 9.61872e-10 0
-3.27583e-09 6.89518e-10 0
-3.27667e-09 4.69195e-10 0
-3.30492e-09 3.03715e-10 0
-3.33143e-09 1.87335e-10 0
-3.34835e-09 1.10029e-10 0
-3.35659e-09 6.11762e-11 0
-3.3592e-09 3.16999e-11 0
-3.35882e-09 1.47286e-11 0
-3.35718e-09 5.46402e-12 0
-3.35523e-09 7.48352e-13 0
-3.35341e-09 -1.39925e-12 0
-3.3519e-09 -2.17041e-12 0
-3.3507e-09 -2.25384e-12 0
-3.34979e-09 -2.03107e-12 0
-3.34911e-09 -1.70299e-12 0
-3.34861e-09 -1.36809e-12 0
-3.34825e-09 -1.06911e-12 0
-3.34798e-09 -8.19977e-13 0
-3.34779e-09 -6.2071e-13 0
-3.34765e-09 -4.6549e-13 0
-3.34755e-09 -3.46725e-13 0
-3.34747e-09 -2.56975e-13 0
-3.34742e-09 -1.89741e-13 0
-3.34738e-09 -1.39678e-13 0
-3.34736e-09 -1.02547e-13 0
-3.34734e-09 -7.50608e-14 0
-3.34732e-09 -5.47054e-14 0
-3.34731e-09 -3.95547e-14 0
-3.3473e-09 -2.81036e-14 0
-3.3473e-09 -1.91958e-14 0
-3.34729e-09 -1.20882e-14 0
-3.34729e-09 -6.30932e-15 0
-3.34729e-09 -1.16122e-15 0
-3.34729e-09 4.12614e-15 0
0.00983983 -3.14203e-09 0
0 -1.79523e-08 0
2.53663e-14 -7.79583e-10 0
-4.02428e-10 -2.56975e-09 0
-3.83901e-09 -3.92717e-09 0
-5.05033e-09 -3.2305e-09 0
-1.96125e-14 -1.09352e-09 0
-1.82143e-13 -2.05726e-13 0
1.7419e-13 -1.96053e-13 0
-1.74687e-09 -1.7301e-09 0
-4.32775e-09 -3.19768e-09 0
-4.85328e-09 -1.88e-09 0
-5.19568e-09 5.55819e-11 0
-5.33048e-09 1.16559e-09 0
-4.96747e-09 1.27461e-09 0
-4.32404e-09 1.00732e-09 0
-3.75859e-09 7.43805e-10 0
-3.4007e-09 5.29954e-10 0
-3.20668e-09 3.54892e-10 0
-3.10376e-09 2.19881e-10 0
-3.04504e-09 1.2517e-10 0
-3.00809e-09 6.44925e-11 0
-2.98329e-09 2.86501e-11 0
-2.96626e-09 9.10828e-12 0
-2.95461e-09 -5.69736e-13 0
-2.94673e-09 -4.68529e-12 0
-2.94149e-09 -5.88466e-12 0
-2.93804e-09 -5.69285e-12 0
-2.93578e-09 -4.93706e-12 0
-2.93432e-09 -4.03648e-12 0
-2.93336e-09 -3.18405e-12 0
-2.93274e-09 -2.45391e-12 0
-2.93233e-09 -1.86171e-12 0
-2.93205e-09 -1.39714e-12 0
-2.93187e-09 -1.04051e-12 0
-2.93175e-09 -7.70713e-13 0
-2.93166e-09 -5.68673e-13 0
-2.93161e-09 -4.18437e-13 0
-2.93157e-09 -3.07274e-13 0
-2.93154e-09 -2.25299e-13 0
-2.93152e-09 -1.64978e-13 0
-2.9315e-09 -1.20635e-13 0
-2.93149e-09 -8.80286e-14 0
-2.93148e-09 -6.40042e-14 0
-2.93148e-09 -4.62319e-14 0
-2.93148e-09 -3.30182e-14 0
-2.93147e-09 -2.31236e-14 0
-2.93147e-09 -1.55854e-14 0
-2.93147e-09 -9.6075e-15 0
-2.93147e-09 -4.4114e-15 0
-2.93147e-09 6.83338e-16 0
0.00994111 -1.44355e-09 0
0 -1.60354e-08 0
9.7156e-15 -1.01279e-09 0
-8.65266e-10 -2.33981e-09 0
-4.14894e-09 -3.1786e-09 0
-6.19783e-09 -3.49822e-09 0
-2.3228e-09 -1.64664e-09 0
-1.75426e-13 1.71227e-13 0
2.95961e-15 -2.95961e-15 0
1.59865e-13 -1.88507e-13 0
-2.12492e-09 -1.42581e-09 0
-3.96047e-09 -1.86724e-09 0
-4.39679e-09 2.63042e-10 0
-5.32706e-09 1.53241e-09 0
-5.65156e-09 1.33192e-09 0
-5.10677e-09 7.66502e-10 0
-4.30878e-09 4.04179e-10 0
-3.70146e-09 2.15175e-10 0
-3.3375e-09 1.03024e-10 0
-3.13428e-09 3.26378e-11 0
-3.01945e-09 -6.90052e-12 0
-2.95237e-09 -2.46086e-11 0
-2.9123e-09 -2.922e-11 0
-2.88822e-09 -2.73141e-11 0
-2.8738e-09 -2.2922e-11 0
-2.86524e-09 -1.81345e-11 0
-2.86023e-09 -1.38559e-11 0
-2.85732e-09 -1.0365e-11 0
-2.85565e-09 -7.65431e-12 0
-2.85471e-09 -5.60909e-12 0
-2.85418e-09 -4.0922e-12 0
-2.85389e-09 -2.97853e-12 0
-2.85373e-09 -2.16569e-12 0
-2.85365e-09 -1.5743e-12 0
-2.85361e-09 -1.14467e-12 0
-2.85359e-09 -8.32709e-13 0
-2.85358e-09 -6.06145e-13 0
-2.85357e-09 -4.41515e-13 0
-2.85357e-09 -3.21795e-13 0
-2.85357e-09 -2.34651e-13 0
-2.85357e-09 -1.71148e-13 0
-2.85357e-09 -1.24809e-13 0
-2.85357e-09 -9.09363e-14 0
-2.85357e-09 -6.61243e-14 0
-2.85357e-09 -4.78901e-14 0
-2.85357e-09 -3.44128e-14 0
-2.85357e-09 -2.43652e-14 0
-2.85357e-09 -1.67958e-14 0
-2.85357e-09 -1.09849e-14 0
-2.85357e-09 -6.21431e-15 0
-2.85357e-09 -1.77729e-15 0
0.00995408 3.50374e-10 0
0 -1.13283e-08 0
1.16157e-14 -9.75388e-10 0
-9.12911e-10 -2.28477e-09 0
-4.0799e-09 -2.38675e-09 0
-6.51377e-09 -1.88413e-09 0
-5.17008e-09 -1.26508e-09 0
-1.52426e-09 -4.58318e-10 0
-1.73827e-13 1.68621e-13 0
-8.75846e-15 8.75846e-15 0
1.39287e-13 -1.80436e-13 0
-1.55275e-09 -2.12706e-10 0
-2.18339e-09 1.23872e-09 0
-4.24695e-09 2.78848e-09 0
-5.94236e-09 1.86439e-09 0
-5.84952e-09 5.77904e-10 0
-4.83976e-09 -4.34801e-11 0
-3.9517e-09 -2.09853e-10 0
-3.43146e-09 -2.21112e-10 0
-3.16999e-09 -1.91735e-10 0
-3.04412e-09 -1.52642e-10 0
-2.98357e-09 -1.14568e-10 0
-2.95436e-09 -8.24427e-11 0
-2.9404e-09 -5.77083e-11 0
-2.93393e-09 -3.97607e-11 0
-2.93112e-09 -2.72053e-11 0
-2.93007e-09 -1.8601e-11 0
-2.92983e-09 -1.27604e-11 0
-2.92993e-09 -8.80382e-12 0
-2.93017e-09 -6.11581e-12 0
-2.93042e-09 -4.27903e-12 0
-2.93065e-09 -3.01468e-12 0
-2.93084e-09 -2.13748e-12 0
-2.93099e-09 -1.52413e-12 0
-2.93111e-09 -1.09213e-12 0
-2.9312e-09 -7.85871e-13 0
-2.93127e-09 -5.67487e-13 0
-2.93132e-09 -4.10986e-13 0
-2.93136e-09 -2.98349e-13 0
-2.93139e-09 -2.16982e-13 0
-2.93141e-09 -1.58015e-13 0
-2.93142e-09 -1.15157e-13 0
-2.93143e-09 -8.39193e-14 0
-2.93144e-09 -6.10779e-14 0
-2.93145e-09 -4.43115e-14 0
-2.93145e-09 -3.19434e-14 0
-2.93146e-09 -2.27672e-14 0
-2.93146e-09 -1.59462e-14 0
-2.93146e-09 -1.09263e-14 0
-2.93146e-09 -7.2003e-15 0
-2.93146e-09 -4.05834e-15 0
0.00994111 2.08734e-09 0
0 -8.06505e-09 0
1.19514e-14 -9.40493e-10 0
-1.11953e-09 -2.0549e-09 0
-4.16307e-09 -1.88013e-09 0
-6.27417e-09 -9.80409e-10 0
-5.57331e-09 -4.34989e-10 0
-3.5656e-09 -9.52657e-10 0
-1.82398e-09 -7.32345e-10 0
-1.82426e-13 1.54811e-13 0
1.28088e-13 1.59138e-13 0
-1.50501e-14 1.97687e-10 0
-4.68812e-10 2.62446e-09 0
-1.79364e-09 4.5275e-09 0
-4.19669e-09 2.6993e-09 0
-5.28621e-09 4.0639e-10 0
-4.85206e-09 -5.25379e-10 0
-4.10073e-09 -6.11636e-10 0
-3.61747e-09 -4.80484e-10 0
-3.39994e-09 -3.40791e-10 0
-3.32456e-09 -2.30747e-10 0
-3.30806e-09 -1.51669e-10 0
-3.31146e-09 -9.7944e-11 0
-3.31951e-09 -6.28194e-11 0
-3.3271e-09 -4.03655e-11 0
-3.33301e-09 -2.61423e-11 0
-3.33729e-09 -1.71264e-11 0
-3.34029e-09 -1.13689e-11 0
-3.34238e-09 -7.65017e-12 0
-3.34382e-09 -5.21547e-12 0
-3.34483e-09 -3.59861e-12 0
-3.34553e-09 -2.50973e-12 0
-3.34603e-09 -1.76671e-12 0
-3.34638e-09 -1.2536e-12 0
-3.34663e-09 -8.95475e-13 0
-3.34681e-09 -6.43219e-13 0
-3.34694e-09 -4.64134e-13 0
-3.34704e-09 -3.36151e-13 0
-3.3471e-09 -2.44178e-13 0
-3.34715e-09 -1.77774e-13 0
-3.34719e-09 -1.29642e-13 0
-3.34721e-09 -9.46336e-14 0
-3.34723e-09 -6.90884e-14 0
-3.34724e-09 -5.03889e-14 0
-3.34725e-09 -3.66571e-14 0
-3.34726e-09 -2.65404e-14 0
-3.34727e-09 -1.90674e-14 0
-3.34727e-09 -1.35801e-14 0
-3.34727e-09 -9.77795e-15 0
-3.34727e-09 -7.65214e-15 0
-3.34727e-09 -6.76809e-15 0
0.00983983 3.58605e-09 0
0 -7.20707e-09 0
1.34575e-14 -7.95271e-10 0
-1.61222e-09 -1.73816e-09 0
-4.62686e-09 -1.51931e-09 0
-6.46154e-09 -6.91703e-10 0
-5.99573e-09 -4.21356e-11 0
-4.37819e-09 -4.13566e-10 0
-3.53903e-09 -1.92746e-09 0
-1.97106e-09 -1.44074e-09 0
-2.91609e-09 -1.394e-17 0
-5.20449e-09 8.13844e-10 0
-4.76701e-09 2.87416e-09 0
-1.85118e-09 4.07074e-09 0
-1.96317e-09 2.76739e-09 0
-3.85688e-09 6.60584e-10 0
-4.65127e-09 -4.0832e-10 0
-4.55959e-09 -5.7246e-10 0
-4.38935e-09 -4.31169e-10 0
-4.33706e-09 -2.74574e-10 0
-4.35435e-09 -1.6632e-10 0
-4.38994e-09 -1.0023e-10 0
-4.42227e-09 -6.12342e-11 0
-4.44623e-09 -3.82144e-11 0
-4.46261e-09 -2.44029e-11 0
-4.47341e-09 -1.59243e-11 0
-4.48047e-09 -1.05926e-11 0
-4.48508e-09 -7.16323e-12 0
-4.48812e-09 -4.91303e-12 0
-4.49014e-09 -3.41057e-12 0
-4.49151e-09 -2.39206e-12 0
-4.49245e-09 -1.69242e-12 0
-4.4931e-09 -1.20627e-12 0
-4.49355e-09 -8.6508e-13 0
-4.49387e-09 -6.23576e-13 0
-4.4941e-09 -4.51386e-13 0
-4.49426e-09 -3.27863e-13 0
-4.49438e-09 -2.38798e-13 0
-4.49446e-09 -1.74305e-13 0
-4.49452e-09 -1.27436e-13 0
-4.49457e-09 -9.32733e-14 0
-4.4946e-09 -6.83052e-14 0
-4.49462e-09 -5.00141e-14 0
-4.49464e-09 -3.65832e-14 0
-4.49465e-09 -2.67017e-14 0
-4.49466e-09 -1.94293e-14 0
-4.49467e-09 -1.40952e-14 0
-4.49467e-09 -1.02415e-14 0
-4.49468e-09 -7.78448e-15 0
-4.49468e-09 -7.45374e-15 0
-4.49468e-09 -9.77449e-15 0
0.00928498 4.18671e-09 0
0 -7.66925e-09 0
1.35152e-14 -4.45598e-10 0
-2.03929e-09 -9.84887e-10 0
-4.77812e-09 -8.32693e-10 0
-6.2635e-09 -4.2303e-10 0
-6.32747e-09 -4.24432e-10 0
-5.37638e-09 -9.26118e-10 0
-4.77729e-09 -1.73932e-09 0
-5.27776e-09 -6.04256e-10 0
-5.26544e-09 2.47872e-09 0
-6.02169e-09 3.32295e-09 0
-4.76279e-09 9.24775e-10 0
-2.42213e-09 -1.50451e-09 0
-2.67571e-09 -1.78353e-09 0
-4.59731e-09 -8.11581e-10 0
-5.52158e-09 5.60652e-11 0
-5.48831e-09 3.33577e-10 0
-5.29092e-09 2.6668e-10 0
-5.18624e-09 1.42663e-10 0
-5.15968e-09 5.9344e-11 0
-5.16678e-09 1.78894e-11 0
-5.18271e-09 8.70683e-13 0
-5.19786e-09 -4.67967e-12 0
-5.20972e-09 -5.59103e-12 0
-5.21831e-09 -4.92651e-12 0
-5.22433e-09 -3.90806e-12 0
-5.2285e-09 -2.96051e-12 0
-5.23139e-09 -2.19467e-12 0
-5.2334e-09 -1.61057e-12 0
-5.23481e-09 -1.17678e-12 0
-5.2358e-09 -8.58567e-13 0
-5.2365e-09 -6.26373e-13 0
-5.237e-09 -4.57257e-13 0
-5.23736e-09 -3.34093e-13 0
-5.23762e-09 -2.44328e-13 0
-5.23781e-09 -1.78834e-13 0
-5.23795e-09 -1.30992e-13 0
-5.23805e-09 -9.60034e-14 0
-5.23812e-09 -7.03863e-14 0
-5.23817e-09 -5.1611e-14 0
-5.23821e-09 -3.78361e-14 0
-5.23824e-09 -2.77193e-14 0
-5.23826e-09 -2.02826e-14 0
-5.23828e-09 -1.48134e-14 0
-5.23829e-09 -1.07985e-14 0
-5.2383e-09 -7.88185e-15 0
-5.2383e-09 -5.82678e-15 0
-5.23831e-09 -4.62811e-15 0
-5.23831e-09 -5.17997e-15 0
-5.23832e-09 -8.92843e-15 0
0.00698385 2.66332e-09 0
0 0 0
7.1835e-15 0 0
-1.0576e-09 0 0
-2.28391e-09 0 0
-2.91749e-09 0 0
-3.05776e-09 0 0
-3.03953e-09 0 0
-3.06224e-09 0 0
-3.30671e-09 0 0
-2.34936e-09 0 0
-8.17224e-10 0 0
-1.21404e-10 0 0
-7.10059e-10 0 0
-1.97572e-09 0 0
-2.95717e-09 0 0
-3.1908e-09 0 0
-3.00732e-09 0 0
-2.78968e-09 0 0
-2.65704e-09 0 0
-2.59631e-09 0 0
-2.57456e-09 0 0
-2.56986e-09 0 0
-2.5713e-09 0 0
-2.57431e-09 0 0
-2.57723e-09 0 0
-2.57961e-09 0 0
-2.58141e-09 0 0
-2.58274e-09 0 0
-2.5837e-09 0 0
-2.5844e-09 0 0
-2.5849e-09 0 0
-2.58526e-09 0 0
-2.58553e-09 0 0
-2.58572e-09 0 0
-2.58586e-09 0 0
-2.58596e-09 0 0
-2.58603e-09 0 0
-2.58609e-09 0 0
-2.58613e-09 0 0
-2.58616e-09 0 0
-2.58618e-09 0 0
-2.58619e-09 0 0
-2.5862e-09 0 0
-2.58621e-09 0 0
-2.58622e-09 0 0
-2.58622e-09 0 0
-2.58623e-09 0 0
-2.58623e-09 0 0
-2.58623e-09 0 0
-2.58624e-09 0 0
0.00257463 0 0
0 0 8.50509e-09
2.92114e-14 0 8.99696e-10
-2.9023e-09 0 2.42393e-09
-8.34774e-09 0 1.97898e-09
-1.39993e-08 0 -3.33403e-09
-3.94772e-09 0 -6.05124e-09
5.74187e-10 0 -3.6487e-09
2.48577e-09 0 -1.71663e-09
2.39831e-09 0 -9.08085e-11
7.51376e-10 0 4.83727e-10
-1.19429e-09 0 2.84279e-10
-2.65889e-09 0 -4.98846e-11
-3.54068e-09 0 -1.94874e-10
-4.02881e-09 0 -1.73369e-10
-4.32276e-09 0 -9.82093e-11
-4.55001e-09 0 -3.46895e-11
-4.75045e-09 0 1.15914e-12
-4.92078e-09 0 1.51074e-11
-5.05357e-09 0 1.6979e-11
-5.14907e-09 0 1.40006e-11
-5.21332e-09 0 1.00229e-11
-5.25417e-09 0 6.60042e-12
-5.27883e-09 0 4.11066e-12
-5.29294e-09 0 2.45895e-12
-5.3005e-09 0 1.42621e-12
-5.3042e-09 0 8.06919e-13
-5.30573e-09 0 4.47108e-13
-5.30611e-09 0 2.43303e-13
-5.30593e-09 0 1.30326e-13
-5.30554e-09 0 6.88912e-14
-5.30508e-09 0 3.60718e-14
-5.30466e-09 0 1.88304e-14
-5.3043e-09 0 9.91212e-15
-5.304e-09 0 5.35852e-15
-5.30377e-09 0 3.05097e-15
-5.30359e-09 0 1.87752e-15
-5.30345e-09 0 1.26568e-15
-5.30335e-09 0 9.27743e-16
-5.30327e-09 0 7.22535e-16
-5.30321e-09 0 5.83768e-16
-5.30317e-09 0 4.82402e-16
-5.30314e-09 0 4.05933e-16
-5.30311e-09 0 3.51294e-16
-5.3031e-09 0 3.20843e-16
-5.30308e-09 0 3.24562e-16
-5.30307e-09 0 3.85343e-16
-5.30307e-09 0 4.72053e-16
-5.30307e-09 0 5.13795e-16
-5.30307e-09 0 1.5306e-15
-5.30307e-09 0 6.92103e-15
0.00697222 0 -2.21444e-09
0.0036 -5.66567e-10 1.72566e-09
0.0036 -0.00142325 -0.000146624
0.00715171 -0.0045209 -0.000835204
0.0148334 -0.00799536 -0.00259855
0.0263485 -0.0136558 -0.00510154
0.0463864 -0.0101466 -0.00412561
0.0490214 -0.000594968 -0.000966607
0.0484405 0.00332713 0.000455689
0.0431615 0.00528552 0.000850339
0.0375243 0.00509319 0.000415399
0.0325201 0.00411929 -0.000101147
0.0283916 0.00302709 -0.000360155
0.025257 0.00207718 -0.000366869
0.0230672 0.00136139 -0.000256978
0.0216223 0.000873706 -0.000142413
0.0206997 0.000556088 -6.54593e-05
0.0201243 0.000350414 -2.47072e-05
0.0197734 0.000217446 -6.6386e-06
0.0195641 0.000132445 -5.17921e-09
0.0194419 7.90969e-05 1.72337e-06
0.0193723 4.63013e-05 1.69355e-06
0.0193335 2.6553e-05 1.21719e-06
0.0193126 1.48979e-05 7.5517e-07
0.0193017 8.15476e-06 4.21947e-07
0.0192963 4.33264e-06 2.12344e-07
0.0192939 2.21392e-06 9.20703e-08
0.0192929 1.06934e-06 2.85123e-08
0.0192927 4.70507e-07 -1.91806e-09
0.0192928 1.70526e-07 -1.42942e-08
0.019293 2.98093e-08 -1.75305e-08
0.0192932 -2.89434e-08 -1.65877e-08
0.0192934 -4.75384e-08 -1.40672e-08
0.0192936 -4.79408e-08 -1.12379e-08
0.0192937 -4.12549e-08 -8.65299e-09
0.0192938 -3.27856e-08 -6.50236e-09
0.0192938 -2.48356e-08 -4.80465e-09
0.0192939 -1.82195e-08 -3.50786e-09
0.0192939 -1.30619e-08 -2.53886e-09
0.0192939 -9.20345e-09 -1.82588e-09
0.019294 -6.39852e-09 -1.30732e-09
0.019294 -4.40313e-09 -9.33921e-10
0.019294 -3.00898e-09 -6.6822e-10
0.019294 -2.05158e-09 -4.83147e-10
0.019294 -1.40727e-09 -3.60249e-10
0.019294 -9.85521e-10 -2.86778e-10
0.019294 -7.30064e-10 -2.59807e-10
0.019294 -6.19299e-10 -2.73616e-10
0.019294 -6.05686e-10 -1.95054e-10
0.019294 -1.35479e-09 -4.24231e-10
0.019294 -5.69682e-09 -3.54756e-09
0.019294 -9.29623e-09 -6.34811e-09
0.01 -2.95488e-10 -1.71221e-08
0.01 -0.00330522 -0.000603101
0.0150343 -0.010677 -0.00159738
0.024037 -0.0184416 -0.00325869
0.0370261 -0.0294929 -0.004376
0.056409 -0.0204415 -0.00123477
0.054682 -0.00133286 0.00196994
0.0549361 0.00582987 0.00236479
0.0494087 0.0107244 0.00213603
0.0437404 0.0106599 0.00108931
0.0388761 0.00934544 4.05165e-05
0.034721 0.00752709 -0.000491485
0.0315336 0.00553719 -0.000563298
0.0293779 0.00376681 -0.000413259
0.0280099 0.00243405 -0.00023499
0.027169 0.00152504 -0.000110237
0.0266658 0.000934153 -4.26337e-05
0.0263732 0.00056066 -1.19744e-05
0.0262083 0.000329802 -3.20619e-07
0.0261186 0.000190044 2.97694e-06
0.0260717 0.000107119 3.14516e-06
0.0260485 5.88862e-05 2.42368e-06
0.0260379 3.14039e-05 1.64126e-06
0.0260337 1.60909e-05 1.03427e-06
0.0260327 7.7763e-06 6.21988e-07
0.026033 3.40454e-06 3.61627e-07
0.0260338 1.20431e-06 2.04709e-07
0.0260347 1.68328e-07 1.13235e-07
0.0260355 -2.64589e-07 6.12719e-08
0.0260361 -3.99905e-07 3.23926e-08
0.0260366 -3.99267e-07 1.66636e-08
0.026037 -3.45088e-07 8.27104e-09
0.0260373 -2.77157e-07 3.89549e-09
0.0260375 -2.13008e-07 1.67914e-09
0.0260377 -1.59025e-07 6.00416e-10
0.0260378 -1.16335e-07 1.06963e-10
0.0260379 -8.38515e-08 -9.46942e-11
0.0260379 -5.97678e-08 -1.57393e-10
0.026038 -4.22392e-08 -1.58796e-10
0.026038 -2.96576e-08 -1.37152e-10
0.026038 -2.07259e-08 -1.10618e-10
0.026038 -1.44455e-08 -8.75589e-11
0.026038 -1.00726e-08 -7.21183e-11
0.026038 -7.06934e-09 -6.74006e-11
0.026038 -5.0608e-09 -7.28518e-11
0.026038 -3.79887e-09 -8.07124e-11
0.026038 -3.28975e-09 -9.65718e-11
0.026038 -4.09758e-09 -3.85257e-11
0.026038 -6.6595e-09 -5.18918e-10
0.0260381 -1.07652e-08 -4.9378e-09
0.0260381 -1.31576e-08 -8.80553e-09
0.0148 -1.45751e-08 -2.20715e-08
0.0148 -0.00543987 -0.0011238
0.0197824 -0.0163514 -0.00301089
0.0258779 -0.0272484 -0.00503344
0.0302766 -0.0421263 -0.00516362
0.0287712 -0.0257898 -0.000803367
0.0261155 -1.69196e-07 0.00219626
0.0262596 0.00758324 0.00228889
0.030844 0.0158111 0.00221322
0.0310593 0.0155153 0.00127685
0.0297599 0.013415 0.000321813
0.0285348 0.0107508 -0.00024768
0.0277395 0.00773726 -0.000388119
0.0274583 0.0050876 -0.000305335
0.0274146 0.00318754 -0.000168517
0.0274434 0.00194469 -6.63168e-05
0.0274882 0.00116056 -1.22665e-05
0.0275336 0.000676767 8.87988e-06
0.0275745 0.000384955 1.35191e-05
0.0276084 0.000213119 1.18076e-05
0.0276349 0.000114375 8.58392e-06
0.0276545 5.90373e-05 5.676e-06
0.0276686 2.88543e-05 3.53975e-06
0.0276785 1.29086e-05 2.1207e-06
0.0276852 4.82718e-06 1.23339e-06
0.0276898 9.73723e-07 7.00623e-07
0.0276928 -6.80739e-07 3.90028e-07
0.0276949 -1.24188e-06 2.13056e-07
0.0276963 -1.29593e-06 1.14128e-07
0.0276972 -1.14301e-06 5.97775e-08
0.0276978 -9.29337e-07 3.04261e-08
0.0276982 -7.20571e-07 1.48719e-08
0.0276985 -5.41827e-07 6.81594e-09
0.0276987 -3.98904e-07 2.76957e-09
0.0276988 -2.89243e-07 8.27232e-10
0.0276989 -2.07366e-07 -3.71731e-11
0.027699 -1.47385e-07 -3.67519e-10
0.027699 -1.04053e-07 -4.46575e-10
0.027699 -7.30775e-08 -4.17658e-10
0.0276991 -5.11194e-08 -3.50834e-10
0.0276991 -3.56636e-08 -2.78564e-10
0.0276991 -2.48589e-08 -2.14657e-10
0.0276991 -1.73686e-08 -1.63784e-10
0.0276991 -1.22479e-08 -1.25512e-10
0.0276991 -8.87742e-09 -9.73498e-11
0.0276991 -6.95012e-09 -8.57902e-11
0.0276991 -6.29873e-09 -1.33476e-10
0.0276991 -6.64869e-09 -2.37e-10
0.0276991 -7.82374e-09 -1.0724e-09
0.0276991 -9.52942e-09 -5.61568e-09
0.0276991 -1.04398e-08 -9.37972e-09
0.018 -3.10499e-08 -2.54967e-08
0.018 -0.00659218 -0.00194867
0.0201501 -0.0175715 -0.00531594
0.0199316 -0.0228994 -0.00689132
0.0159084 -0.0248423 -0.00674707
-1.90575e-08 -0.0129223 -0.00322304
1.57911e-06 5.11362e-07 1.04328e-08
-6.00624e-07 6.32156e-07 0.000436224
0.00738053 0.00512107 0.000890556
0.015473 0.0115006 0.000756871
0.018854 0.011992 0.000366277
0.0204592 0.00980399 -4.36191e-05
0.022192 0.00684876 -0.00024297
0.0239291 0.00424766 -0.000223261
0.0253311 0.00252684 -0.000120792
0.0263148 0.00147821 -3.30099e-05
0.0269563 0.000845695 1.30685e-05
0.0273613 0.000467528 2.72404e-05
0.0276135 0.000247169 2.57083e-05
0.0277688 0.000123374 1.92725e-05
0.0278636 5.66742e-05 1.2866e-05
0.0279209 2.24147e-05 8.00481e-06
0.0279552 5.86899e-06 4.74861e-06
0.0279755 -1.39508e-06 2.7198e-06
0.0279876 -4.02518e-06 1.51434e-06
0.0279947 -4.49156e-06 8.22054e-07
0.0279989 -4.05639e-06 4.34877e-07
0.0280014 -3.33314e-06 2.23227e-07
0.0280029 -2.59821e-06 1.10061e-07
0.0280037 -1.95958e-06 5.10138e-08
0.0280043 -1.4455e-06 2.11355e-08
0.0280046 -1.04973e-06 6.66292e-09
0.0280048 -7.53628e-07 1.32279e-10
0.0280049 -5.364e-07 -2.43466e-09
0.028005 -3.79248e-07 -3.11717e-09
0.028005 -2.66731e-07 -2.97526e-09
0.028005 -1.86806e-07 -2.53064e-09
0.028005 -1.30384e-07 -2.02629e-09
0.0280051 -9.07542e-08 -1.56465e-09
0.0280051 -6.30411e-08 -1.18008e-09
0.0280051 -4.37422e-08 -8.76023e-10
0.0280051 -3.03678e-08 -6.43679e-10
0.0280051 -2.11695e-08 -4.7152e-10
0.0280051 -1.49428e-08 -3.5051e-10
0.0280051 -1.08549e-08 -2.77665e-10
0.0280051 -8.28657e-09 -2.75381e-10
0.0280051 -6.76208e-09 -4.01418e-10
0.0280051 -5.90183e-09 -5.99071e-10
0.0280051 -5.51491e-09 -1.52153e-09
0.0280051 -5.40135e-09 -5.85289e-09
0.0280051 -5.36607e-09 -9.35539e-09
0.0196 -3.95694e-08 -4.06382e-08
0.0196 -0.00523582 -0.00276462
0.0190967 -0.0118537 -0.00673549
0.0162511 -0.014303 -0.00725982
0.0115583 -0.0128509 -0.00647984
0.00237036 -0.00516576 -0.00403738
1.1974e-06 -1.10313e-06 -0.000846455
5.02504e-07 -5.02504e-07 -7.19277e-10
-5.84203e-07 6.17046e-07 0.000120665
0.00508631 0.00385857 0.000250625
0.0114424 0.0084051 0.000199753
0.0142126 0.00751235 -3.86514e-05
0.0175956 0.00441782 -0.000272749
0.0209492 0.0020695 -0.000292882
0.0236141 0.00086489 -0.000190304
0.0254146 0.000336579 -7.40045e-05
0.0265213 0.000107534 -2.78048e-06
0.0271734 6.03694e-06 2.33681e-05
0.027551 -3.51013e-05 2.53234e-05
0.0277676 -4.62518e-05 1.92354e-05
0.0278907 -4.36854e-05 1.25629e-05
0.0279599 -3.616e-05 7.53794e-06
0.0279985 -2.79252e-05 4.27861e-06
0.0280198 -2.07061e-05 2.32937e-06
0.0280314 -1.49731e-05 1.22247e-06
0.0280377 -1.06574e-05 6.17113e-07
0.0280411 -7.50929e-06 2.96342e-07
0.0280428 -5.25679e-06 1.31635e-07
0.0280437 -3.66443e-06 5.01879e-08
0.0280442 -2.54728e-06 1.20163e-08
0.0280444 -1.76732e-06 -4.31171e-09
0.0280445 -1.22447e-06 -1.00355e-08
0.0280445 -8.47443e-07 -1.09128e-08
0.0280445 -5.85957e-07 -9.80774e-09
0.0280445 -4.04804e-07 -8.08615e-09
0.0280445 -2.79418e-07 -6.35504e-09
0.0280445 -1.92708e-07 -4.84908e-09
0.0280445 -1.32796e-07 -3.62874e-09
0.0280444 -9.14427e-08 -2.67958e-09
0.0280444 -6.29361e-08 -1.96048e-09
0.0280444 -4.33212e-08 -1.42586e-09
0.0280444 -2.98637e-08 -1.0354e-09
0.0280444 -2.06725e-08 -7.58236e-10
0.0280444 -1.44297e-08 -5.75568e-10
0.0280444 -1.0207e-08 -4.7834e-10
0.0280444 -7.33999e-09 -4.72822e-10
0.0280444 -5.32799e-09 -5.99088e-10
0.0280444 -3.73605e-09 -7.85357e-10
0.0280444 -2.23934e-09 -1.68489e-09
0.0280444 -6.46778e-10 -5.87001e-09
0.0280444 1.936e-10 -9.23808e-09
0.0196 -1.97315e-08 -5.44453e-08
0.0196 -0.00316191 -0.00310035
0.0190322 -0.0066486 -0.00679685
0.0177785 -0.0062366 -0.00682104
0.01417 -0.00258947 -0.00567817
0.0103604 0.00353842 -0.00416673
0.0065672 0.003378 -0.00197726
1.198e-06 -1.00825e-06 -0.000364211
4.24052e-07 -4.24052e-07 -2.01696e-09
-5.65052e-07 6.03353e-07 3.29081e-05
0.00384941 0.00283402 0.000336001
0.00846431 0.00371572 0.000370631
0.0140682 0.000282963 -7.69629e-05
0.0191831 -0.00159895 -0.000350726
0.0229953 -0.00182767 -0.00034698
0.0253553 -0.00138323 -0.000199877
0.0266451 -0.000907091 -7.25907e-05
0.0273142 -0.000571603 -1.09439e-05
0.0276573 -0.000358584 7.80269e-06
0.0278327 -0.000225193 9.42815e-06
0.027922 -0.000141418 6.73018e-06
0.0279668 -8.88159e-05 4.01011e-06
0.0279888 -5.58806e-05 2.15926e-06
0.0279993 -3.53006e-05 1.0741e-06
0.0280041 -2.24335e-05 4.89489e-07
0.028006 -1.43611e-05 1.9414e-07
0.0280066 -9.26732e-06 5.44291e-08
0.0280066 -6.02909e-06 -5.8721e-09
0.0280064 -3.95314e-06 -2.76849e-08
0.0280062 -2.61067e-06 -3.202e-08
0.0280059 -1.73512e-06 -2.92304e-08
0.0280057 -1.15953e-06 -2.41754e-08
0.0280055 -7.7841e-07 -1.89766e-08
0.0280054 -5.24477e-07 -1.44403e-08
0.0280053 -3.5439e-07 -1.07739e-08
0.0280053 -2.3997e-07 -7.93409e-09
0.0280052 -1.62735e-07 -5.79094e-09
0.0280052 -1.10467e-07 -4.20067e-09
0.0280051 -7.50336e-08 -3.03423e-09
0.0280051 -5.09904e-08 -2.18612e-09
0.0280051 -3.46731e-08 -1.57473e-09
0.0280051 -2.36028e-08 -1.13977e-09
0.0280051 -1.60926e-08 -8.38846e-10
0.0280051 -1.09844e-08 -6.43865e-10
0.0280051 -7.46837e-09 -5.37233e-10
0.0280051 -4.95897e-09 -5.21265e-10
0.0280051 -2.99736e-09 -6.38619e-10
0.0280051 -1.12538e-09 -8.07668e-10
0.0280051 1.15728e-09 -1.64596e-09
0.0280051 4.0931e-09 -5.75712e-09
0.0280051 5.72204e-09 -9.09864e-09
0.018 -1.22806e-08 -5.34079e-08
0.018 -0.00150619 -0.00304724
0.0185209 -0.00251318 -0.00645482
0.0189749 -0.000916665 -0.00605781
0.0185182 0.00205085 -0.0046832
0.0184918 0.00768866 -0.00341241
0.0189816 0.0127345 -0.00196118
0.0117084 0.00700635 -0.000873358
1.22588e-06 -7.90626e-07 -0.00029157
-4.56368e-07 -9.07515e-07 8.0984e-09
1.23839e-07 -0.000187633 0.000881511
0.00944707 -0.00281079 0.00137407
0.0171295 -0.00616681 0.000579557
0.0220734 -0.00660563 -7.75306e-05
0.0250343 -0.00508874 -0.000349062
0.026614 -0.00319021 -0.000293553
0.0273366 -0.00180425 -0.000156583
0.0276231 -0.0009961 -6.50833e-05
0.0277202 -0.000555887 -2.33641e-05
0.0277437 -0.000315121 -7.72748e-06
0.0277419 -0.000180873 -2.50345e-06
0.0277334 -0.0001049 -8.84001e-07
0.0277246 -6.1468e-05 -4.00973e-07
0.0277175 -3.64184e-05 -2.47814e-07
0.0277121 -2.18341e-05 -1.82765e-07
0.0277082 -1.32525e-05 -1.40864e-07
0.0277054 -8.14419e-06 -1.07521e-07
0.0277035 -5.0658e-06 -8.03464e-08
0.0277022 -3.18731e-06 -5.8901e-08
0.0277012 -2.02668e-06 -4.25735e-08
0.0277006 -1.30095e-06 -3.04853e-08
0.0277001 -8.42023e-07 -2.17076e-08
0.0276998 -5.48818e-07 -1.5413e-08
0.0276996 -3.59773e-07 -1.09326e-08
0.0276995 -2.36919e-07 -7.75586e-09
0.0276994 -1.56548e-07 -5.50693e-09
0.0276993 -1.03687e-07 -3.91497e-09
0.0276992 -6.87763e-08 -2.78732e-09
0.0276992 -4.56512e-08 -1.98802e-09
0.0276992 -3.03032e-08 -1.42165e-09
0.0276992 -2.0104e-08 -1.02176e-09
0.0276991 -1.33166e-08 -7.42597e-10
0.0276991 -8.78151e-09 -5.53756e-10
0.0276991 -5.71193e-09 -4.36673e-10
0.0276991 -3.55624e-09 -3.80364e-10
0.0276991 -1.90184e-09 -3.90745e-10
0.0276991 -4.054e-10 -5.15717e-10
0.0276991 1.34441e-09 -6.65842e-10
0.0276991 4.08442e-09 -1.38143e-09
0.0276991 8.25793e-09 -5.4207e-09
0.0276991 1.0692e-08 -8.79395e-09
0.0148 -7.4719e-09 -4.62914e-08
0.0148 -0.000602581 -0.00285174
0.016582 -0.000458147 -0.00579482
0.0188806 0.00145774 -0.00507825
0.0210266 0.00428371 -0.00367525
0.0231434 0.00759264 -0.00275688
0.0266353 0.0126765 -0.00187383
0.0297079 0.0199525 -0.00101581
0.0241222 0.0118982 -0.000133203
0.0245594 1.45503e-14 0.000528143
0.0283866 -0.00702823 0.00155564
0.0332828 -0.0140019 0.00245881
0.0341669 -0.0124784 0.00192644
0.0323504 -0.00932805 0.000796697
0.0300322 -0.00610814 -0.000139117
0.028334 -0.00349415 -0.000410061
0.0273243 -0.00181768 -0.00030178
0.0267622 -0.000915035 -0.000154934
0.0264512 -0.000465235 -6.7901e-05
0.0262772 -0.000242627 -2.77219e-05
0.0261786 -0.000129932 -1.09933e-05
0.0261219 -7.12325e-05 -4.32904e-06
0.0260888 -3.98439e-05 -1.71598e-06
0.0260692 -2.26749e-05 -6.90501e-07
0.0260575 -1.31005e-05 -2.82697e-07
0.0260503 -7.67125e-06 -1.16824e-07
0.0260459 -4.54689e-06 -4.75205e-08
0.0260431 -2.72485e-06 -1.7909e-08
0.0260414 -1.64922e-06 -5.1961e-09
0.0260402 -1.00698e-06 8.3577e-11
0.0260395 -6.19467e-07 2.03108e-09
0.026039 -3.834e-07 2.49747e-09
0.0260387 -2.38363e-07 2.34264e-09
0.0260385 -1.48601e-07 1.96858e-09
0.0260383 -9.27213e-08 1.55805e-09
0.0260382 -5.77819e-08 1.18721e-09
0.0260382 -3.58782e-08 8.80953e-10
0.0260381 -2.21357e-08 6.40657e-10
0.0260381 -1.35237e-08 4.58038e-10
0.0260381 -8.14312e-09 3.21841e-10
0.0260381 -4.7951e-09 2.20762e-10
0.0260381 -2.71589e-09 1.44404e-10
0.0260381 -1.41148e-09 8.30913e-11
0.026038 -5.52365e-10 2.71692e-11
0.026038 9.71962e-11 -3.19772e-11
0.026038 7.35475e-10 -1.10065e-10
0.026038 1.56317e-09 -2.53709e-10
0.026038 2.86613e-09 -3.89238e-10
0.026038 5.52722e-09 -9.64863e-10
0.026038 1.02999e-08 -4.78423e-09
0.0260381 1.32272e-08 -8.06666e-09
0.01 -1.4457e-08 -4.1309e-08
0.01 -0.000367383 -0.00239236
0.011918 -4.54706e-05 -0.00456062
0.0148267 0.00128929 -0.00358921