# vtk DataFile Version 2.0
Tobias Weinzierl: CPU, Manycore and Cluster Computing
ASCII

DATASET STRUCTURED_POINTS
DIMENSIONS  51 11 6

ORIGIN 0 0 0 

SPACING 0.1 0.1 0.1 

POINT_DATA 3366

VECTORS velocity float
0 0 0
-4.83987e-15 0 0
-1.32437e-08 0 0
-1.85479e-08 0 0
-1.86905e-08 0 0
-1.55628e-08 0 0
-1.95144e-08 0 0
-2.04519e-08 0 0
-1.97033e-08 0 0
-1.84501e-08 0 0
-1.78137e-08 0 0
-1.7719e-08 0 0
-1.79074e-08 0 0
-1.82086e-08 0 0
-1.85316e-08 0 0
-1.88283e-08 0 0
-1.90785e-08 0 0
-1.92788e-08 0 0
-1.9434e-08 0 0
-1.95519e-08 0 0
-1.96402e-08 0 0
-1.97059e-08 0 0
-1.97546e-08 0 0
-1.97905e-08 0 0
-1.98171e-08 0 0
-1.98367e-08 0 0
-1.98511e-08 0 0
-1.98618e-08 0 0
-1.98697e-08 0 0
-1.98755e-08 0 0
-1.98798e-08 0 0
-1.9883e-08 0 0
-1.98853e-08 0 0
-1.9887e-08 0 0
-1.98883e-08 0 0
-1.98893e-08 0 0
-1.989e-08 0 0
-1.98905e-08 0 0
-1.98909e-08 0 0
-1.98911e-08 0 0
-1.98914e-08 0 0
-1.98915e-08 0 0
-1.98916e-08 0 0
-1.98917e-08 0 0
-1.98918e-08 0 0
-1.98918e-08 0 0
-1.98918e-08 0 0
-1.98919e-08 0 0
-1.98919e-08 0 0
-1.98919e-08 0 0
0.00538275 0 0
0 7.6947e-09 0
5.43701e-16 9.33796e-09 0
-2.36089e-08 1.45689e-08 0
-2.81315e-08 6.52358e-09 0
-2.52671e-08 -7.35039e-10 0
-1.36965e-08 1.77918e-09 0
-2.19833e-08 4.3945e-09 0
-2.27245e-08 -3.82018e-10 0
-2.0746e-08 -2.19517e-09 0
-1.92176e-08 -1.7536e-09 0
-1.97305e-08 -5.26518e-10 0
-2.1191e-08 2.51634e-10 0
-2.26289e-08 5.85051e-10 0
-2.38463e-08 6.74994e-10 0
-2.483e-08 6.44979e-10 0
-2.55959e-08 5.59445e-10 0
-2.61745e-08 4.57195e-10 0
-2.66029e-08 3.59528e-10 0
-2.69162e-08 2.75737e-10 0
-2.71441e-08 2.08101e-10 0
-2.73096e-08 1.55484e-10 0
-2.743e-08 1.15468e-10 0
-2.75176e-08 8.54567e-11 0
-2.75816e-08 6.31324e-11 0
-2.76285e-08 4.66034e-11 0
-2.76628e-08 3.43946e-11 0
-2.76881e-08 2.53863e-11 0
-2.77068e-08 1.87413e-11 0
-2.77205e-08 1.38391e-11 0
-2.77307e-08 1.02213e-11 0
-2.77382e-08 7.55058e-12 0
-2.77437e-08 5.57833e-12 0
-2.77478e-08 4.12149e-12 0
-2.77509e-08 3.04514e-12 0
-2.77531e-08 2.24981e-12 0
-2.77548e-08 1.66205e-12 0
-2.7756e-08 1.22768e-12 0
-2.77569e-08 9.06644e-13 0
-2.77576e-08 6.6935e-13 0
-2.77581e-08 4.93923e-13 0
-2.77585e-08 3.6419e-13 0
-2.77587e-08 2.68189e-13 0
-2.77589e-08 1.97078e-13 0
-2.77591e-08 1.44334e-13 0
-2.77592e-08 1.05184e-13 0
-2.77593e-08 7.62856e-14 0
-2.77593e-08 5.59285e-14 0
-2.77594e-08 4.54455e-14 0
-2.77594e-08 5.45542e-14 0
-2.77595e-08 1.1042e-13 0
0.0115721 -2.15378e-08 0
0 -1.82319e-10 0
6.69536e-14 1.18802e-08 0
-2.32613e-08 1.81906e-08 0
-1.87286e-08 7.5906e-09 0
-1.40967e-08 -6.82361e-09 0
-1.88356e-08 -3.39072e-10 0
-1.88791e-08 7.60496e-09 0
-2.1439e-08 -2.72017e-09 0
-1.5403e-09 -3.66026e-09 0
-6.5466e-10 -6.26035e-11 0
-3.2781e-09 2.85815e-09 0
-6.57397e-09 3.46525e-09 0
-9.02881e-09 2.96738e-09 0
-1.07337e-08 2.3568e-09 0
-1.19318e-08 1.82204e-09 0
-1.27649e-08 1.37679e-09 0
-1.33375e-08 1.02133e-09 0
-1.37296e-08 7.48424e-10 0
-1.39994e-08 5.44829e-10 0
-1.41867e-08 3.9564e-10 0
-1.43183e-08 2.87361e-10 0
-1.44117e-08 2.09077e-10 0
-1.44788e-08 1.52491e-10 0
-1.45274e-08 1.11512e-10 0
-1.45627e-08 8.17493e-11 0
-1.45887e-08 6.0063e-11 0
-1.46077e-08 4.42115e-11 0
-1.46218e-08 3.25921e-11 0
-1.46322e-08 2.40545e-11 0
-1.46398e-08 1.77688e-11 0
-1.46455e-08 1.3134e-11 0
-1.46498e-08 9.71242e-12 0
-1.46529e-08 7.18422e-12 0
-1.46552e-08 5.31495e-12 0
-1.46569e-08 3.93228e-12 0
-1.46582e-08 2.90922e-12 0
-1.46592e-08 2.1521e-12 0
-1.46599e-08 1.59171e-12 0
-1.46604e-08 1.17688e-12 0
-1.46608e-08 8.69743e-13 0
-1.46611e-08 6.42289e-13 0
-1.46613e-08 4.73777e-13 0
-1.46614e-08 3.48881e-13 0
-1.46615e-08 2.56333e-13 0
-1.46616e-08 1.87964e-13 0
-1.46617e-08 1.38006e-13 0
-1.46617e-08 1.02369e-13 0
-1.46618e-08 7.88218e-14 0
-1.46618e-08 6.86645e-14 0
-1.46618e-08 7.46306e-14 0
0.0124101 -1.60976e-08 0
0 -9.41041e-09 0
1.85039e-13 1.00318e-08 0
-2.81622e-08 1.53094e-08 0
-1.67217e-08 8.64878e-09 0
-1.04071e-08 9.54302e-09 0
-2.0702e-08 6.17193e-09 0
-1.64103e-08 3.84003e-14 0
-1.91664e-08 -2.27549e-08 0
-2.3814e-08 -2.41649e-08 0
-1.10959e-08 1.72554e-09 0
-8.5381e-09 7.05266e-09 0
-9.04567e-09 6.94378e-09 0
-1.015e-08 5.21793e-09 0
-1.11347e-08 3.79253e-09 0
-1.18795e-08 2.76226e-09 0
-1.23931e-08 1.99424e-09 0
-1.27365e-08 1.42867e-09 0
-1.29673e-08 1.02085e-09 0
-1.31257e-08 7.30632e-10 0
-1.32372e-08 5.25023e-10 0
-1.33173e-08 3.79142e-10 0
-1.33758e-08 2.75155e-10 0
-1.34189e-08 2.00588e-10 0
-1.34509e-08 1.46792e-10 0
-1.34747e-08 1.07761e-10 0
-1.34925e-08 7.93041e-11 0
-1.35058e-08 5.84738e-11 0
-1.35157e-08 4.31766e-11 0
-1.35231e-08 3.19146e-11 0
-1.35286e-08 2.36076e-11 0
-1.35327e-08 1.74714e-11 0
-1.35357e-08 1.29343e-11 0
-1.3538e-08 9.57706e-12 0
-1.35397e-08 7.09168e-12 0
-1.35409e-08 5.25118e-12 0
-1.35419e-08 3.88798e-12 0
-1.35425e-08 2.87819e-12 0
-1.35431e-08 2.13015e-12 0
-1.35434e-08 1.57597e-12 0
-1.35437e-08 1.16536e-12 0
-1.35439e-08 8.61029e-13 0
-1.35441e-08 6.35351e-13 0
-1.35442e-08 4.6784e-13 0
-1.35443e-08 3.43303e-13 0
-1.35443e-08 2.50484e-13 0
-1.35444e-08 1.8117e-13 0
-1.35444e-08 1.2999e-13 0
-1.35444e-08 9.38404e-14 0
-1.35444e-08 7.06162e-14 0
-1.35445e-08 5.67241e-14 0
0.0124423 -1.02441e-08 0
0 -1.60231e-08 0
2.73584e-13 5.35674e-09 0
-3.42966e-08 6.75553e-09 0
-2.09573e-08 4.58329e-09 0
-9.6704e-09 7.75528e-09 0
-3.68281e-14 4.57075e-09 0
-9.59899e-13 -9.29126e-13 0
8.11086e-13 -9.91669e-13 0
-2.33163e-08 -1.43206e-08 0
-2.56352e-08 -1.54203e-08 0
-1.51122e-08 1.70115e-09 0
-1.35651e-08 5.83978e-09 0
-1.31566e-08 5.48069e-09 0
-1.31598e-08 4.26542e-09 0
-1.3224e-08 3.13221e-09 0
-1.32667e-08 2.2349e-09 0
-1.3297e-08 1.58237e-09 0
-1.33245e-08 1.12415e-09 0
-1.33515e-08 8.04625e-10 0
-1.33773e-08 5.80568e-10 0
-1.34009e-08 4.21879e-10 0
-1.34213e-08 3.08318e-10 0
-1.34384e-08 2.26309e-10 0
-1.34523e-08 1.66646e-10 0
-1.34633e-08 1.22995e-10 0
-1.3472e-08 9.09238e-11 0
-1.34786e-08 6.72887e-11 0
-1.34838e-08 4.98331e-11 0
-1.34876e-08 3.6922e-11 0
-1.34906e-08 2.73628e-11 0
-1.34928e-08 2.02807e-11 0
-1.34944e-08 1.50316e-11 0
-1.34957e-08 1.11404e-11 0
-1.34966e-08 8.25544e-12 0
-1.34973e-08 6.11658e-12 0
-1.34978e-08 4.53094e-12 0
-1.34981e-08 3.35553e-12 0
-1.34984e-08 2.48427e-12 0
-1.34986e-08 1.83847e-12 0
-1.34988e-08 1.35976e-12 0
-1.34989e-08 1.0048e-12 0
-1.3499e-08 7.41411e-13 0
-1.3499e-08 5.45713e-13 0
-1.34991e-08 3.99975e-13 0
-1.34991e-08 2.91092e-13 0
-1.34991e-08 2.09472e-13 0
-1.34992e-08 1.48102e-13 0
-1.34992e-08 1.01935e-13 0
-1.34992e-08 6.70498e-14 0
-1.34992e-08 3.90781e-14 0
0.0124432 -5.00046e-09 0
0 -1.33144e-08 0
3.56562e-13 2.28856e-09 0
-3.87467e-08 3.45191e-09 0
-2.70151e-08 1.09382e-09 0
-1.61382e-08 -3.7766e-10 0
-7.57325e-09 -3.08137e-10 0
-9.49744e-13 8.83783e-13 0
-7.26975e-14 7.26975e-14 0
7.82197e-13 -8.39976e-13 0
-1.44265e-08 -7.85264e-09 0
-1.58194e-08 -5.35165e-09 0
-1.72765e-08 5.33506e-09 0
-1.63862e-08 5.12776e-09 0
-1.53489e-08 3.97792e-09 0
-1.45858e-08 2.87584e-09 0
-1.41075e-08 2.03754e-09 0
-1.38308e-08 1.45436e-09 0
-1.36763e-08 1.0511e-09 0
-1.35915e-08 7.67665e-10 0
-1.35456e-08 5.64848e-10 0
-1.35211e-08 4.17628e-10 0
-1.35084e-08 3.09678e-10 0
-1.35019e-08 2.29998e-10 0
-1.34988e-08 1.70949e-10 0
-1.34975e-08 1.27089e-10 0
-1.3497e-08 9.44756e-11 0
-1.34969e-08 7.02144e-11 0
-1.3497e-08 5.21665e-11 0
-1.34972e-08 3.87437e-11 0
-1.34974e-08 2.87642e-11 0
-1.34975e-08 2.13474e-11 0
-1.34976e-08 1.58376e-11 0
-1.34977e-08 1.17459e-11 0
-1.34978e-08 8.70853e-12 0
-1.34979e-08 6.45456e-12 0
-1.34979e-08 4.78246e-12 0
-1.34979e-08 3.54236e-12 0
-1.3498e-08 2.62284e-12 0
-1.3498e-08 1.94111e-12 0
-1.3498e-08 1.43567e-12 0
-1.3498e-08 1.06083e-12 0
-1.3498e-08 7.82629e-13 0
-1.3498e-08 5.75841e-13 0
-1.3498e-08 4.21691e-13 0
-1.3498e-08 3.06188e-13 0
-1.3498e-08 2.18881e-13 0
-1.3498e-08 1.51927e-13 0
-1.3498e-08 9.94022e-14 0
-1.3498e-08 5.65219e-14 0
-1.3498e-08 1.91255e-14 0
0.0124432 4.31692e-11 0
0 -8.66476e-09 0
3.90981e-13 -8.93214e-10 0
-3.84636e-08 -9.33742e-10 0
-2.70292e-08 -6.56039e-10 0
-1.89357e-08 -1.0689e-09 0
-1.43057e-08 -7.56203e-09 0
-1.12407e-08 -7.10864e-09 0
-9.64431e-13 8.03136e-13 0
-2.09392e-14 2.09392e-14 0
8.02807e-13 -7.61588e-13 0
-7.88412e-09 4.30959e-09 0
-2.40652e-08 6.71468e-09 0
-2.07585e-08 3.93236e-09 0
-1.71345e-08 2.61074e-09 0
-1.53873e-08 1.89963e-09 0
-1.45551e-08 1.44583e-09 0
-1.41283e-08 1.11573e-09 0
-1.38943e-08 8.59177e-10 0
-1.37583e-08 6.57981e-10 0
-1.3675e-08 5.01136e-10 0
-1.36216e-08 3.7983e-10 0
-1.35861e-08 2.86696e-10 0
-1.35618e-08 2.15646e-10 0
-1.35448e-08 1.61736e-10 0
-1.35326e-08 1.21016e-10 0
-1.35238e-08 9.03727e-11 0
-1.35174e-08 6.73821e-11 0
-1.35127e-08 5.01756e-11 0
-1.35092e-08 3.73235e-11 0
-1.35066e-08 2.77391e-11 0
-1.35047e-08 2.0601e-11 0
-1.35033e-08 1.52903e-11 0
-1.35023e-08 1.13427e-11 0
-1.35015e-08 8.41033e-12 0
-1.35009e-08 6.23347e-12 0
-1.35005e-08 4.61826e-12 0
-1.35001e-08 3.42027e-12 0
-1.34999e-08 2.532e-12 0
-1.34997e-08 1.87351e-12 0
-1.34996e-08 1.38537e-12 0
-1.34995e-08 1.0234e-12 0
-1.34994e-08 7.54788e-13 0
-1.34994e-08 5.55092e-13 0
-1.34993e-08 4.0609e-13 0
-1.34993e-08 2.941e-13 0
-1.34993e-08 2.08733e-13 0
-1.34993e-08 1.41978e-13 0
-1.34993e-08 8.75821e-14 0
-1.34992e-08 4.05322e-14 0
-1.34993e-08 -2.71995e-15 0
0.0124432 5.0817e-09 0
0 -5.8054e-09 0
3.12222e-13 -3.77805e-09 0
-3.50967e-08 -4.90937e-09 0
-2.56503e-08 -1.97121e-09 0
-1.9137e-08 -2.81963e-09 0
-1.61536e-08 -3.89021e-09 0
-1.85305e-08 -1.2839e-08 0
-1.40103e-08 -1.09286e-08 0
-9.64291e-13 6.41981e-13 0
8.76811e-13 5.5516e-13 0
7.48633e-14 1.83117e-08 0
-3.22872e-08 1.83859e-08 0
-2.44588e-08 -8.89319e-10 0
-1.74811e-08 -9.02174e-10 0
-1.52221e-08 4.43575e-10 0
-1.44938e-08 7.97154e-10 0
-1.41838e-08 7.8136e-10 0
-1.40093e-08 6.67639e-10 0
-1.38924e-08 5.39477e-10 0
-1.38074e-08 4.2335e-10 0
-1.37435e-08 3.26469e-10 0
-1.36949e-08 2.48936e-10 0
-1.3658e-08 1.88367e-10 0
-1.36299e-08 1.41768e-10 0
-1.36086e-08 1.06281e-10 0
-1.35925e-08 7.94472e-11 0
-1.35804e-08 5.926e-11 0
-1.35713e-08 4.41291e-11 0
-1.35645e-08 3.28193e-11 0
-1.35594e-08 2.43833e-11 0
-1.35556e-08 1.81009e-11 0
-1.35528e-08 1.34282e-11 0
-1.35507e-08 9.95613e-12 0
-1.35491e-08 7.37828e-12 0
-1.35479e-08 5.46557e-12 0
-1.3547e-08 4.04712e-12 0
-1.35464e-08 2.99565e-12 0
-1.35459e-08 2.21647e-12 0
-1.35456e-08 1.63918e-12 0
-1.35453e-08 1.21147e-12 0
-1.35451e-08 8.9449e-13 0
-1.35449e-08 6.5937e-13 0
-1.35448e-08 4.84619e-13 0
-1.35448e-08 3.54173e-13 0
-1.35447e-08 2.55894e-13 0
-1.35447e-08 1.80385e-13 0
-1.35446e-08 1.20075e-13 0
-1.35446e-08 6.86506e-14 0
-1.35446e-08 2.09037e-14 0
-1.35446e-08 -2.60642e-14 0
0.0124423 1.03087e-08 0
0 -5.7853e-09 0
1.86432e-13 -5.63508e-09 0
-2.96918e-08 -7.47072e-09 0
-2.36569e-08 -2.42762e-09 0
-1.91946e-08 -1.15349e-09 0
-1.90638e-08 -3.77194e-09 0
-2.07026e-08 -7.27802e-09 0
-3.04401e-08 -1.78244e-08 0
-2.92234e-08 -1.37568e-08 0
-2.03432e-08 -3.49032e-18 0
-1.19367e-08 3.43663e-08 0
-3.91974e-09 2.95975e-08 0
-9.84861e-09 -9.59525e-09 0
-1.34845e-08 -5.75934e-09 0
-1.47809e-08 -7.71899e-10 0
-1.5167e-08 4.99747e-10 0
-1.52294e-08 6.54194e-10 0
-1.51793e-08 5.72237e-10 0
-1.50967e-08 4.56512e-10 0
-1.50121e-08 3.52197e-10 0
-1.49371e-08 2.6751e-10 0
-1.48747e-08 2.01448e-10 0
-1.48246e-08 1.50907e-10 0
-1.47854e-08 1.12659e-10 0
-1.47551e-08 8.39101e-11 0
-1.47319e-08 6.23949e-11 0
-1.47143e-08 4.63411e-11 0
-1.47011e-08 3.43869e-11 0
-1.46911e-08 2.54985e-11 0
-1.46837e-08 1.8897e-11 0
-1.46781e-08 1.39981e-11 0
-1.46739e-08 1.0365e-11 0
-1.46708e-08 7.67218e-12 0
-1.46685e-08 5.67713e-12 0
-1.46668e-08 4.19962e-12 0
-1.46655e-08 3.10575e-12 0
-1.46646e-08 2.29612e-12 0
-1.46639e-08 1.69699e-12 0
-1.46634e-08 1.25367e-12 0
-1.4663e-08 9.25634e-13 0
-1.46627e-08 6.82807e-13 0
-1.46625e-08 5.02889e-13 0
-1.46623e-08 3.69297e-13 0
-1.46622e-08 2.69631e-13 0
-1.46621e-08 1.94482e-13 0
-1.46621e-08 1.36427e-13 0
-1.4662e-08 8.90465e-14 0
-1.4662e-08 4.60005e-14 0
-1.4662e-08 4.52279e-16 0
-1.4662e-08 -5.24532e-14 0
0.0124101 1.61261e-08 0
0 -7.62803e-09 0
9.11205e-14 -5.15632e-09 0
-2.79614e-08 -6.6882e-09 0
-2.89474e-08 -1.96927e-09 0
-2.8044e-08 6.40598e-11 0
-2.7558e-08 2.46941e-09 0
-2.89091e-08 2.09262e-09 0
-3.03513e-08 -1.19968e-09 0
-4.3434e-08 -1.27432e-08 0
-4.66004e-08 -2.35134e-08 0
-5.10597e-08 -5.37484e-09 0
-1.94994e-08 1.31674e-08 0
-2.45371e-08 9.8173e-09 0
-2.90359e-08 5.02616e-09 0
-2.97557e-08 2.5243e-09 0
-2.95052e-08 1.37461e-09 0
-2.91355e-08 8.31335e-10 0
-2.88117e-08 5.44356e-10 0
-2.85544e-08 3.73587e-10 0
-2.83562e-08 2.63084e-10 0
-2.82056e-08 1.88006e-10 0
-2.80922e-08 1.35587e-10 0
-2.80071e-08 9.83927e-11 0
-2.79435e-08 7.17227e-11 0
-2.78961e-08 5.24562e-11 0
-2.78609e-08 3.8461e-11 0
-2.78346e-08 2.8252e-11 0
-2.78152e-08 2.07812e-11 0
-2.78007e-08 1.53011e-11 0
-2.779e-08 1.12739e-11 0
-2.77821e-08 8.31071e-12 0
-2.77762e-08 6.12824e-12 0
-2.77719e-08 4.51977e-12 0
-2.77686e-08 3.33379e-12 0
-2.77663e-08 2.45906e-12 0
-2.77645e-08 1.81377e-12 0
-2.77632e-08 1.33769e-12 0
-2.77622e-08 9.86399e-13 0
-2.77615e-08 7.27167e-13 0
-2.7761e-08 5.35824e-13 0
-2.77606e-08 3.94526e-13 0
-2.77603e-08 2.9008e-13 0
-2.77601e-08 2.1271e-13 0
-2.77599e-08 1.55124e-13 0
-2.77598e-08 1.11796e-13 0
-2.77598e-08 7.83435e-14 0
-2.77597e-08 5.0736e-14 0
-2.77597e-08 2.37278e-14 0
-2.77597e-08 -1.52373e-14 0
-2.77597e-08 -9.81034e-14 0
0.0115721 2.14922e-08 0
0 0 0
3.23758e-14 0 0
-1.46189e-08 0 0
-1.75462e-08 0 0
-1.84054e-08 0 0
-1.79154e-08 0 0
-1.54964e-08 0 0
-1.39214e-08 0 0
-1.42107e-08 0 0
-2.62571e-08 0 0
-3.9123e-08 0 0
-3.34567e-08 0 0
-2.74611e-08 0 0
-2.41258e-08 0 0
-2.24175e-08 0 0
-2.15134e-08 0 0
-2.09906e-08 0 0
-2.0661e-08 0 0
-2.04404e-08 0 0
-2.02874e-08 0 0
-2.01791e-08 0 0
-2.01014e-08 0 0
-2.00453e-08 0 0
-2.00045e-08 0 0
-1.99746e-08 0 0
-1.99528e-08 0 0
-1.99368e-08 0 0
-1.9925e-08 0 0
-1.99163e-08 0 0
-1.99099e-08 0 0
-1.99052e-08 0 0
-1.99017e-08 0 0
-1.98992e-08 0 0
-1.98973e-08 0 0
-1.98959e-08 0 0
-1.98948e-08 0 0
-1.98941e-08 0 0
-1.98935e-08 0 0
-1.98931e-08 0 0
-1.98928e-08 0 0
-1.98926e-08 0 0
-1.98924e-08 0 0
-1.98923e-08 0 0
-1.98922e-08 0 0
-1.98921e-08 0 0
-1.98921e-08 0 0
-1.98921e-08 0 0
-1.9892e-08 0 0
-1.9892e-08 0 0
-1.98921e-08 0 0
0.00538276 0 0
0 0 5.87675e-09
2.96402e-14 0 3.90578e-09
-2.51083e-08 0 3.97896e-09
-2.93083e-08 0 -1.07678e-09
-2.41082e-08 0 -2.25002e-09
-1.15049e-08 0 -9.55276e-10
-1.72682e-08 0 4.94538e-10
-1.81665e-08 0 5.70884e-10
-1.7731e-08 0 1.93375e-10
-1.74368e-08 0 -1.36024e-10
-1.85258e-08 0 -2.04497e-10
-2.02352e-08 0 -1.57928e-10
-2.19276e-08 0 -9.55262e-11
-2.33646e-08 0 -5.07673e-11
-2.45091e-08 0 -2.52625e-11
-2.53854e-08 0 -1.25532e-11
-2.6038e-08 0 -6.67529e-12
-2.65152e-08 0 -3.98927e-12
-2.68604e-08 0 -2.67666e-12
-2.71088e-08 0 -1.93853e-12
-2.72874e-08 0 -1.45437e-12
-2.7416e-08 0 -1.10199e-12
-2.75089e-08 0 -8.33596e-13
-2.75762e-08 0 -6.27044e-13
-2.76252e-08 0 -4.68788e-13
-2.7661e-08 0 -3.48584e-13
-2.76872e-08 0 -2.58073e-13
-2.77064e-08 0 -1.9042e-13
-2.77206e-08 0 -1.40144e-13
-2.77311e-08 0 -1.02945e-13
-2.77388e-08 0 -7.55131e-14
-2.77445e-08 0 -5.53329e-14
-2.77487e-08 0 -4.05142e-14
-2.77518e-08 0 -2.96463e-14
-2.77541e-08 0 -2.16841e-14
-2.77558e-08 0 -1.58549e-14
-2.77571e-08 0 -1.15888e-14
-2.7758e-08 0 -8.46806e-15
-2.77587e-08 0 -6.18603e-15
-2.77592e-08 0 -4.51752e-15
-2.77596e-08 0 -3.30083e-15
-2.77599e-08 0 -2.42135e-15
-2.77601e-08 0 -1.80436e-15
-2.77602e-08 0 -1.41637e-15
-2.77604e-08 0 -1.26261e-15
-2.77604e-08 0 -1.30599e-15
-2.77605e-08 0 -9.40261e-16
-2.77605e-08 0 2.79652e-15
-2.77606e-08 0 2.09008e-14
-2.77607e-08 0 8.25231e-14
0.0115721 0 -1.82464e-08
0.0036 1.09498e-08 5.73517e-09
0.00359998 -0.0050195 -0.00253278
0.0139992 -0.00944296 -0.00415857
0.0238202 -0.00872697 -0.00255421
0.033678 -0.00832288 -0.00145677
0.0446824 -0.00501803 -0.000737331
0.0461344 -0.000645957 -0.000304696
0.045631 0.00225721 -0.000144577
0.0403136 0.0040362 -9.48534e-05
0.0353504 0.00393574 -7.63085e-05
0.0314015 0.00312387 -4.77447e-05
0.0286667 0.00219733 -2.67858e-05
0.0269374 0.00142145 -1.41826e-05
0.0259102 0.000861992 -7.20589e-06
0.0253331 0.000493466 -3.56693e-06
0.0250284 0.000265744 -1.75397e-06
0.0248804 0.00013237 -8.75327e-07
0.0248179 5.82028e-05 -4.5229e-07
0.0247994 1.93e-05 -2.45547e-07
0.0248016 4.40487e-07 -1.4097e-07
0.0248122 -7.55843e-06 -8.5424e-08
0.024825 -9.99763e-06 -5.42316e-08
0.0248372 -9.81297e-06 -3.57285e-08
0.0248477 -8.5594e-06 -2.42082e-08
0.0248562 -7.01526e-06 -1.67455e-08
0.0248628 -5.53806e-06 -1.17596e-08
0.0248679 -4.26683e-06 -8.34963e-09
0.0248718 -3.2335e-06 -5.97621e-09
0.0248747 -2.42221e-06 -4.30262e-09
0.0248768 -1.79951e-06 -3.11108e-09
0.0248784 -1.32889e-06 -2.25666e-09
0.0248795 -9.77042e-07 -1.64073e-09
0.0248804 -7.16013e-07 -1.195e-09
0.024881 -5.23451e-07 -8.71538e-10
0.0248815 -3.81981e-07 -6.36359e-10
0.0248818 -2.78363e-07 -4.6521e-10
0.024882 -2.02641e-07 -3.40727e-10
0.0248822 -1.47395e-07 -2.50505e-10
0.0248823 -1.07139e-07 -1.85805e-10
0.0248824 -7.7831e-08 -1.40718e-10
0.0248825 -5.6506e-08 -1.1168e-10
0.0248825 -4.09959e-08 -9.72544e-11
0.0248826 -2.97203e-08 -9.8003e-11
0.0248826 -2.15349e-08 -1.16005e-10
0.0248826 -1.56256e-08 -1.53047e-10
0.0248826 -1.14469e-08 -2.07668e-10
0.0248826 -8.73524e-09 -3.01229e-10
0.0248827 -7.92806e-09 -8.81637e-10
0.0248827 -1.29664e-08 -5.70727e-09
0.0248827 -3.34383e-08 -2.47182e-08
0.0248827 -4.90672e-08 -3.94218e-08
0.01 1.09884e-08 6.56712e-09
0.01 -0.00802614 -0.00449705
0.0178175 -0.0161094 -0.00715253
0.0259367 -0.0168746 -0.00398615
0.035299 -0.0191609 -0.00200543
0.0527763 -0.0115005 -0.000801438
0.0520704 -0.000453836 -0.000172928
0.0525961 0.00608644 -6.36468e-05
0.042877 0.0104272 -7.65227e-05
0.0360085 0.00899748 -0.000103331
0.0317254 0.00673103 -6.74849e-05
0.0291473 0.00448948 -3.50406e-05
0.0277535 0.00276985 -1.74019e-05
0.0270463 0.00161113 -8.19056e-06
0.0267141 0.000885211 -3.63169e-06
0.0265777 0.000454465 -1.52122e-06
0.0265376 0.000211423 -6.02101e-07
0.026541 8.14838e-05 -2.2366e-07
0.026561 1.65475e-05 -7.64211e-08
0.0265851 -1.27124e-05 -2.28435e-08
0.0266076 -2.33713e-05 -5.13687e-09
0.0266267 -2.49696e-05 -2.3886e-10
0.026642 -2.26194e-05 5.57551e-10
0.0266539 -1.89276e-05 3.07728e-10
0.026663 -1.51332e-05 -3.90956e-11
0.0266698 -1.17571e-05 -2.60875e-10
0.0266749 -8.96105e-06 -3.5493e-10
0.0266786 -6.74022e-06 -3.6525e-10
0.0266814 -5.02252e-06 -3.31899e-10
0.0266834 -3.71739e-06 -2.81339e-10
0.0266849 -2.73789e-06 -2.28404e-10
0.026686 -2.00919e-06 -1.80234e-10
0.0266867 -1.47049e-06 -1.39509e-10
0.0266873 -1.07406e-06 -1.06586e-10
0.0266877 -7.83332e-07 -8.07729e-11
0.026688 -5.70646e-07 -6.10235e-11
0.0266883 -4.15345e-07 -4.63128e-11
0.0266884 -3.02102e-07 -3.58304e-11
0.0266885 -2.19611e-07 -2.9108e-11
0.0266886 -1.59568e-07 -2.61474e-11
0.0266887 -1.1589e-07 -2.75916e-11
0.0266887 -8.41404e-08 -3.49433e-11
0.0266888 -6.10947e-08 -5.07266e-11
0.0266888 -4.4439e-08 -7.82366e-11
0.0266888 -3.25721e-08 -1.2021e-10
0.0266888 -2.45367e-08 -1.7789e-10
0.0266888 -2.01444e-08 -2.84559e-10
0.0266888 -2.01041e-08 -9.33221e-10
0.0266888 -2.4713e-08 -6.11872e-09
0.0266889 -3.39572e-08 -2.56734e-08
0.0266889 -3.98053e-08 -4.06175e-08
0.0148 -9.53467e-09 1.57317e-08
0.0148 -0.0088685 -0.00610385
0.0198391 -0.0185759 -0.00975872
0.0242511 -0.021807 -0.00537356
0.0264329 -0.0327237 -0.00255301
0.0278965 -0.0206244 -0.000847947
0.0268794 -1.55342e-07 -9.07064e-06
0.0276334 0.011712 1.20373e-05
0.0330932 0.02077 -4.47142e-06
0.0299868 0.0151786 -3.74125e-05
0.0275507 0.0100361 -4.46555e-05
0.0263605 0.00619623 -2.98715e-05
0.025984 0.00353643 -1.56808e-05
0.0259916 0.0019085 -6.93831e-06
0.0261294 0.000965618 -2.55871e-06
0.0262845 0.000443905 -7.11413e-07
0.0264164 0.000169868 -5.50109e-08
0.0265167 3.51652e-05 1.19753e-07
0.026589 -2.45957e-05 1.28956e-07
0.0266399 -4.60234e-05 9.59824e-08
0.0266753 -4.91145e-05 6.19865e-08
0.0266999 -4.43626e-05 3.69781e-08
0.026717 -3.70161e-05 2.08648e-08
0.0267289 -2.95236e-05 1.12175e-08
0.0267373 -2.28921e-05 5.72245e-09
0.0267433 -1.74211e-05 2.71779e-09
0.0267475 -1.30881e-05 1.14049e-09
0.0267505 -9.74395e-06 3.52727e-10
0.0267527 -7.20717e-06 -1.25556e-11
0.0267542 -5.30563e-06 -1.60037e-10
0.0267554 -3.89222e-06 -2.00705e-10
0.0267562 -2.848e-06 -1.93015e-10
0.0267568 -2.07994e-06 -1.66668e-10
0.0267572 -1.51683e-06 -1.35999e-10
0.0267575 -1.10498e-06 -1.07369e-10
0.0267577 -8.0429e-07 -8.3156e-11
0.0267579 -5.85051e-07 -6.38935e-11
0.026758 -4.25357e-07 -4.93923e-11
0.0267581 -3.0912e-07 -3.9355e-11
0.0267581 -2.24562e-07 -3.37469e-11
0.0267582 -1.63077e-07 -3.30868e-11
0.0267582 -1.18397e-07 -3.87157e-11
0.0267582 -8.59713e-08 -5.29793e-11
0.0267583 -6.25287e-08 -7.89893e-11
0.0267583 -4.57663e-08 -1.19207e-10
0.0267583 -3.41334e-08 -1.73398e-10
0.0267583 -2.66252e-08 -2.65575e-10
0.0267583 -2.26368e-08 -8.39872e-10
0.0267583 -2.21305e-08 -5.68638e-09
0.0267583 -2.45965e-08 -2.41033e-08
0.0267583 -2.64018e-08 -3.81863e-08
0.018 -2.84963e-08 1.43712e-08
0.018 -0.00775686 -0.00727418
0.0204526 -0.0162791 -0.0117286
0.0208371 -0.0173636 -0.00639976
0.0160317 -0.0194615 -0.00292761
-3.62735e-09 -0.0106201 -0.000982223
1.90151e-06 8.62206e-07 1.54026e-09
-8.90653e-07 9.78187e-07 -3.54374e-07
0.0117235 0.00815728 1.57602e-05
0.0207909 0.0145955 2.12496e-05
0.0216004 0.0103937 -4.19679e-06
0.0225067 0.00607782 -1.77567e-05
0.0236987 0.00315056 -1.22591e-05
0.024714 0.00147182 -4.98028e-06
0.025454 0.000595242 -1.22518e-06
0.0259483 0.0001688 1.37336e-07
0.0262619 -2.01417e-05 4.43457e-07
0.0264552 -9.08911e-05 3.94027e-07
0.0265727 -0.000106548 2.71987e-07
0.0266438 -9.8921e-05 1.66901e-07
0.0266869 -8.33112e-05 9.51268e-08
0.0267134 -6.6631e-05 5.11184e-08
0.0267297 -5.16741e-05 2.58545e-08
0.02674 -3.92938e-05 1.20541e-08
0.0267466 -2.94894e-05 4.86081e-09
0.0267509 -2.19317e-05 1.31561e-09
0.0267538 -1.62071e-05 -2.90111e-10
0.0267557 -1.19221e-05 -9.06544e-10
0.026757 -8.74092e-06 -1.04568e-09
0.0267579 -6.39302e-06 -9.74694e-10
0.0267585 -4.66739e-06 -8.27583e-10
0.026759 -3.403e-06 -6.67769e-10
0.0267593 -2.47865e-06 -5.22355e-10
0.0267595 -1.80401e-06 -4.00495e-10
0.0267597 -1.31224e-06 -3.03019e-10
0.0267598 -9.54098e-07 -2.27347e-10
0.0267599 -6.93453e-07 -1.69898e-10
0.02676 -5.0386e-07 -1.27225e-10
0.02676 -3.66001e-07 -9.65293e-11
0.02676 -2.65784e-07 -7.59086e-11
0.02676 -1.92944e-07 -6.45463e-11
0.0267601 -1.40011e-07 -6.29182e-11
0.0267601 -1.01558e-07 -7.29645e-11
0.0267601 -7.3651e-08 -9.78561e-11
0.0267601 -5.34469e-08 -1.4031e-10
0.0267601 -3.88985e-08 -1.987e-10
0.0267601 -2.85489e-08 -2.8675e-10
0.0267601 -2.13805e-08 -8.17999e-10
0.0267601 -1.68428e-08 -5.50237e-09
0.0267601 -1.41694e-08 -2.34984e-08
0.0267601 -1.3141e-08 -3.72859e-08
0.0196 -2.90354e-08 3.04402e-09
0.0196 -0.00500527 -0.00789035
0.0206693 -0.0101832 -0.012755
0.0194857 -0.00994141 -0.00687644
0.0145766 -0.00793456 -0.00299548
0.00432573 -0.00317111 -0.00123108
1.50722e-06 -1.40091e-06 -0.000247415
5.10262e-07 -5.10262e-07 -5.5614e-10
-8.57888e-07 9.23418e-07 -1.61803e-06
0.00816124 0.00531926 3.27729e-06
0.0146033 0.00833672 -9.05564e-07
0.018263 0.00411194 -1.44778e-05
0.0215085 0.0013383 -1.26876e-05
0.0236997 0.000158 -5.10668e-06
0.0250328 -0.000266435 -1.07225e-06
0.0258018 -0.000362933 3.07787e-07
0.0262336 -0.000336568 5.38884e-07
0.0264726 -0.000275433 4.24161e-07
0.0266038 -0.000213113 2.67628e-07
0.0266755 -0.000160267 1.50193e-07
0.0267145 -0.000118693 7.70952e-08
0.0267356 -8.71585e-05 3.58571e-08
0.0267471 -6.36963e-05 1.4175e-08
0.0267532 -4.64238e-05 3.53895e-09
0.0267565 -3.37832e-05 -1.20481e-09
0.0267583 -2.45631e-05 -2.96402e-09
0.0267592 -1.78507e-05 -3.30372e-09
0.0267597 -1.29691e-05 -3.03308e-09
0.0267599 -9.42101e-06 -2.55226e-09
0.0267601 -6.84299e-06 -2.04697e-09
0.0267601 -4.97015e-06 -1.59419e-09
0.0267602 -3.60974e-06 -1.21806e-09
0.0267602 -2.62161e-06 -9.1873e-10
0.0267602 -1.90391e-06 -6.86816e-10
0.0267602 -1.38264e-06 -5.10322e-10
0.0267602 -1.00405e-06 -3.77731e-10
0.0267602 -7.29076e-07 -2.79186e-10
0.0267602 -5.29367e-07 -2.06818e-10
0.0267602 -3.84314e-07 -1.54701e-10
0.0267601 -2.78949e-07 -1.18744e-10
0.0267601 -2.02398e-07 -9.66328e-11
0.0267601 -1.46758e-07 -8.78905e-11
0.0267601 -1.06281e-07 -9.3923e-11
0.0267601 -7.67774e-08 -1.17583e-10
0.0267601 -5.51755e-08 -1.60958e-10
0.0267601 -3.91981e-08 -2.2054e-10
0.0267601 -2.71254e-08 -3.06182e-10
0.0267601 -1.76552e-08 -8.23023e-10
0.0267601 -9.89803e-09 -5.46313e-09
0.0267601 -3.17463e-09 -2.33587e-08
0.0267601 1.55649e-11 -3.70784e-08
0.0196 -1.8632e-08 -8.83779e-09
0.0196 -0.00198406 -0.00790911
0.0209787 -0.00393775 -0.0127528
0.0207529 -0.00322294 -0.00686154
0.0177708 -0.000266603 -0.00293773
0.0134871 0.0056902 -0.00140001
0.00847551 0.00468758 -0.000608367
1.51486e-06 -1.28697e-06 -0.000128204
4.29083e-07 -4.29083e-07 -4.19214e-10
-8.302e-07 8.85576e-07 -7.98133e-07
0.00532091 0.000300764 2.18814e-06
0.0140492 -0.000817339 -1.45531e-05
0.0203064 -0.00227783 -2.75256e-05
0.023587 -0.00204767 -1.34407e-05
0.0252118 -0.00150466 -4.31556e-06
0.026014 -0.00103106 -9.61588e-07
0.02641 -0.000690493 -4.54595e-08
0.0266042 -0.000460907 1.09636e-07
0.0266979 -0.000309346 8.42855e-08
0.0267416 -0.000209554 4.07725e-08
0.0267607 -0.000143448 1.17768e-08
0.026768 -9.92112e-05 -2.92803e-09
0.0267699 -6.92619e-05 -8.7663e-09
0.0267693 -4.87471e-05 -1.00298e-08
0.026768 -3.45419e-05 -9.26439e-09
0.0267664 -2.46115e-05 -7.79204e-09
0.026765 -1.76134e-05 -6.23161e-09
0.0267639 -1.26487e-05 -4.83626e-09
0.0267629 -9.10788e-06 -3.6826e-09
0.0267622 -6.57177e-06 -2.76912e-09
0.0267617 -4.74931e-06 -2.06453e-09
0.0267613 -3.43633e-06 -1.53013e-09
0.026761 -2.48855e-06 -1.12935e-09
0.0267607 -1.80338e-06 -8.31131e-10
0.0267606 -1.3075e-06 -6.10502e-10
0.0267604 -9.48298e-07 -4.48041e-10
0.0267603 -6.87942e-07 -3.29e-10
0.0267603 -4.99133e-07 -2.4242e-10
0.0267602 -3.6215e-07 -1.80404e-10
0.0267602 -2.62723e-07 -1.37592e-10
0.0267602 -1.90513e-07 -1.10871e-10
0.0267602 -1.38017e-07 -9.929e-11
0.0267601 -9.97721e-08 -1.04012e-10
0.0267601 -7.17813e-08 -1.27809e-10
0.0267601 -5.10809e-08 -1.72809e-10
0.0267601 -3.54148e-08 -2.35666e-10
0.0267601 -2.29809e-08 -3.26872e-10
0.0267601 -1.2264e-08 -8.54847e-10
0.0267601 -2.05992e-09 -5.52566e-09
0.0267601 8.10509e-09 -2.34945e-08
0.0267601 1.31702e-08 -3.72642e-08
0.018 -1.25527e-08 -1.57382e-08
0.018 0.000468642 -0.00739872
0.0206229 0.000864149 -0.0118625
0.0220988 0.0012625 -0.00636126
0.0216505 0.00327858 -0.00276375
0.0211101 0.00812392 -0.0013165
0.0218357 0.014374 -0.000685338
0.0138832 0.00866164 -0.000300996
1.54716e-06 -1.02678e-06 -6.59155e-05
-7.14324e-07 -1.10748e-06 8.53603e-09
9.71166e-08 -0.00570913 5.05516e-05
0.0139868 -0.0108652 2.53044e-05
0.0220526 -0.00818814 -4.24962e-05
0.0251308 -0.00474021 -2.37752e-05
0.0262403 -0.00269002 -8.67665e-06
0.0266506 -0.00155964 -2.86391e-06
0.0267968 -0.000926066 -9.60073e-07
0.0268396 -0.000562993 -3.55477e-07
0.0268424 -0.000350364 -1.56405e-07
0.0268316 -0.000223057 -8.31998e-08
0.0268175 -0.000145092 -5.08896e-08
0.0268043 -9.62496e-05 -3.35724e-08
0.0267933 -6.49676e-05 -2.29307e-08
0.0267845 -4.45107e-05 -1.59136e-08
0.0267777 -3.0877e-05 -1.11414e-08
0.0267726 -2.16381e-05 -7.85076e-09
0.0267688 -1.52874e-05 -5.56324e-09
0.026766 -1.08702e-05 -3.96258e-09
0.0267639 -7.76803e-06 -2.83553e-09
0.0267624 -5.57261e-06 -2.03719e-09
0.0267613 -4.00949e-06 -1.46857e-09
0.0267605 -2.89129e-06 -1.06159e-09
0.0267599 -2.08849e-06 -7.69131e-10
0.0267595 -1.51051e-06 -5.58293e-10
0.0267591 -1.09352e-06 -4.05963e-10
0.0267589 -7.9219e-07 -2.9581e-10
0.0267587 -5.74178e-07 -2.16287e-10
0.0267586 -4.16295e-07 -1.59284e-10
0.0267585 -3.01867e-07 -1.1926e-10
0.0267585 -2.18871e-07 -9.27337e-11
0.0267584 -1.58615e-07 -7.80526e-11
0.0267584 -1.14799e-07 -7.53982e-11
0.0267584 -8.28354e-08 -8.68599e-11
0.0267583 -5.93511e-08 -1.16132e-10
0.0267583 -4.1819e-08 -1.66733e-10
0.0267583 -2.82584e-08 -2.38337e-10
0.0267583 -1.69656e-08 -3.48927e-10
0.0267583 -6.24694e-09 -9.27659e-10
0.0267583 5.66131e-09 -5.74578e-09
0.0267583 1.92798e-08 -2.40944e-08
0.0267583 2.64252e-08 -3.81337e-08
0.0148 -1.12619e-08 -2.01394e-08
0.0148 0.0018247 -0.00645753
0.0193336 0.00331092 -0.0102563
0.0227085 0.00312659 -0.00546959
0.0245334 0.00439728 -0.00246555
0.0262191 0.00736993 -0.00123086
0.0294012 0.0129132 -0.000673144
0.0341543 0.0222775 -0.000333138
0.0293462 0.0139773 -2.95391e-05
0.0304329 1.54231e-14 0.000158814
0.0331431 -0.0136928 0.000163234
0.0317423 -0.0228685 4.79726e-05
0.0297219 -0.0134068 -4.1386e-05
0.0285651 -0.00622493 -2.57088e-05
0.0278974 -0.00301923 -9.9543e-06
0.0274832 -0.00158518 -3.49395e-06
0.0272176 -0.000878433 -1.22064e-06
0.0270447 -0.000506035 -4.32489e-07
0.026931 -0.000301112 -1.5256e-07
0.0268555 -0.000184499 -4.98953e-08
0.0268046 -0.000116139 -1.15179e-08
0.02677 -7.49281e-05 2.49168e-09
0.0267462 -4.94124e-05 6.93591e-09
0.0267296 -3.32118e-05 7.60205e-09
0.0267179 -2.26849e-05 6.85875e-09
0.0267097 -1.57018e-05 5.6988e-09
0.0267039 -1.09857e-05 4.53106e-09
0.0266997 -7.75207e-06 3.50812e-09
0.0266967 -5.50701e-06 2.66969e-09
0.0266945 -3.93252e-06 2.008e-09
0.0266929 -2.81942e-06 1.49801e-09
0.0266918 -2.02755e-06 1.11105e-09
0.026691 -1.46146e-06 8.20553e-10
0.0266904 -1.05525e-06 6.04084e-10
0.02669 -7.62943e-07 4.43576e-10
0.0266897 -5.52134e-07 3.24896e-10
0.0266894 -3.99849e-07 2.37154e-10
0.0266893 -2.89698e-07 1.71978e-10
0.0266892 -2.09939e-07 1.22837e-10
0.0266891 -1.52127e-07 8.44006e-11
0.026689 -1.1017e-07 5.19111e-11
0.026689 -7.96554e-08 2.05527e-11
0.0266889 -5.7366e-08 -1.5136e-11
0.0266889 -4.09287e-08 -6.15072e-11
0.0266889 -2.85415e-08 -1.25035e-10
0.0266889 -1.87437e-08 -2.11305e-10
0.0266889 -1.01561e-08 -3.54677e-10
0.0266889 -1.02849e-09 -1.03355e-09
0.0266889 1.15256e-08 -6.19171e-09
0.0266889 2.94695e-08 -2.56362e-08
0.0266889 3.98192e-08 -4.05076e-08
0.01 -1.72378e-08 -2.67083e-08
0.01 0.00163028 -0.00515756
0.0166129 0.00285654 -0.00804553
0.0213886 0.0024241 -0.00422662
0.0247781 0.00302231 -0.00200257
0.0284629 0.00495354 -0.00104948
0.0335965 0.00735878 -0.00064465
0.0421996 0.00919893 -0.000371054