# vtk DataFile Version 2.0
Tobias Weinzierl: CPU, Manycore and Cluster Computing
ASCII

DATASET STRUCTURED_POINTS
DIMENSIONS  51 11 6

ORIGIN 0 0 0 

SPACING 0.1 0.1 0.1 

POINT_DATA 3366

VECTORS velocity float
0 0 0
4.58345e-15 0 0
-1.02961e-09 0 0
-3.00982e-09 0 0
-4.4654e-09 0 0
-1.61206e-09 0 0
-4.57894e-10 0 0
9.79978e-11 0 0
6.05187e-11 0 0
-6.61775e-10 0 0
-1.5185e-09 0 0
-2.05669e-09 0 0
-2.21815e-09 0 0
-2.16885e-09 0 0
-2.07473e-09 0 0
-2.01689e-09 0 0
-2.00499e-09 0 0
-2.02074e-09 0 0
-2.04571e-09 0 0
-2.0693e-09 0 0
-2.08752e-09 0 0
-2.09999e-09 0 0
-2.10775e-09 0 0
-2.11217e-09 0 0
-2.11442e-09 0 0
-2.11535e-09 0 0
-2.11556e-09 0 0
-2.11541e-09 0 0
-2.11511e-09 0 0
-2.11477e-09 0 0
-2.11445e-09 0 0
-2.11418e-09 0 0
-2.11396e-09 0 0
-2.11378e-09 0 0
-2.11365e-09 0 0
-2.11354e-09 0 0
-2.11347e-09 0 0
-2.11341e-09 0 0
-2.11337e-09 0 0
-2.11333e-09 0 0
-2.11331e-09 0 0
-2.11329e-09 0 0
-2.11328e-09 0 0
-2.11327e-09 0 0
-2.11327e-09 0 0
-2.11326e-09 0 0
-2.11326e-09 0 0
-2.11326e-09 0 0
-2.11326e-09 0 0
-2.11326e-09 0 0
0.00246793 0 0
0 6.81208e-09 0
1.76179e-14 3.87719e-10 0
-1.76226e-09 9.75595e-10 0
-5.53069e-09 1.18479e-09 0
-7.6532e-09 8.36803e-10 0
-3.05387e-09 1.09589e-09 0
-1.64521e-09 1.75655e-09 0
-9.41126e-10 1.48907e-09 0
-4.60556e-10 1.22497e-09 0
-1.1333e-09 1.26058e-09 0
-2.38651e-09 1.06712e-09 0
-3.33551e-09 6.49572e-10 0
-3.71139e-09 2.46004e-10 0
-3.74301e-09 1.44708e-11 0
-3.72173e-09 -4.79543e-11 0
-3.77536e-09 -2.58749e-11 0
-3.89427e-09 8.65316e-12 0
-4.03092e-09 2.7936e-11 0
-4.15163e-09 3.1693e-11 0
-4.24365e-09 2.7014e-11 0
-4.30727e-09 1.97013e-11 0
-4.34812e-09 1.282e-11 0
-4.37272e-09 7.48933e-12 0
-4.38657e-09 3.81874e-12 0
-4.39376e-09 1.51571e-12 0
-4.39704e-09 1.99106e-13 0
-4.39818e-09 -4.68302e-13 0
-4.39821e-09 -7.40796e-13 0
-4.39776e-09 -7.92231e-13 0
-4.39714e-09 -7.32871e-13 0
-4.39653e-09 -6.27983e-13 0
-4.39598e-09 -5.13351e-13 0
-4.39553e-09 -4.06651e-13 0
-4.39517e-09 -3.15098e-13 0
-4.39489e-09 -2.40289e-13 0
-4.39468e-09 -1.8109e-13 0
-4.39452e-09 -1.35273e-13 0
-4.3944e-09 -1.0037e-13 0
-4.39431e-09 -7.40854e-14 0
-4.39424e-09 -5.44562e-14 0
-4.3942e-09 -3.98856e-14 0
-4.39416e-09 -2.91131e-14 0
-4.39414e-09 -2.11655e-14 0
-4.39412e-09 -1.53029e-14 0
-4.39411e-09 -1.09645e-14 0
-4.3941e-09 -7.71346e-15 0
-4.39409e-09 -5.226e-15 0
-4.39409e-09 -3.23728e-15 0
-4.39409e-09 -6.47638e-16 0
-4.39409e-09 5.29392e-15 0
0.00676491 -2.46565e-09 0
0 1.48824e-10 0
2.99256e-14 4.3608e-10 0
-6.03015e-10 2.79243e-10 0
-3.50306e-09 -1.33431e-09 0
-3.94144e-09 -1.9924e-09 0
-6.81114e-10 3.14282e-10 0
-1.78248e-09 2.56716e-09 0
-2.15638e-09 1.86047e-09 0
-1.62918e-09 5.1007e-10 0
-1.46525e-09 1.08983e-10 0
-2.16886e-09 1.48376e-10 0
-2.84454e-09 4.54136e-10 0
-3.13165e-09 7.61458e-10 0
-3.11726e-09 8.50636e-10 0
-3.06968e-09 7.61561e-10 0
-3.12881e-09 6.11193e-10 0
-3.27497e-09 4.6042e-10 0
-3.44252e-09 3.29788e-10 0
-3.58703e-09 2.25447e-10 0
-3.69348e-09 1.47364e-10 0
-3.76414e-09 9.2105e-11 0
-3.80746e-09 5.48703e-11 0
-3.83218e-09 3.08905e-11 0
-3.84523e-09 1.61197e-11 0
-3.85143e-09 7.44308e-12 0
-3.85385e-09 2.62366e-12 0
-3.85433e-09 1.40904e-13 0
-3.85392e-09 -9.90892e-13 0
-3.85318e-09 -1.38367e-12 0
-3.85239e-09 -1.40151e-12 0
-3.85168e-09 -1.25136e-12 0
-3.85108e-09 -1.04458e-12 0
-3.8506e-09 -8.36724e-13 0
-3.85023e-09 -6.5216e-13 0
-3.84995e-09 -4.98752e-13 0
-3.84974e-09 -3.76283e-13 0
-3.84958e-09 -2.81082e-13 0
-3.84947e-09 -2.08421e-13 0
-3.84938e-09 -1.53679e-13 0
-3.84932e-09 -1.12817e-13 0
-3.84928e-09 -8.25112e-14 0
-3.84924e-09 -6.01282e-14 0
-3.84922e-09 -4.36263e-14 0
-3.8492e-09 -3.14434e-14 0
-3.84919e-09 -2.23941e-14 0
-3.84918e-09 -1.55396e-14 0
-3.84918e-09 -9.92126e-15 0
-3.84917e-09 -4.43629e-15 0
-3.84917e-09 1.30228e-15 0
-3.84918e-09 6.98609e-15 0
0.00909515 -3.64353e-09 0
0 -9.44458e-09 0
3.28747e-14 -7.54648e-11 0
4.40883e-10 -1.27907e-09 0
-1.974e-09 -3.88206e-09 0
-2.5253e-09 -4.9906e-09 0
7.60692e-10 -2.31217e-09 0
-5.9517e-10 -3.24804e-14 0
-1.11726e-09 -7.08371e-10 0
-2.45551e-09 -1.94192e-09 0
-2.73147e-09 -2.21829e-09 0
-3.28398e-09 -1.39181e-09 0
-3.80967e-09 -1.16543e-10 0
-3.92509e-09 9.19391e-10 0
-3.63278e-09 1.26312e-09 0
-3.21133e-09 1.15597e-09 0
-2.90721e-09 9.16853e-10 0
-2.77183e-09 6.77382e-10 0
-2.74596e-09 4.7285e-10 0
-2.76348e-09 3.12501e-10 0
-2.78718e-09 1.95733e-10 0
-2.80394e-09 1.16041e-10 0
-2.81239e-09 6.46568e-11 0
-2.81491e-09 3.32126e-11 0
-2.81413e-09 1.4961e-11 0
-2.81193e-09 4.98786e-12 0
-2.80941e-09 -3.84573e-14 0
-2.80707e-09 -2.25413e-12 0
-2.80512e-09 -2.96443e-12 0
-2.80359e-09 -2.93146e-12 0
-2.80242e-09 -2.57927e-12 0
-2.80155e-09 -2.1305e-12 0
-2.80091e-09 -1.69271e-12 0
-2.80044e-09 -1.3107e-12 0
-2.80011e-09 -9.96984e-13 0
-2.79986e-09 -7.4879e-13 0
-2.79969e-09 -5.57225e-13 0
-2.79956e-09 -4.11864e-13 0
-2.79947e-09 -3.02883e-13 0
-2.79941e-09 -2.21879e-13 0
-2.79936e-09 -1.62036e-13 0
-2.79933e-09 -1.18007e-13 0
-2.7993e-09 -8.56863e-14 0
-2.79929e-09 -6.1964e-14 0
-2.79927e-09 -4.44869e-14 0
-2.79926e-09 -3.14443e-14 0
-2.79926e-09 -2.14474e-14 0
-2.79925e-09 -1.35771e-14 0
-2.79925e-09 -7.28055e-15 0
-2.79925e-09 -1.88024e-15 0
-2.79925e-09 3.38714e-15 0
0.00970007 -2.84821e-09 0
0 -1.82182e-08 0
1.44533e-14 -8.04467e-10 0
1.15766e-10 -2.41793e-09 0
-2.42694e-09 -3.47937e-09 0
-4.0058e-09 -2.86478e-09 0
-1.77219e-14 -9.98902e-10 0
-1.55072e-13 -1.80802e-13 0
1.52206e-13 -1.70865e-13 0
-1.34741e-09 -1.41834e-09 0
-3.51814e-09 -2.78259e-09 0
-4.08085e-09 -1.89375e-09 0
-4.45667e-09 -2.41541e-10 0
-4.65879e-09 8.89449e-10 0
-4.42804e-09 1.13883e-09 0
-3.8704e-09 9.42435e-10 0
-3.30381e-09 7.02072e-10 0
-2.91058e-09 5.05874e-10 0
-2.68759e-09 3.45377e-10 0
-2.5692e-09 2.17877e-10 0
-2.50326e-09 1.2505e-10 0
-2.46255e-09 6.37379e-11 0
-2.43522e-09 2.68039e-11 0
-2.41619e-09 6.53888e-12 0
-2.40291e-09 -3.36346e-12 0
-2.39376e-09 -7.33422e-12 0
-2.38756e-09 -8.18971e-12 0
-2.38342e-09 -7.58614e-12 0
-2.38068e-09 -6.43025e-12 0
-2.37888e-09 -5.17992e-12 0
-2.3777e-09 -4.04072e-12 0
-2.37692e-09 -3.08518e-12 0
-2.37641e-09 -2.32098e-12 0
-2.37607e-09 -1.72791e-12 0
-2.37584e-09 -1.2768e-12 0
-2.37568e-09 -9.38381e-13 0
-2.37558e-09 -6.8696e-13 0
-2.37551e-09 -5.01463e-13 0
-2.37546e-09 -3.65277e-13 0
-2.37542e-09 -2.65641e-13 0
-2.3754e-09 -1.9291e-13 0
-2.37538e-09 -1.39887e-13 0
-2.37537e-09 -1.01231e-13 0
-2.37536e-09 -7.30028e-14 0
-2.37535e-09 -5.23083e-14 0
-2.37535e-09 -3.70572e-14 0
-2.37535e-09 -2.57426e-14 0
-2.37534e-09 -1.72268e-14 0
-2.37534e-09 -1.0595e-14 0
-2.37534e-09 -4.99894e-15 0
-2.37534e-09 3.25665e-16 0
0.00982051 -1.30129e-09 0
0 -1.62598e-08 0
1.45098e-15 -9.24633e-10 0
-3.96812e-10 -2.07937e-09 0
-2.81898e-09 -2.8109e-09 0
-4.94389e-09 -3.15881e-09 0
-2.01573e-09 -1.50265e-09 0
-1.51162e-13 1.46197e-13 0
6.01815e-15 -6.01815e-15 0
1.39858e-13 -1.64576e-13 0
-1.78039e-09 -1.28088e-09 0
-3.50636e-09 -1.88614e-09 0
-3.73395e-09 -1.39943e-10 0
-4.43711e-09 1.21892e-09 0
-4.86513e-09 1.26999e-09 0
-4.54593e-09 7.85427e-10 0
-3.83987e-09 4.04962e-10 0
-3.21968e-09 2.02411e-10 0
-2.82324e-09 9.04427e-11 0
-2.59829e-09 2.20022e-11 0
-2.47196e-09 -1.70507e-11 0
-2.39863e-09 -3.46144e-11 0
-2.35473e-09 -3.85543e-11 0
-2.3281e-09 -3.54251e-11 0
-2.31197e-09 -2.95592e-11 0
-2.30229e-09 -2.33245e-11 0
-2.29656e-09 -1.77825e-11 0
-2.2932e-09 -1.32663e-11 0
-2.29127e-09 -9.76227e-12 0
-2.29017e-09 -7.12247e-12 0
-2.28956e-09 -5.16947e-12 0
-2.28922e-09 -3.74063e-12 0
-2.28904e-09 -2.70232e-12 0
-2.28894e-09 -1.9508e-12 0
-2.2889e-09 -1.40803e-12 0
-2.28887e-09 -1.01643e-12 0
-2.28886e-09 -7.33993e-13 0
-2.28886e-09 -5.30254e-13 0
-2.28886e-09 -3.83224e-13 0
-2.28886e-09 -2.77051e-13 0
-2.28886e-09 -2.00316e-13 0
-2.28886e-09 -1.44797e-13 0
-2.28886e-09 -1.04566e-13 0
-2.28887e-09 -7.53574e-14 0
-2.28887e-09 -5.4088e-14 0
-2.28887e-09 -3.85182e-14 0
-2.28887e-09 -2.70207e-14 0
-2.28887e-09 -1.84301e-14 0
-2.28887e-09 -1.1891e-14 0
-2.28887e-09 -6.61318e-15 0
-2.28887e-09 -1.80588e-15 0
0.00983723 3.73157e-10 0
0 -1.14561e-08 0
4.78819e-15 -8.33147e-10 0
-4.66015e-10 -1.97325e-09 0
-2.79668e-09 -2.13381e-09 0
-5.26416e-09 -1.73388e-09 0
-4.50334e-09 -1.07077e-09 0
-1.30053e-09 -3.30602e-10 0
-1.48576e-13 1.43831e-13 0
-3.96825e-15 3.96825e-15 0
1.21883e-13 -1.57847e-13 0
-1.40864e-09 -5.31733e-10 0
-1.69763e-09 4.78345e-10 0
-3.06035e-09 2.26955e-09 0
-4.68196e-09 1.89971e-09 0
-5.04292e-09 7.67975e-10 0
-4.33529e-09 5.5065e-11 0
-3.49654e-09 -1.90566e-10 0
-2.93999e-09 -2.32351e-10 0
-2.64461e-09 -2.11808e-10 0
-2.50048e-09 -1.74124e-10 0
-2.43161e-09 -1.34208e-10 0
-2.39884e-09 -9.87428e-11 0
-2.38349e-09 -7.03561e-11 0
-2.37659e-09 -4.91329e-11 0
-2.37378e-09 -3.39426e-11 0
-2.37289e-09 -2.33522e-11 0
-2.37285e-09 -1.60727e-11 0
-2.37314e-09 -1.10982e-11 0
-2.37354e-09 -7.70011e-12 0
-2.37392e-09 -5.37158e-12 0
-2.37424e-09 -3.76788e-12 0
-2.37451e-09 -2.65679e-12 0
-2.37472e-09 -1.88223e-12 0
-2.37488e-09 -1.33907e-12 0
-2.375e-09 -9.56079e-13 0
-2.37509e-09 -6.8472e-13 0
-2.37516e-09 -4.91632e-13 0
-2.37521e-09 -3.53732e-13 0
-2.37524e-09 -2.54928e-13 0
-2.37527e-09 -1.83936e-13 0
-2.37529e-09 -1.32797e-13 0
-2.3753e-09 -9.58628e-14 0
-2.37531e-09 -6.91107e-14 0
-2.37532e-09 -4.96618e-14 0
-2.37532e-09 -3.54504e-14 0
-2.37533e-09 -2.49948e-14 0
-2.37533e-09 -1.72586e-14 0
-2.37533e-09 -1.15487e-14 0
-2.37533e-09 -7.28579e-15 0
-2.37533e-09 -3.72312e-15 0
0.00982051 1.98428e-09 0
0 -8.12375e-09 0
6.20423e-15 -7.59433e-10 0
-6.46204e-10 -1.71156e-09 0
-2.95796e-09 -1.66412e-09 0
-5.08962e-09 -9.17037e-10 0
-4.86707e-09 -3.30268e-10 0
-3.08892e-09 -6.46561e-10 0
-1.50731e-09 -5.21343e-10 0
-1.55182e-13 1.32493e-13 0
1.14964e-13 1.36176e-13 0
-1.18832e-14 -1.95324e-10 0
-5.00397e-10 1.50087e-09 0
-9.9186e-10 3.64738e-09 0
-2.75157e-09 2.7941e-09 0
-4.14206e-09 8.3374e-10 0
-4.17736e-09 -2.82479e-10 0
-3.60026e-09 -5.47769e-10 0
-3.11704e-09 -4.89396e-10 0
-2.86905e-09 -3.6936e-10 0
-2.77494e-09 -2.60279e-10 0
-2.75164e-09 -1.7624e-10 0
-2.75424e-09 -1.16444e-10 0
-2.76365e-09 -7.59902e-11 0
-2.77305e-09 -4.94542e-11 0
-2.78057e-09 -3.23157e-11 0
-2.7861e-09 -2.12932e-11 0
-2.79003e-09 -1.41789e-11 0
-2.79278e-09 -9.54864e-12 0
-2.79469e-09 -6.50196e-12 0
-2.79602e-09 -4.47313e-12 0
-2.79696e-09 -3.10583e-12 0
-2.79762e-09 -2.1739e-12 0
-2.79808e-09 -1.53214e-12 0
-2.79841e-09 -1.08614e-12 0
-2.79864e-09 -7.73736e-13 0
-2.79881e-09 -5.53411e-13 0
-2.79893e-09 -3.97131e-13 0
-2.79902e-09 -2.85742e-13 0
-2.79908e-09 -2.06022e-13 0
-2.79912e-09 -1.48767e-13 0
-2.79915e-09 -1.07517e-13 0
-2.79918e-09 -7.7711e-14 0
-2.79919e-09 -5.61084e-14 0
-2.79921e-09 -4.03996e-14 0
-2.79921e-09 -2.89336e-14 0
-2.79922e-09 -2.05302e-14 0
-2.79923e-09 -1.43694e-14 0
-2.79923e-09 -1.00096e-14 0
-2.79923e-09 -7.34692e-15 0
-2.79923e-09 -5.96472e-15 0
0.00970007 3.31321e-09 0
0 -7.19892e-09 0
9.13875e-15 -6.02277e-10 0
-1.04285e-09 -1.38694e-09 0
-3.44656e-09 -1.32281e-09 0
-5.31103e-09 -6.50019e-10 0
-5.2126e-09 2.06116e-11 0
-3.83932e-09 -2.0903e-10 0
-3.01708e-09 -1.50545e-09 0
-1.57911e-09 -1.16395e-09 0
-2.02956e-09 2.71845e-17 0
-4.06377e-09 6.08128e-10 0
-4.56464e-09 1.998e-09 0
-1.94533e-09 3.02744e-09 0
-1.13878e-09 2.50279e-09 0
-2.69345e-09 9.70295e-10 0
-3.81012e-09 -1.01476e-10 0
-3.9239e-09 -4.3922e-10 0
-3.77006e-09 -4.0589e-10 0
-3.69185e-09 -2.8677e-10 0
-3.69413e-09 -1.84948e-10 0
-3.72673e-09 -1.16005e-10 0
-3.76139e-09 -7.27013e-11 0
-3.78896e-09 -4.60913e-11 0
-3.8086e-09 -2.97093e-11 0
-3.82192e-09 -1.94873e-11 0
-3.8308e-09 -1.29921e-11 0
-3.83668e-09 -8.78645e-12 0
-3.84061e-09 -6.01548e-12 0
-3.84324e-09 -4.16148e-12 0
-3.84503e-09 -2.90442e-12 0
-3.84626e-09 -2.04229e-12 0
-3.84711e-09 -1.44515e-12 0
-3.8477e-09 -1.02805e-12 0
-3.84812e-09 -7.34587e-13 0
-3.84841e-09 -5.26833e-13 0
-3.84862e-09 -3.78986e-13 0
-3.84877e-09 -2.73306e-13 0
-3.84888e-09 -1.97485e-13 0
-3.84895e-09 -1.42915e-13 0
-3.84901e-09 -1.03533e-13 0
-3.84905e-09 -7.50414e-14 0
-3.84908e-09 -5.43811e-14 0
-3.8491e-09 -3.93647e-14 0
-3.84911e-09 -2.84253e-14 0
-3.84912e-09 -2.04439e-14 0
-3.84913e-09 -1.46282e-14 0
-3.84914e-09 -1.04244e-14 0
-3.84914e-09 -7.61622e-15 0
-3.84915e-09 -6.72632e-15 0
-3.84915e-09 -8.20425e-15 0
0.00909515 3.70778e-09 0
0 -7.62234e-09 0
1.08146e-14 -3.18875e-10 0
-1.39471e-09 -7.563e-10 0
-3.65066e-09 -7.03653e-10 0
-5.14294e-09 -3.68993e-10 0
-5.3634e-09 -2.95176e-10 0
-4.5292e-09 -6.46264e-10 0
-3.98206e-09 -1.42059e-09 0
-4.37737e-09 -8.29121e-10 0
-4.2214e-09 1.61025e-09 0
-4.96863e-09 2.91707e-09 0
-4.27715e-09 1.5105e-09 0
-2.13623e-09 -7.23368e-10 0
-1.65428e-09 -1.5281e-09 0
-3.24199e-09 -1.01165e-09 0
-4.44619e-09 -2.12543e-10 0
-4.63005e-09 1.95439e-10 0
-4.47173e-09 2.30507e-10 0
-4.35173e-09 1.4278e-10 0
-4.31137e-09 6.4893e-11 0
-4.31324e-09 2.11927e-11 0
-4.32894e-09 1.81965e-12 0
-4.34572e-09 -4.95253e-12 0
-4.3595e-09 -6.27451e-12 0
-4.36975e-09 -5.62936e-12 0
-4.37704e-09 -4.49107e-12 0
-4.38214e-09 -3.40029e-12 0
-4.38568e-09 -2.51009e-12 0
-4.38815e-09 -1.8302e-12 0
-4.38987e-09 -1.32682e-12 0
-4.39107e-09 -9.59646e-13 0
-4.39193e-09 -6.93686e-13 0
-4.39253e-09 -5.01583e-13 0
-4.39296e-09 -3.62928e-13 0
-4.39327e-09 -2.62817e-13 0
-4.39349e-09 -1.90475e-13 0
-4.39365e-09 -1.38145e-13 0
-4.39377e-09 -1.00252e-13 0
-4.39385e-09 -7.27825e-14 0
-4.39391e-09 -5.28484e-14 0
-4.39395e-09 -3.83675e-14 0
-4.39398e-09 -2.78361e-14 0
-4.39401e-09 -2.01684e-14 0
-4.39402e-09 -1.45801e-14 0
-4.39403e-09 -1.05103e-14 0
-4.39404e-09 -7.5681e-15 0
-4.39405e-09 -5.48849e-15 0
-4.39405e-09 -4.18934e-15 0
-4.39406e-09 -4.28253e-15 0
-4.39406e-09 -6.87803e-15 0
0.00676491 2.19499e-09 0
0 0 0
6.07306e-15 0 0
-7.33389e-10 0 0
-1.74924e-09 0 0
-2.36713e-09 0 0
-2.53025e-09 0 0
-2.47827e-09 0 0
-2.47229e-09 0 0
-2.79827e-09 0 0
-2.19184e-09 0 0
-9.04871e-10 0 0
-3.65072e-11 0 0
-1.87398e-10 0 0
-1.11187e-09 0 0
-2.11185e-09 0 0
-2.55109e-09 0 0
-2.50511e-09 0 0
-2.328e-09 0 0
-2.19577e-09 0 0
-2.12844e-09 0 0
-2.10217e-09 0 0
-2.09554e-09 0 0
-2.09654e-09 0 0
-2.09972e-09 0 0
-2.10299e-09 0 0
-2.10571e-09 0 0
-2.10778e-09 0 0
-2.10931e-09 0 0
-2.11042e-09 0 0
-2.11121e-09 0 0
-2.11178e-09 0 0
-2.11219e-09 0 0
-2.11249e-09 0 0
-2.1127e-09 0 0
-2.11285e-09 0 0
-2.11296e-09 0 0
-2.11304e-09 0 0
-2.1131e-09 0 0
-2.11314e-09 0 0
-2.11317e-09 0 0
-2.11319e-09 0 0
-2.11321e-09 0 0
-2.11322e-09 0 0
-2.11323e-09 0 0
-2.11323e-09 0 0
-2.11324e-09 0 0
-2.11324e-09 0 0
-2.11324e-09 0 0
-2.11324e-09 0 0
-2.11325e-09 0 0
0.00246793 0 0
0 0 8.52144e-09
2.4836e-14 0 6.41887e-10
-1.65625e-09 0 2.03423e-09
-6.05688e-09 0 2.251e-09
-1.21896e-08 0 -2.23456e-09
-4.07806e-09 0 -5.1034e-09
-2.675e-10 0 -3.46662e-09
1.80789e-09 0 -2.00748e-09
2.3612e-09 0 -4.65195e-10
1.38316e-09 0 3.18434e-10
-2.63912e-10 0 3.27797e-10
-1.73857e-09 0 5.00812e-11
-2.70591e-09 0 -1.33849e-10
-3.23598e-09 0 -1.57886e-10
-3.52392e-09 0 -1.04008e-10
-3.72758e-09 0 -4.3867e-11
-3.90925e-09 0 -4.79531e-12
-4.07128e-09 0 1.27839e-11
-4.2032e-09 0 1.68664e-11
-4.30114e-09 0 1.47967e-11
-4.36849e-09 0 1.09804e-11
-4.41195e-09 0 7.40842e-12
-4.43841e-09 0 4.69545e-12
-4.45358e-09 0 2.84542e-12
-4.46167e-09 0 1.66583e-12
-4.46555e-09 0 9.47989e-13
-4.46705e-09 0 5.26225e-13
-4.46732e-09 0 2.85353e-13
-4.46699e-09 0 1.51138e-13
-4.46645e-09 0 7.80518e-14
-4.46586e-09 0 3.9161e-14
-4.46533e-09 0 1.89748e-14
-4.46488e-09 0 8.79401e-15
-4.46452e-09 0 3.83913e-15
-4.46423e-09 0 1.53958e-15
-4.46401e-09 0 5.43519e-16
-4.46385e-09 0 1.58965e-16
-4.46373e-09 0 4.22798e-17
-4.46363e-09 0 2.99634e-17
-4.46357e-09 0 4.96067e-17
-4.46352e-09 0 7.31172e-17
-4.46348e-09 0 9.27725e-17
-4.46345e-09 0 1.10993e-16
-4.46344e-09 0 1.34335e-16
-4.46342e-09 0 1.73961e-16
-4.46341e-09 0 2.55048e-16
-4.46341e-09 0 3.67047e-16
-4.4634e-09 0 4.30159e-16
-4.4634e-09 0 1.18159e-15
-4.46341e-09 0 5.32082e-15
0.00675022 0 -1.7609e-09
0.0036 -1.68359e-09 1.05575e-09
0.0036 -0.00133703 -6.97036e-05
0.00698112 -0.00425427 -0.000564692
0.0143867 -0.00763507 -0.00226885
0.0256829 -0.0138994 -0.00517229
0.0462839 -0.0107272 -0.00446388
0.0491188 -0.0008139 -0.00119702
0.0485888 0.00325812 0.000326747
0.0433334 0.00533086 0.000860775
0.0376816 0.00522474 0.000516683
0.0326601 0.00426911 -7.01497e-06
0.0284985 0.00314623 -0.000330608
0.0252956 0.00215355 -0.000391859
0.0230168 0.00140532 -0.000298615
0.0214869 0.00090028 -0.0001755
0.0204944 0.000575495 -8.44069e-05
0.0198661 0.00036634 -3.32275e-05
0.0194772 0.000230332 -9.51316e-06
0.0192419 0.000142209 -4.20542e-07
0.0191029 8.59993e-05 2.13608e-06
0.0190226 5.08888e-05 2.24423e-06
0.0189775 2.94372e-05 1.67453e-06
0.0189528 1.66149e-05 1.07724e-06
0.0189398 9.11655e-06 6.29974e-07
0.0189333 4.83012e-06 3.3964e-07
0.0189303 2.44012e-06 1.67095e-07
0.0189291 1.14597e-06 7.15069e-08
0.0189288 4.70862e-07 2.2182e-08
0.0189289 1.36656e-07 -1.02619e-09
0.0189291 -1.54756e-08 -1.03325e-08
0.0189294 -7.41871e-08 -1.27269e-08
0.0189296 -8.76883e-08 -1.2011e-08
0.0189298 -8.13617e-08 -1.01438e-08
0.01893 -6.79997e-08 -8.06568e-09
0.0189301 -5.36359e-08 -6.17979e-09
0.0189302 -4.07987e-08 -4.62005e-09
0.0189302 -3.02838e-08 -3.3957e-09
0.0189303 -2.20938e-08 -2.46564e-09
0.0189303 -1.59176e-08 -1.77454e-09
0.0189304 -1.13627e-08 -1.26904e-09
0.0189304 -8.05711e-09 -9.03946e-10
0.0189304 -5.68756e-09 -6.43658e-10
0.0189304 -4.0062e-09 -4.61802e-10
0.0189304 -2.82483e-09 -3.40164e-10
0.0189304 -2.00311e-09 -2.65492e-10
0.0189304 -1.44358e-09 -2.31731e-10
0.0189304 -1.09426e-09 -2.36181e-10
0.0189304 -8.90408e-10 -1.66703e-10
0.0189304 -1.33928e-09 -3.08039e-10
0.0189304 -4.8617e-09 -2.83733e-09
0.0189304 -7.85715e-09 -5.14471e-09
0.01 -9.83253e-10 -1.87522e-08
0.01 -0.00317357 -0.00053291
0.0149974 -0.0103917 -0.00128673
0.024011 -0.0183011 -0.00285486
0.0372071 -0.0300872 -0.00425989
0.0567644 -0.0211786 -0.00119559
0.0548239 -0.0015034 0.00211318
0.0549434 0.00578075 0.00246627
0.0494279 0.0106715 0.00227552
0.0438779 0.0106412 0.00129734
0.0391449 0.0093844 0.000218109
0.0350608 0.00765494 -0.000426257
0.0318376 0.00573436 -0.000594442
0.0295874 0.00397404 -0.000478078
0.0281198 0.00260899 -0.000289146
0.0271961 0.00165717 -0.000142233
0.0266305 0.0010282 -5.7541e-05
0.0262943 0.000624863 -1.73706e-05
0.0261008 0.000372059 -1.43627e-06
0.0259933 0.000216923 3.40273e-06
0.0259358 0.000123659 3.91758e-06
0.0259067 6.87278e-05 3.11468e-06
0.0258928 3.70484e-05 2.14891e-06
0.0258871 1.91898e-05 1.37316e-06
0.0258853 9.38138e-06 8.35633e-07
0.0258853 4.1645e-06 4.91258e-07
0.025886 1.50669e-06 2.81231e-07
0.0258869 2.37284e-07 1.57478e-07
0.0258878 -3.04018e-07 8.64422e-08
0.0258886 -4.80991e-07 4.65295e-08
0.0258891 -4.88521e-07 2.45227e-08
0.0258896 -4.27302e-07 1.26057e-08
0.0258899 -3.46733e-07 6.2726e-09
0.0258902 -2.69089e-07 2.97851e-09
0.0258903 -2.0285e-07 1.31048e-09
0.0258905 -1.49878e-07 4.96395e-10
0.0258906 -1.09155e-07 1.20767e-10
0.0258906 -7.86577e-08 -3.63127e-11
0.0258907 -5.62341e-08 -8.90615e-11
0.0258907 -3.99662e-08 -9.54937e-11
0.0258907 -2.82837e-08 -8.43664e-11
0.0258907 -1.99629e-08 -6.96391e-11
0.0258907 -1.40803e-08 -5.822e-11
0.0258908 -9.95818e-09 -5.46738e-11
0.0258908 -7.11437e-09 -5.9573e-11
0.0258908 -5.21355e-09 -6.27579e-11
0.0258908 -4.15749e-09 -6.86166e-11
0.0258908 -4.37272e-09 -1.85731e-11
0.0258908 -6.25649e-09 -3.80705e-10
0.0258908 -9.66645e-09 -4.05777e-09
0.0258908 -1.1715e-08 -7.31585e-09
0.0148 -1.47388e-08 -2.3775e-08
0.0148 -0.00535505 -0.00106635
0.01991 -0.0162449 -0.0027495
0.0261269 -0.0274815 -0.00477981
0.0305573 -0.0428746 -0.00525721
0.0290445 -0.0262832 -0.000826631
0.0261661 -1.72185e-07 0.00240677
0.0262171 0.00748684 0.00246551
0.0306734 0.0155822 0.00238979
0.0309721 0.0153024 0.00146015
0.0297593 0.0133461 0.000465523
0.0285731 0.0108783 -0.000194612
0.0277701 0.00800715 -0.000409351
0.027479 0.00537845 -0.000353631
0.0274389 0.00342928 -0.000209096
0.0274742 0.00212514 -8.88752e-05
0.0275219 0.00128815 -2.05176e-05
0.0275675 0.000762996 8.30349e-06
0.0276082 0.000440664 1.58305e-05
0.0276426 0.000247571 1.4571e-05
0.0276702 0.000134795 1.08832e-05
0.0276913 7.06217e-05 7.32736e-06
0.0277067 3.51059e-05 4.63278e-06
0.0277177 1.60673e-05 2.80721e-06
0.0277254 6.2654e-06 1.64895e-06
0.0277306 1.501e-06 9.45318e-07
0.0277342 -6.04304e-07 5.30989e-07
0.0277366 -1.36505e-06 2.92785e-07
0.0277382 -1.48812e-06 1.58498e-07
0.0277393 -1.34096e-06 8.40918e-08
0.02774 -1.10589e-06 4.35411e-08
0.0277405 -8.67026e-07 2.18224e-08
0.0277408 -6.58231e-07 1.04217e-08
0.027741 -4.88912e-07 4.58817e-09
0.0277412 -3.57558e-07 1.70795e-09
0.0277413 -2.58546e-07 3.62448e-10
0.0277414 -1.85374e-07 -2.07064e-10
0.0277414 -1.32061e-07 -3.99517e-10
0.0277415 -9.3625e-08 -4.20185e-10
0.0277415 -6.61357e-08 -3.71643e-10
0.0277415 -4.66021e-08 -3.03045e-10
0.0277415 -3.28006e-08 -2.36507e-10
0.0277415 -2.3109e-08 -1.80611e-10
0.0277415 -1.63642e-08 -1.36439e-10
0.0277415 -1.17745e-08 -1.01039e-10
0.0277415 -8.89762e-09 -7.62234e-11
0.0277415 -7.48333e-09 -1.02142e-10
0.0277416 -7.21394e-09 -2.00075e-10
0.0277416 -7.84101e-09 -9.1382e-10
0.0277416 -8.95945e-09 -4.75257e-09
0.0277416 -9.55226e-09 -7.94079e-09
0.018 -3.08316e-08 -2.63206e-08
0.018 -0.00662593 -0.00189766
0.0202676 -0.0177128 -0.00512985
0.0200371 -0.0231583 -0.00673993
0.0158989 -0.0252202 -0.00696808
-2.01867e-08 -0.0131489 -0.00346036
1.56346e-06 4.93133e-07 1.12613e-08
-5.8604e-07 6.15731e-07 0.000468084
0.00725251 0.00496113 0.000968169
0.0151882 0.011233 0.000842992
0.0185975 0.0118975 0.000431588
0.0202109 0.00993932 -1.96087e-05
0.0219364 0.0071148 -0.000261568
0.0237025 0.00450338 -0.000261058
0.0251748 0.00271737 -0.000154351
0.0262361 0.00161223 -5.16003e-05
0.026939 0.000939222 8.10479e-06
0.0273866 0.00053042 2.97926e-05
0.0276672 0.000286838 3.06499e-05
0.0278417 0.000146619 2.3951e-05
0.0279493 6.92474e-05 1.64142e-05
0.028015 2.85755e-05 1.04076e-05
0.0280548 8.44451e-06 6.2668e-06
0.0280787 -6.77574e-07 3.63514e-06
0.0280929 -4.17927e-06 2.0477e-06
0.0281014 -4.98848e-06 1.12468e-06
0.0281064 -4.63245e-06 6.02806e-07
0.0281094 -3.86981e-06 3.14528e-07
0.0281112 -3.05212e-06 1.58678e-07
0.0281122 -2.32356e-06 7.62944e-08
0.0281129 -1.72796e-06 3.38881e-08
0.0281133 -1.26428e-06 1.28223e-08
0.0281135 -9.14244e-07 2.90491e-09
0.0281136 -6.55431e-07 -1.34566e-09
0.0281137 -4.66837e-07 -2.82487e-09
0.0281138 -3.30858e-07 -3.02942e-09
0.0281138 -2.33587e-07 -2.71081e-09
0.0281138 -1.64424e-07 -2.23053e-09
0.0281139 -1.15477e-07 -1.75041e-09
0.0281139 -8.09693e-08 -1.33338e-09
0.0281139 -5.67244e-08 -9.95688e-10
0.0281139 -3.97498e-08 -7.3336e-10
0.0281139 -2.79257e-08 -5.35748e-10
0.0281139 -1.97753e-08 -3.9298e-10
0.0281139 -1.42716e-08 -2.99575e-10
0.0281139 -1.06561e-08 -2.71096e-10
0.0281139 -8.34456e-09 -3.65992e-10
0.0281139 -6.86533e-09 -5.61652e-10
0.0281139 -5.94098e-09 -1.38596e-09
0.0281139 -5.27844e-09 -5.03768e-09
0.0281139 -4.95343e-09 -7.97209e-09
0.0196 -4.01799e-08 -4.10152e-08
0.0196 -0.00531627 -0.00273216
0.0191083 -0.012004 -0.00659525
0.0162066 -0.0145662 -0.00709982
0.0114209 -0.0132256 -0.00659484
0.00224998 -0.00534712 -0.00428569
1.18303e-06 -1.08906e-06 -0.000927539
5.03022e-07 -5.03022e-07 -6.85258e-10
-5.70848e-07 6.01232e-07 0.00013794
0.00491908 0.00374214 0.000284562
0.0111656 0.00829691 0.000227034
0.013942 0.00765733 -2.96496e-05
0.0172577 0.00469599 -0.000286727
0.020578 0.00229116 -0.000326225
0.0233116 0.000980197 -0.000230715
0.0252319 0.00038822 -0.000103739
0.0264449 0.000132963 -1.53797e-05
0.0271712 1.89436e-05 2.26148e-05
0.0275967 -3.03055e-05 2.92817e-05
0.0278433 -4.65713e-05 2.37095e-05
0.027985 -4.65617e-05 1.60485e-05
0.0280655 -3.98343e-05 9.86259e-06
0.0281109 -3.14455e-05 5.70083e-06
0.0281361 -2.36821e-05 3.15268e-06
0.02815 -1.7324e-05 1.6806e-06
0.0281576 -1.24419e-05 8.64116e-07
0.0281616 -8.83145e-06 4.25737e-07
0.0281638 -6.222e-06 1.97377e-07
0.0281649 -4.36285e-06 8.23333e-08
0.0281654 -3.05011e-06 2.68756e-08
0.0281657 -2.12838e-06 1.91677e-09
0.0281658 -1.48344e-06 -7.94214e-09
0.0281659 -1.03315e-06 -1.06751e-08
0.0281659 -7.19179e-07 -1.03058e-08
0.0281659 -5.00442e-07 -8.79449e-09
0.0281659 -3.48136e-07 -7.04589e-09
0.0281659 -2.42128e-07 -5.4386e-09
0.0281658 -1.68371e-07 -4.09903e-09
0.0281658 -1.17071e-07 -3.0401e-09
0.0281658 -8.141e-08 -2.22964e-09
0.0281658 -5.66404e-08 -1.62279e-09
0.0281658 -3.94622e-08 -1.17659e-09
0.0281658 -2.75798e-08 -8.56331e-10
0.0281658 -1.9385e-08 -6.396e-10
0.0281658 -1.37392e-08 -5.14058e-10
0.0281658 -9.82548e-09 -4.7918e-10
0.0281658 -7.03676e-09 -5.74556e-10
0.0281658 -4.86155e-09 -7.603e-10
0.0281658 -2.89842e-09 -1.56645e-09
0.0281658 -8.60191e-10 -5.06966e-09
0.0281658 2.11078e-10 -7.86336e-09
0.0196 -1.97911e-08 -5.49727e-08
0.0196 -0.00324674 -0.00307555
0.0190144 -0.0068641 -0.00665676
0.0177429 -0.00649466 -0.00663938
0.0139783 -0.00281126 -0.0057216
0.0101295 0.00341105 -0.00442507
0.00649155 0.00334504 -0.00216169
1.18371e-06 -9.94413e-07 -0.000400109
4.23565e-07 -4.23565e-07 -2.01567e-09
-5.5363e-07 5.88066e-07 3.87271e-05
0.00373203 0.00284193 0.000338561
0.00834975 0.0039204 0.000378045
0.0138238 0.0006706 -4.66024e-05
0.018786 -0.00134764 -0.000334323
0.0226122 -0.00179474 -0.000372875
0.0251159 -0.00145492 -0.000241845
0.0265486 -0.000985934 -0.000100721
0.0273112 -0.000630286 -2.16683e-05
0.0277071 -0.000399167 6.42372e-06
0.0279111 -0.000253221 1.09929e-05
0.0280155 -0.000160732 8.50001e-06
0.0280682 -0.000101973 5.27261e-06
0.0280943 -6.47278e-05 2.91977e-06
0.0281067 -4.1195e-05 1.49143e-06
0.0281124 -2.6345e-05 7.03769e-07
0.0281148 -1.69588e-05 2.97618e-07
0.0281155 -1.1e-05 1.008e-07
0.0281156 -7.19256e-06 1.2524e-08
0.0281154 -4.74064e-06 -2.22217e-08
0.0281151 -3.14821e-06 -3.2048e-08
0.0281148 -2.10509e-06 -3.12341e-08
0.0281146 -1.41615e-06 -2.65954e-08
0.0281144 -9.57669e-07 -2.11914e-08
0.0281143 -6.50481e-07 -1.62579e-08
0.0281142 -4.43442e-07 -1.21837e-08
0.0281141 -3.03201e-07 -8.99207e-09
0.028114 -2.07809e-07 -6.56863e-09
0.028114 -1.42705e-07 -4.7645e-09
0.028114 -9.81536e-08 -3.43904e-09
0.0281139 -6.76067e-08 -2.4745e-09
0.0281139 -4.66333e-08 -1.77854e-09
0.0281139 -3.22183e-08 -1.28217e-09
0.0281139 -2.22968e-08 -9.36212e-10
0.0281139 -1.54434e-08 -7.07433e-10
0.0281139 -1.06588e-08 -5.73413e-10
0.0281139 -7.22359e-09 -5.2772e-10
0.0281139 -4.58858e-09 -6.12164e-10
0.0281139 -2.24096e-09 -7.7982e-10
0.0281139 3.69177e-10 -1.52289e-09
0.0281139 3.57527e-09 -4.93677e-09
0.0281139 5.34035e-09 -7.69076e-09
0.018 -1.24365e-08 -5.39482e-08
0.018 -0.00160009 -0.00301744
0.0184932 -0.00274296 -0.00631985
0.0188692 -0.00116205 -0.00587697
0.0183065 0.00189501 -0.00465824
0.018259 0.00764353 -0.00357228
0.018805 0.0127058 -0.00212737
0.0116054 0.00697643 -0.000946904
1.21111e-06 -7.77716e-07 -0.000308075
-4.45645e-07 -8.93815e-07 8.38962e-09
1.2206e-07 -0.0001857 0.000853394
0.009392 -0.00254967 0.00136411
0.0170994 -0.00561336 0.000669366
0.0219818 -0.00622866 4.11244e-05
0.0248966 -0.00509252 -0.000307369
0.0265201 -0.00338767 -0.000321403
0.0273121 -0.00199337 -0.000195362
0.0276446 -0.00112155 -8.91102e-05
0.0277627 -0.000631285 -3.42457e-05
0.027793 -0.000360034 -1.19238e-05
0.0277919 -0.000207876 -4.00576e-06
0.0277821 -0.000121261 -1.42196e-06
0.0277717 -7.1446e-05 -6.11785e-07
0.0277632 -4.25543e-05 -3.46737e-07
0.0277568 -2.56491e-05 -2.39408e-07
0.0277522 -1.56564e-05 -1.77871e-07
0.027749 -9.68152e-06 -1.3306e-07
0.0277467 -6.06412e-06 -9.81691e-08
0.0277451 -3.84543e-06 -7.12674e-08
0.027744 -2.46675e-06 -5.10723e-08
0.0277433 -1.59906e-06 -3.62775e-08
0.0277428 -1.04634e-06 -2.5633e-08
0.0277424 -6.90297e-07 -1.80661e-08
0.0277421 -4.58607e-07 -1.27252e-08
0.027742 -3.06483e-07 -8.96907e-09
0.0277418 -2.05823e-07 -6.33047e-09
0.0277418 -1.38776e-07 -4.47608e-09
0.0277417 -9.38725e-08 -3.17113e-09
0.0277416 -6.36645e-08 -2.25147e-09
0.0277416 -4.32689e-08 -1.6029e-09
0.0277416 -2.94554e-08 -1.14637e-09
0.0277416 -2.00692e-08 -8.27601e-10
0.0277416 -1.36582e-08 -6.10142e-10
0.0277416 -9.23016e-09 -4.71187e-10
0.0277416 -6.08888e-09 -3.95986e-10
0.0277416 -3.72058e-09 -3.8232e-10
0.0277416 -1.71498e-09 -4.76874e-10
0.0277416 3.64577e-10 -6.26533e-10
0.0277416 3.2451e-09 -1.24257e-09
0.0277416 7.41441e-09 -4.55795e-09
0.0277416 9.82383e-09 -7.32199e-09
0.0148 -7.39571e-09 -4.69068e-08
0.0148 -0.000693983 -0.00281343
0.0165115 -0.000677703 -0.00565808
0.0186739 0.00124337 -0.00491588
0.0207067 0.00418127 -0.00362813
0.0228149 0.00760643 -0.0028387
0.0263841 0.0127066 -0.00198063
0.0294909 0.0198678 -0.00107885
0.0239904 0.0118135 -0.000137027
0.0243818 1.42641e-14 0.000566427
0.0280074 -0.00697441 0.00151338
0.032725 -0.0138068 0.00236902
0.0338663 -0.0121174 0.00201896
0.0324165 -0.00900679 0.0010623
0.0302319 -0.00605791 5.57694e-05
0.0284755 -0.00363767 -0.000380436
0.0273687 -0.00197769 -0.000347826
0.0267322 -0.00102236 -0.000199159
0.0263737 -0.000526049 -9.32519e-05
0.0261712 -0.000275656 -3.97667e-05
0.0260557 -0.000148006 -1.62738e-05
0.0259891 -8.13796e-05 -6.57026e-06
0.0259503 -4.57231e-05 -2.66182e-06
0.0259273 -2.6192e-05 -1.09498e-06
0.0259136 -1.52678e-05 -4.60724e-07
0.0259052 -9.04228e-06 -1.98461e-07
0.0259 -5.43395e-06 -8.67874e-08
0.0258968 -3.30995e-06 -3.77175e-08
0.0258947 -2.04157e-06 -1.56127e-08
0.0258934 -1.27384e-06 -5.57559e-09
0.0258925 -8.03197e-07 -1.11768e-09
0.0258919 -5.11224e-07 7.14792e-10
0.0258916 -3.28086e-07 1.31928e-09
0.0258913 -2.12056e-07 1.37328e-09
0.0258911 -1.37881e-07 1.2065e-09
0.025891 -9.00917e-08 9.75694e-10
0.0258909 -5.90947e-08 7.50725e-10
0.0258909 -3.88774e-08 5.58293e-10
0.0258909 -2.56306e-08 4.04453e-10
0.0258908 -1.69174e-08 2.86118e-10
0.0258908 -1.11637e-08 1.96696e-10
0.0258908 -7.3421e-09 1.28643e-10
0.0258908 -4.77217e-09 7.42182e-11
0.0258908 -2.99233e-09 2.51058e-11
0.0258908 -1.67431e-09 -2.58208e-11
0.0258908 -5.56833e-10 -8.86848e-11
0.0258908 6.02636e-10 -2.08708e-10
0.0258908 2.09428e-09 -3.44614e-10
0.0258908 4.70715e-09 -8.21523e-10
0.0258908 9.11989e-09 -3.91318e-09
0.0258908 1.1791e-08 -6.58009e-09
0.01 -1.43696e-08 -4.18538e-08
0.01 -0.000427881 -0.00234658
0.0117804 -0.000175889 -0.00444044