# vtk DataFile Version 2.0
Tobias Weinzierl: CPU, Manycore and Cluster Computing
ASCII

DATASET STRUCTURED_POINTS
DIMENSIONS  51 11 6

ORIGIN 0 0 0 

SPACING 0.1 0.1 0.1 

POINT_DATA 3366

VECTORS velocity float
0 0 0
4.49272e-15 0 0
-6.5492e-10 0 0
-2.33376e-09 0 0
-3.92092e-09 0 0
-1.52319e-09 0 0
-5.7685e-10 0 0
-1.556e-11 0 0
1.46975e-10 0 0
-3.23319e-10 0 0
-1.06565e-09 0 0
-1.63291e-09 0 0
-1.86698e-09 0 0
-1.86456e-09 0 0
-1.78322e-09 0 0
-1.72107e-09 0 0
-1.7021e-09 0 0
-1.71343e-09 0 0
-1.73688e-09 0 0
-1.76064e-09 0 0
-1.77968e-09 0 0
-1.79303e-09 0 0
-1.80152e-09 0 0
-1.80645e-09 0 0
-1.80902e-09 0 0
-1.81015e-09 0 0
-1.81045e-09 0 0
-1.81034e-09 0 0
-1.81005e-09 0 0
-1.8097e-09 0 0
-1.80938e-09 0 0
-1.80909e-09 0 0
-1.80886e-09 0 0
-1.80867e-09 0 0
-1.80853e-09 0 0
-1.80842e-09 0 0
-1.80834e-09 0 0
-1.80828e-09 0 0
-1.80824e-09 0 0
-1.8082e-09 0 0
-1.80818e-09 0 0
-1.80816e-09 0 0
-1.80815e-09 0 0
-1.80814e-09 0 0
-1.80813e-09 0 0
-1.80813e-09 0 0
-1.80813e-09 0 0
-1.80812e-09 0 0
-1.80812e-09 0 0
-1.80813e-09 0 0
0.00239596 0 0
0 6.65342e-09 0
1.49334e-14 1.83331e-10 0
-1.06776e-09 6.19693e-10 0
-4.18566e-09 9.62333e-10 0
-6.54309e-09 6.5462e-10 0
-2.71052e-09 9.27946e-10 0
-1.66436e-09 1.65923e-09 0
-1.06995e-09 1.37259e-09 0
-4.44985e-10 1.02822e-09 0
-7.40814e-10 1.06562e-09 0
-1.74367e-09 9.94823e-10 0
-2.68819e-09 6.87583e-10 0
-3.15555e-09 3.10526e-10 0
-3.23593e-09 5.2197e-11 0
-3.20594e-09 -4.01099e-11 0
-3.2316e-09 -3.14033e-11 0
-3.3292e-09 2.11e-12 0
-3.45638e-09 2.44019e-11 0
-3.57575e-09 3.08549e-11 0
-3.6701e-09 2.76018e-11 0
-3.73694e-09 2.07511e-11 0
-3.78064e-09 1.38304e-11 0
-3.80731e-09 8.27328e-12 0
-3.82252e-09 4.35206e-12 0
-3.8305e-09 1.84081e-12 0
-3.8342e-09 3.74661e-13 0
-3.83551e-09 -3.89373e-13 0
-3.83559e-09 -7.18413e-13 0
-3.83511e-09 -7.99221e-13 0
-3.83445e-09 -7.52422e-13 0
-3.83377e-09 -6.50623e-13 0
-3.83318e-09 -5.34353e-13 0
-3.83268e-09 -4.24109e-13 0
-3.83228e-09 -3.28638e-13 0
-3.83198e-09 -2.50271e-13 0
-3.83174e-09 -1.88149e-13 0
-3.83157e-09 -1.40078e-13 0
-3.83144e-09 -1.03517e-13 0
-3.83134e-09 -7.60564e-14 0
-3.83127e-09 -5.56218e-14 0
-3.83122e-09 -4.0517e-14 0
-3.83119e-09 -2.9403e-14 0
-3.83116e-09 -2.12474e-14 0
-3.83114e-09 -1.52666e-14 0
-3.83113e-09 -1.08705e-14 0
-3.83112e-09 -7.60329e-15 0
-3.83111e-09 -5.11942e-15 0
-3.83111e-09 -3.15256e-15 0
-3.83111e-09 -7.74774e-16 0
-3.83111e-09 4.33572e-15 0
0.00661386 -2.14486e-09 0
0 1.85839e-11 0
2.32737e-14 2.09396e-10 0
-1.19455e-10 -3.17318e-11 0
-2.35551e-09 -1.42554e-09 0
-3.1055e-09 -2.32182e-09 0
-3.3323e-10 -2.38342e-10 0
-1.53862e-09 2.24681e-09 0
-2.0562e-09 1.86327e-09 0
-1.58635e-09 6.70621e-10 0
-1.22131e-09 1.80039e-10 0
-1.71249e-09 8.88358e-11 0
-2.38173e-09 2.97072e-10 0
-2.75052e-09 5.92954e-10 0
-2.77613e-09 7.35364e-10 0
-2.70607e-09 7.03328e-10 0
-2.72145e-09 5.88993e-10 0
-2.83466e-09 4.57012e-10 0
-2.98689e-09 3.34814e-10 0
-3.12814e-09 2.33057e-10 0
-3.23674e-09 1.54621e-10 0
-3.31086e-09 9.78672e-11 0
-3.35717e-09 5.89541e-11 0
-3.38395e-09 3.35313e-11 0
-3.39822e-09 1.76771e-11 0
-3.40503e-09 8.26105e-12 0
-3.40766e-09 2.97717e-12 0
-3.40815e-09 2.27184e-13 0
-3.40765e-09 -1.04185e-12 0
-3.40679e-09 -1.49262e-12 0
-3.40587e-09 -1.52406e-12 0
-3.40505e-09 -1.36532e-12 0
-3.40436e-09 -1.14091e-12 0
-3.40381e-09 -9.13502e-13 0
-3.40339e-09 -7.10936e-13 0
-3.40307e-09 -5.42424e-13 0
-3.40283e-09 -4.0798e-13 0
-3.40265e-09 -3.03647e-13 0
-3.40252e-09 -2.24219e-13 0
-3.40242e-09 -1.64572e-13 0
-3.40235e-09 -1.20218e-13 0
-3.4023e-09 -8.74666e-14 0
-3.40227e-09 -6.33939e-14 0
-3.40224e-09 -4.57414e-14 0
-3.40222e-09 -3.27873e-14 0
-3.40221e-09 -2.32318e-14 0
-3.4022e-09 -1.60674e-14 0
-3.40219e-09 -1.03234e-14 0
-3.40219e-09 -4.91433e-15 0
-3.40219e-09 6.2153e-16 0
-3.40219e-09 6.03413e-15 0
0.00896191 -3.30476e-09 0
0 -9.54832e-09 0
2.45248e-14 -1.95698e-10 0
7.1079e-10 -1.307e-09 0
-1.04507e-09 -3.53059e-09 0
-1.94035e-09 -4.71471e-09 0
8.54097e-10 -2.29544e-09 0
-4.51111e-10 -2.95132e-14 0
-1.00181e-09 -5.4518e-10 0
-2.10545e-09 -1.58408e-09 0
-2.24651e-09 -1.95278e-09 0
-2.69742e-09 -1.38796e-09 0
-3.27617e-09 -3.22888e-10 0
-3.51155e-09 6.71104e-10 0
-3.31779e-09 1.09551e-09 0
-2.92673e-09 1.06976e-09 0
-2.60134e-09 8.78778e-10 0
-2.43304e-09 6.65893e-10 0
-2.38478e-09 4.75262e-10 0
-2.39232e-09 3.20319e-10 0
-2.41327e-09 2.03981e-10 0
-2.43004e-09 1.2257e-10 0
-2.43901e-09 6.90146e-11 0
-2.44182e-09 3.5714e-11 0
-2.44102e-09 1.61377e-11 0
-2.43858e-09 5.33466e-12 0
-2.43573e-09 -1.48529e-13 0
-2.43306e-09 -2.57375e-12 0
-2.43083e-09 -3.34639e-12 0
-2.42905e-09 -3.29788e-12 0
-2.4277e-09 -2.89564e-12 0
-2.42669e-09 -2.38701e-12 0
-2.42595e-09 -1.89212e-12 0
-2.42541e-09 -1.46111e-12 0
-2.42502e-09 -1.10787e-12 0
-2.42475e-09 -8.29085e-13 0
-2.42454e-09 -6.14519e-13 0
-2.4244e-09 -4.5224e-13 0
-2.4243e-09 -3.31025e-13 0
-2.42422e-09 -2.41296e-13 0
-2.42417e-09 -1.75302e-13 0
-2.42413e-09 -1.26982e-13 0
-2.42411e-09 -9.16965e-14 0
-2.42409e-09 -6.59445e-14 0
-2.42407e-09 -4.70974e-14 0
-2.42406e-09 -3.31491e-14 0
-2.42406e-09 -2.25612e-14 0
-2.42405e-09 -1.42941e-14 0
-2.42405e-09 -7.73158e-15 0
-2.42405e-09 -2.21383e-15 0
-2.42405e-09 3.00409e-15 0
0.00960413 -2.63369e-09 0
0 -1.83978e-08 0
8.19665e-15 -7.83062e-10 0
3.27328e-10 -2.25434e-09 0
-1.58358e-09 -3.12275e-09 0
-3.2559e-09 -2.54456e-09 0
-1.47102e-14 -8.93112e-10 0
-1.17806e-13 -1.43351e-13 0
1.21007e-13 -1.3555e-13 0
-1.11106e-09 -1.20983e-09 0
-2.98637e-09 -2.48302e-09 0
-3.53523e-09 -1.86687e-09 0
-3.91833e-09 -4.3231e-10 0
-4.16232e-09 6.8732e-10 0
-4.02652e-09 1.03537e-09 0
-3.55034e-09 8.99808e-10 0
-3.0011e-09 6.77019e-10 0
-2.5869e-09 4.90591e-10 0
-2.34054e-09 3.39685e-10 0
-2.20828e-09 2.18098e-10 0
-2.13587e-09 1.27023e-10 0
-2.09212e-09 6.5164e-11 0
-2.06297e-09 2.70647e-11 0
-2.04255e-09 5.84028e-12 0
-2.02812e-09 -4.59948e-12 0
-2.01804e-09 -8.74368e-12 0
-2.01111e-09 -9.53898e-12 0
-2.00643e-09 -8.75802e-12 0
-2.00331e-09 -7.38678e-12 0
-2.00124e-09 -5.92808e-12 0
-1.99988e-09 -4.6082e-12 0
-1.99898e-09 -3.50589e-12 0
-1.99839e-09 -2.62746e-12 0
-1.998e-09 -1.94811e-12 0
-1.99773e-09 -1.43325e-12 0
-1.99756e-09 -1.0485e-12 0
-1.99744e-09 -7.63841e-13 0
-1.99736e-09 -5.54743e-13 0
-1.9973e-09 -4.01947e-13 0
-1.99726e-09 -2.90705e-13 0
-1.99723e-09 -2.09922e-13 0
-1.99721e-09 -1.51346e-13 0
-1.9972e-09 -1.08886e-13 0
-1.99719e-09 -7.80657e-14 0
-1.99718e-09 -5.56104e-14 0
-1.99718e-09 -3.91608e-14 0
-1.99717e-09 -2.70316e-14 0
-1.99717e-09 -1.79717e-14 0
-1.99717e-09 -1.0992e-14 0
-1.99717e-09 -5.20484e-15 0
-1.99717e-09 2.07511e-16 0
0.00974024 -1.19275e-09 0
0 -1.64152e-08 0
-2.46829e-15 -8.46799e-10 0
-1.92411e-10 -1.869e-09 0
-2.03028e-09 -2.51225e-09 0
-4.04829e-09 -2.86457e-09 0
-1.77485e-09 -1.37453e-09 0
-1.17353e-13 1.13647e-13 0
7.3543e-15 -7.3543e-15 0
1.10819e-13 -1.31172e-13 0
-1.54367e-09 -1.17012e-09 0
-3.16882e-09 -1.86499e-09 0
-3.29797e-09 -4.0227e-10 0
-3.83497e-09 9.73115e-10 0
-4.28256e-09 1.20456e-09 0
-4.12329e-09 8.06207e-10 0
-3.51474e-09 4.19468e-10 0
-2.90146e-09 2.01214e-10 0
-2.48219e-09 8.54161e-11 0
-2.23848e-09 1.72703e-11 0
-2.10187e-09 -2.1926e-11 0
-2.02321e-09 -4.00068e-11 0
-1.97624e-09 -4.41013e-11 0
-1.94762e-09 -4.05879e-11 0
-1.93014e-09 -3.39817e-11 0
-1.91956e-09 -2.68866e-11 0
-1.91323e-09 -2.05267e-11 0
-1.9095e-09 -1.53141e-11 0
-1.90734e-09 -1.12558e-11 0
-1.90611e-09 -8.19389e-12 0
-1.90542e-09 -5.9289e-12 0
-1.90504e-09 -4.27414e-12 0
-1.90484e-09 -3.07458e-12 0
-1.90473e-09 -2.20912e-12 0
-1.90468e-09 -1.58646e-12 0
-1.90465e-09 -1.13917e-12 0
-1.90464e-09 -8.18069e-13 0
-1.90464e-09 -5.87611e-13 0
-1.90464e-09 -4.22179e-13 0
-1.90464e-09 -3.03377e-13 0
-1.90465e-09 -2.18007e-13 0
-1.90465e-09 -1.56603e-13 0
-1.90465e-09 -1.12377e-13 0
-1.90465e-09 -8.04661e-14 0
-1.90465e-09 -5.73774e-14 0
-1.90465e-09 -4.05898e-14 0
-1.90465e-09 -2.82772e-14 0
-1.90465e-09 -1.91339e-14 0
-1.90465e-09 -1.22152e-14 0
-1.90465e-09 -6.69049e-15 0
-1.90465e-09 -1.7229e-15 0
0.00976025 3.96951e-10 0
0 -1.15434e-08 0
1.386e-15 -7.31337e-10 0
-2.61285e-10 -1.74508e-09 0
-2.03126e-09 -1.93205e-09 0
-4.37665e-09 -1.60319e-09 0
-3.98302e-09 -9.41989e-10 0
-1.15161e-09 -2.57094e-10 0
-1.1534e-13 1.11943e-13 0
-1.12366e-15 1.12366e-15 0
9.53909e-14 -1.26229e-13 0
-1.29654e-09 -6.91017e-10 0
-1.46952e-09 2.85052e-12 0
-2.37196e-09 1.84163e-09 0
-3.79214e-09 1.85271e-09 0
-4.39488e-09 9.02218e-10 0
-3.94387e-09 1.52656e-10 0
-3.1844e-09 -1.57602e-10 0
-2.61451e-09 -2.30787e-10 0
-2.29374e-09 -2.21154e-10 0
-2.13389e-09 -1.86741e-10 0
-2.05752e-09 -1.46903e-10 0
-2.02154e-09 -1.09897e-10 0
-2.00492e-09 -7.93309e-11 0
-1.9976e-09 -5.59324e-11 0
-1.99474e-09 -3.88885e-11 0
-1.99395e-09 -2.68545e-11 0
-1.99405e-09 -1.85102e-11 0
-1.99448e-09 -1.27767e-11 0
-1.99499e-09 -8.84848e-12 0
-1.99547e-09 -6.15441e-12 0
-1.99587e-09 -4.3004e-12 0
-1.99619e-09 -3.01855e-12 0
-1.99644e-09 -2.12771e-12 0
-1.99663e-09 -1.50544e-12 0
-1.99677e-09 -1.06865e-12 0
-1.99688e-09 -7.6073e-13 0
-1.99696e-09 -5.42809e-13 0
-1.99702e-09 -3.88061e-13 0
-1.99706e-09 -2.77849e-13 0
-1.99709e-09 -1.99149e-13 0
-1.99711e-09 -1.42816e-13 0
-1.99712e-09 -1.02398e-13 0
-1.99714e-09 -7.33169e-14 0
-1.99714e-09 -5.23182e-14 0
-1.99715e-09 -3.70795e-14 0
-1.99715e-09 -2.59403e-14 0
-1.99716e-09 -1.77351e-14 0
-1.99716e-09 -1.16829e-14 0
-1.99716e-09 -7.1671e-15 0
-1.99716e-09 -3.42684e-15 0
0.00974024 1.91733e-09 0
0 -8.16439e-09 0
3.26544e-15 -6.41682e-10 0
-4.11806e-10 -1.47535e-09 0
-2.22518e-09 -1.49704e-09 0
-4.25297e-09 -8.64899e-10 0
-4.32478e-09 -2.74115e-10 0
-2.76274e-09 -4.69395e-10 0
-1.31302e-09 -3.96817e-10 0
-1.21739e-13 1.0213e-13 0
9.12094e-14 1.04686e-13 0
-8.79373e-15 -3.61318e-10 0
-6.19688e-10 8.40839e-10 0
-7.04632e-10 2.93823e-09 0
-1.88134e-09 2.69659e-09 0
-3.27403e-09 1.09704e-09 0
-3.62258e-09 -7.08416e-11 0
-3.22541e-09 -4.66164e-10 0
-2.7726e-09 -4.77057e-10 0
-2.50903e-09 -3.81395e-10 0
-2.40054e-09 -2.77963e-10 0
-2.37096e-09 -1.92683e-10 0
-2.37231e-09 -1.29515e-10 0
-2.38251e-09 -8.5567e-11 0
-2.39321e-09 -5.6151e-11 0
-2.40196e-09 -3.68782e-11 0
-2.40848e-09 -2.43603e-11 0
-2.41313e-09 -1.62292e-11 0
-2.41639e-09 -1.09174e-11 0
-2.41867e-09 -7.41651e-12 0
-2.42026e-09 -5.08513e-12 0
-2.42137e-09 -3.51599e-12 0
-2.42214e-09 -2.44905e-12 0
-2.42269e-09 -1.71676e-12 0
-2.42308e-09 -1.20995e-12 0
-2.42335e-09 -8.56618e-13 0
-2.42355e-09 -6.08751e-13 0
-2.42369e-09 -4.33941e-13 0
-2.42379e-09 -3.101e-13 0
-2.42386e-09 -2.22033e-13 0
-2.42391e-09 -1.59199e-13 0
-2.42394e-09 -1.14238e-13 0
-2.42397e-09 -8.19748e-14 0
-2.42399e-09 -5.87561e-14 0
-2.424e-09 -4.19898e-14 0
-2.42401e-09 -2.98359e-14 0
-2.42402e-09 -2.09845e-14 0
-2.42402e-09 -1.45184e-14 0
-2.42403e-09 -9.90993e-15 0
-2.42403e-09 -6.99493e-15 0
-2.42403e-09 -5.38116e-15 0
0.00960413 3.12421e-09 0
0 -7.19157e-09 0
6.66852e-15 -4.83685e-10 0
-7.30485e-10 -1.15582e-09 0
-2.6996e-09 -1.17412e-09 0
-4.49604e-09 -6.15849e-10 0
-4.62948e-09 4.60174e-11 0
-3.45719e-09 -8.93071e-11 0
-2.68845e-09 -1.24214e-09 0
-1.38456e-09 -9.92958e-10 0
-1.53834e-09 -2.18935e-17 0
-3.23711e-09 5.15161e-10 0
-4.27191e-09 1.52145e-09 0
-2.12199e-09 2.32197e-09 0
-7.90167e-10 2.16216e-09 0
-1.89461e-09 1.06454e-09 0
-3.13778e-09 9.78982e-11 0
-3.44192e-09 -3.17999e-10 0
-3.33762e-09 -3.64178e-10 0
-3.24946e-09 -2.82713e-10 0
-3.23972e-09 -1.92526e-10 0
-3.26821e-09 -1.24933e-10 0
-3.30356e-09 -7.99778e-11 0
-3.33338e-09 -5.13485e-11 0
-3.35531e-09 -3.33249e-11 0
-3.3705e-09 -2.19267e-11 0
-3.38075e-09 -1.46285e-11 0
-3.3876e-09 -9.88385e-12 0
-3.39219e-09 -6.75222e-12 0
-3.39528e-09 -4.65648e-12 0
-3.39738e-09 -3.23695e-12 0
-3.39882e-09 -2.26539e-12 0
-3.39981e-09 -1.5945e-12 0
-3.4005e-09 -1.12769e-12 0
-3.40099e-09 -8.00756e-13 0
-3.40133e-09 -5.70519e-13 0
-3.40157e-09 -4.07614e-13 0
-3.40174e-09 -2.9189e-13 0
-3.40186e-09 -2.09404e-13 0
-3.40195e-09 -1.50439e-13 0
-3.40201e-09 -1.08181e-13 0
-3.40206e-09 -7.78281e-14 0
-3.40209e-09 -5.59773e-14 0
-3.40211e-09 -4.02112e-14 0
-3.40213e-09 -2.88084e-14 0
-3.40214e-09 -2.05439e-14 0
-3.40215e-09 -1.45561e-14 0
-3.40215e-09 -1.02415e-14 0
-3.40216e-09 -7.30849e-15 0
-3.40216e-09 -6.14371e-15 0
-3.40217e-09 -7.14963e-15 0
0.00896191 3.38271e-09 0
0 -7.58826e-09 0
9.05759e-15 -2.43311e-10 0
-1.02044e-09 -6.1007e-10 0
-2.92396e-09 -6.11215e-10 0
-4.37034e-09 -3.33814e-10 0
-4.69521e-09 -2.20751e-10 0
-3.96217e-09 -4.63757e-10 0
-3.45484e-09 -1.16156e-09 0
-3.80535e-09 -8.64768e-10 0
-3.56445e-09 1.06358e-09 0
-4.19038e-09 2.46e-09 0
-3.85757e-09 1.69464e-09 0
-2.04345e-09 -2.03797e-10 0
-1.15306e-09 -1.2249e-09 0
-2.34044e-09 -1.04601e-09 0
-3.64354e-09 -3.81245e-10 0
-4.01562e-09 7.74516e-11 0
-3.9212e-09 1.88495e-10 0
-3.80053e-09 1.37219e-10 0
-3.7501e-09 6.84496e-11 0
-3.74637e-09 2.45422e-11 0
-3.76057e-09 3.47141e-12 0
-3.7778e-09 -4.48041e-12 0
-3.79262e-09 -6.3568e-12 0
-3.8039e-09 -5.89229e-12 0
-3.81203e-09 -4.76469e-12 0
-3.81775e-09 -3.62568e-12 0
-3.82174e-09 -2.67751e-12 0
-3.82451e-09 -1.94759e-12 0
-3.82645e-09 -1.40609e-12 0
-3.8278e-09 -1.01166e-12 0
-3.82875e-09 -7.26932e-13 0
-3.82942e-09 -5.22247e-13 0
-3.8299e-09 -3.75332e-13 0
-3.83024e-09 -2.69907e-13 0
-3.83048e-09 -1.94221e-13 0
-3.83065e-09 -1.39845e-13 0
-3.83077e-09 -1.00744e-13 0
-3.83086e-09 -7.26014e-14 0
-3.83092e-09 -5.23263e-14 0
-3.83097e-09 -3.77047e-14 0
-3.831e-09 -2.71489e-14 0
-3.83103e-09 -1.95191e-14 0
-3.83104e-09 -1.3998e-14 0
-3.83106e-09 -1.00033e-14 0
-3.83106e-09 -7.13007e-15 0
-3.83107e-09 -5.10383e-15 0
-3.83108e-09 -3.80276e-15 0
-3.83108e-09 -3.67018e-15 0
-3.83108e-09 -5.61583e-15 0
0.00661386 1.89909e-09 0
0 0 0
5.29534e-15 0 0
-5.42816e-10 0 0
-1.40645e-09 0 0
-2.00003e-09 0 0
-2.18233e-09 0 0
-2.11612e-09 0 0
-2.07941e-09 0 0
-2.4208e-09 0 0
-2.02611e-09 0 0
-9.53279e-10 0 0
-6.5189e-11 0 0
2.36023e-11 0 0
-6.21154e-10 0 0
-1.5413e-09 0 0
-2.08855e-09 0 0
-2.15476e-09 0 0
-2.02416e-09 0 0
-1.89961e-09 0 0
-1.82901e-09 0 0
-1.79913e-09 0 0
-1.7905e-09 0 0
-1.79074e-09 0 0
-1.79379e-09 0 0
-1.79717e-09 0 0
-1.80005e-09 0 0
-1.80228e-09 0 0
-1.80392e-09 0 0
-1.80512e-09 0 0
-1.80597e-09 0 0
-1.80658e-09 0 0
-1.80702e-09 0 0
-1.80733e-09 0 0
-1.80755e-09 0 0
-1.80771e-09 0 0
-1.80782e-09 0 0
-1.80791e-09 0 0
-1.80796e-09 0 0
-1.80801e-09 0 0
-1.80804e-09 0 0
-1.80806e-09 0 0
-1.80808e-09 0 0
-1.80809e-09 0 0
-1.80809e-09 0 0
-1.8081e-09 0 0
-1.8081e-09 0 0
-1.80811e-09 0 0
-1.80811e-09 0 0
-1.80811e-09 0 0
-1.80812e-09 0 0
0.00239596 0 0
0 0 8.5119e-09
2.06872e-14 0 4.71589e-10
-9.25963e-10 0 1.71407e-09
-4.47196e-09 0 2.30366e-09
-1.06062e-08 0 -1.46519e-09
-3.90045e-09 0 -4.27201e-09
-7.46281e-10 0 -3.16686e-09
1.22911e-09 0 -2.09641e-09
2.10401e-09 0 -7.20455e-10
1.62464e-09 0 1.4701e-10
3.02836e-10 0 3.14767e-10
-1.09758e-09 0 1.13743e-10
-2.11054e-09 0 -7.8871e-11
-2.68493e-09 0 -1.35952e-10
-2.98196e-09 0 -1.03386e-10
-3.17392e-09 0 -4.97256e-11
-3.3427e-09 0 -9.74528e-12
-3.49847e-09 0 1.0384e-11
-3.63002e-09 0 1.6356e-11
-3.73049e-09 0 1.51975e-11
-3.80104e-09 0 1.1637e-11
-3.84728e-09 0 8.01103e-12
-3.87577e-09 0 5.14723e-12
-3.89227e-09 0 3.14778e-12
-3.90115e-09 0 1.85257e-12
-3.90543e-09 0 1.05566e-12
-3.90711e-09 0 5.83969e-13
-3.90741e-09 0 3.13493e-13
-3.90706e-09 0 1.62727e-13
-3.90646e-09 0 8.09908e-14
-3.90581e-09 0 3.79894e-14
-3.90522e-09 0 1.61666e-14
-3.90472e-09 0 5.61304e-15
-3.90432e-09 0 8.70229e-16
-3.904e-09 0 -9.93845e-16
-3.90376e-09 0 -1.51141e-15
-3.90358e-09 0 -1.45635e-15
-3.90345e-09 0 -1.20154e-15
-3.90335e-09 0 -9.13905e-16
-3.90327e-09 0 -6.59454e-16
-3.90322e-09 0 -4.55798e-16
-3.90318e-09 0 -2.99906e-16
-3.90315e-09 0 -1.80674e-16
-3.90313e-09 0 -8.46195e-17
-3.90312e-09 0 2.67183e-18
-3.90311e-09 0 1.09785e-16
-3.9031e-09 0 2.40799e-16
-3.9031e-09 0 3.22758e-16
-3.9031e-09 0 9.23831e-16
-3.9031e-09 0 4.29296e-15
0.00659656 0 -1.47142e-09
0.0036 -2.43557e-09 5.85785e-10
0.0036 -0.00129796 -2.98782e-05
0.00689141 -0.00409578 -0.000390755
0.0141251 -0.00735718 -0.00200802
0.0252347 -0.0140387 -0.00516429
0.0462134 -0.0111357 -0.0046651
0.0491818 -0.000974931 -0.00135511
0.0486917 0.00318802 0.000213017
0.0434532 0.005333 0.000835774
0.0377889 0.00529769 0.000570702
0.0327555 0.00437482 6.55015e-05
0.0285789 0.00324211 -0.000293653
0.025338 0.00221922 -0.000399137
0.0230012 0.0014431 -0.000326786
0.0214102 0.000921767 -0.000202031
0.0203643 0.000590278 -0.000101086
0.0196938 0.000378464 -4.12782e-05
0.0192737 0.000240439 -1.24684e-05
0.0190167 0.000150112 -1.00799e-06
0.0188631 9.1728e-05 2.4106e-06
0.0187736 5.47685e-05 2.70556e-06
0.0187228 3.191e-05 2.07932e-06
0.0186948 1.8101e-05 1.36991e-06
0.01868 9.95362e-06 8.21964e-07
0.0186725 5.26323e-06 4.58252e-07
0.018669 2.63518e-06 2.37368e-07
0.0186676 1.20916e-06 1.11821e-07
0.0186673 4.66786e-07 4.46944e-08
0.0186674 1.02678e-07 1.12416e-08
0.0186676 -5.90029e-08 -3.80571e-09
0.0186679 -1.17049e-07 -9.34118e-09
0.0186682 -1.25423e-07 -1.03044e-08
0.0186685 -1.12591e-07 -9.3129e-09
0.0186686 -9.28643e-08 -7.67913e-09
0.0186688 -7.29248e-08 -6.01112e-09
0.0186689 -5.54916e-08 -4.55352e-09
0.018669 -4.13291e-08 -3.37403e-09
0.018669 -3.03166e-08 -2.46162e-09
0.0186691 -2.19944e-08 -1.77598e-09
0.0186691 -1.58281e-08 -1.27098e-09
0.0186691 -1.13232e-08 -9.04647e-10
0.0186691 -8.06631e-09 -6.42635e-10
0.0186691 -5.73076e-09 -4.58816e-10
0.0186692 -4.06756e-09 -3.34867e-10
0.0186692 -2.89011e-09 -2.5718e-10
0.0186692 -2.06368e-09 -2.17261e-10
0.0186692 -1.50748e-09 -2.12704e-10
0.0186692 -1.14127e-09 -1.47277e-10
0.0186692 -1.36759e-09 -2.36893e-10
0.0186692 -4.32014e-09 -2.37798e-09
0.0186692 -6.89721e-09 -4.35752e-09
0.01 -1.37751e-09 -1.97839e-08
0.01 -0.00310262 -0.000504722
0.0149744 -0.0102216 -0.00110278
0.024011 -0.018189 -0.00256212
0.0373532 -0.0304931 -0.00414179
0.0570394 -0.0217131 -0.00114134
0.054946 -0.00162976 0.002235
0.0549612 0.00575191 0.00253945
0.0494302 0.0106431 0.00235294
0.0439406 0.0106252 0.00142898
0.0392965 0.00939475 0.0003545
0.0352806 0.00772288 -0.000356195
0.0320542 0.00586081 -0.000601065
0.0297481 0.00412168 -0.000522328
0.028211 0.00274204 -0.000332631
0.0272248 0.00176187 -0.000170233
0.02661 0.00110487 -7.14119e-05
0.0262382 0.000678351 -2.27076e-05
0.0260206 0.000407885 -2.7106e-06
0.0258977 0.000240034 3.67549e-06
0.025831 0.000138041 4.58488e-06
0.0257965 7.73589e-05 3.74221e-06
0.0257799 4.20281e-05 2.62092e-06
0.0257726 2.19309e-05 1.69297e-06
0.0257702 1.07981e-05 1.03943e-06
0.02577 4.82766e-06 6.15914e-07
0.0257707 1.76091e-06 3.55255e-07
0.0257716 2.83436e-07 2.00445e-07
0.0257726 -3.5329e-07 1.10926e-07
0.0257734 -5.6547e-07 6.02645e-08
0.0257741 -5.78094e-07 3.21229e-08
0.0257746 -5.0848e-07 1.67586e-08
0.025775 -4.14779e-07 8.51487e-09
0.0257752 -3.2356e-07 4.17488e-09
0.0257754 -2.45177e-07 1.94107e-09
0.0257756 -1.82107e-07 8.24491e-10
0.0257757 -1.33344e-07 2.8909e-10
0.0257758 -9.66245e-08 4.87357e-11
0.0257758 -6.94763e-08 -4.6745e-11
0.0257759 -4.96685e-08 -7.46539e-11
0.0257759 -3.53585e-08 -7.39634e-11
0.0257759 -2.50993e-08 -6.39398e-11
0.0257759 -1.77912e-08 -5.40516e-11
0.0257759 -1.26203e-08 -5.00691e-11
0.0257759 -9.00028e-09 -5.36971e-11
0.0257759 -6.51504e-09 -5.36345e-11
0.025776 -4.97966e-09 -5.14946e-11
0.025776 -4.70851e-09 -4.63464e-12
0.025776 -6.05235e-09 -2.93054e-10
0.025776 -8.91337e-09 -3.47267e-09
0.025776 -1.06926e-08 -6.31562e-09
0.0148 -1.4824e-08 -2.47773e-08
0.0148 -0.00531159 -0.00104712
0.0199945 -0.0161897 -0.00260443
0.0263146 -0.0276293 -0.00460575
0.0307595 -0.0433818 -0.00532202
0.0292425 -0.0266309 -0.000853238
0.026206 -1.74508e-07 0.00256428
0.0261878 0.00742568 0.00259862
0.0305519 0.0154292 0.00251212
0.030902 0.0151441 0.00158838
0.0297505 0.0132699 0.000578103
0.028594 0.0109364 -0.000141373
0.0277864 0.00818202 -0.000415888
0.0274861 0.00558783 -0.00038842
0.0274475 0.00361324 -0.00024264
0.0274891 0.00226705 -0.000109362
0.027541 0.00139107 -2.89191e-05
0.0275882 0.000834197 7.03553e-06
0.0276294 0.000487641 1.75358e-05
0.0276645 0.00027713 1.69316e-05
0.0276931 0.000152547 1.29453e-05
0.0277155 8.0782e-05 8.84892e-06
0.0277321 4.06094e-05 5.65866e-06
0.0277442 1.88382e-05 3.46071e-06
0.0277527 7.50518e-06 2.04913e-06
0.0277586 1.92815e-06 1.18325e-06
0.0277626 -5.77355e-07 6.69202e-07
0.0277653 -1.51179e-06 3.71522e-07
0.0277672 -1.69071e-06 2.02585e-07
0.0277684 -1.54269e-06 1.08376e-07
0.0277693 -1.283e-06 5.66957e-08
0.0277699 -1.01256e-06 2.88171e-08
0.0277702 -7.7312e-07 1.40583e-08
0.0277705 -5.77257e-07 6.42356e-09
0.0277707 -4.24278e-07 2.59528e-09
0.0277708 -3.08294e-07 7.62488e-10
0.0277709 -2.22127e-07 -4.94221e-11
0.027771 -1.5903e-07 -3.56628e-10
0.027771 -1.13313e-07 -4.27183e-10
0.027771 -8.04514e-08 -3.96716e-10
0.0277711 -5.69768e-08 -3.31414e-10
0.0277711 -4.02941e-08 -2.61912e-10
0.0277711 -2.84984e-08 -2.00847e-10
0.0277711 -2.02128e-08 -1.51017e-10
0.0277711 -1.44794e-08 -1.09665e-10
0.0277711 -1.07251e-08 -7.53589e-11
0.0277711 -8.61464e-09 -8.35665e-11
0.0277711 -7.78703e-09 -1.71861e-10
0.0277711 -7.93797e-09 -8.03882e-10
0.0277711 -8.57096e-09 -4.16557e-09
0.0277711 -8.90609e-09 -6.96017e-09
0.018 -3.06382e-08 -2.66797e-08
0.018 -0.00665874 -0.00187882
0.0203454 -0.017831 -0.00503193
0.0201207 -0.0233395 -0.00663652
0.0159039 -0.0254661 -0.00710921
-2.09525e-08 -0.013299 -0.00362581
1.55303e-06 4.80635e-07 1.18331e-08
-5.76025e-07 6.04465e-07 0.000490186
0.00716597 0.00484934 0.00102288
0.0149882 0.011033 0.000906246
0.018413 0.0118024 0.000483958
0.0200315 0.0100099 4.51595e-06
0.0217479 0.00729819 -0.000271181
0.0235253 0.00469687 -0.000289018
0.0250421 0.00286706 -0.000182306
0.0261612 0.00171804 -6.91527e-05
0.0269141 0.00101341 1.9054e-06
0.0273978 0.000581176 3.07722e-05
0.027703 0.000319565 3.44285e-05
0.0278941 0.000166155 2.79308e-05
0.0280129 7.99235e-05 1.95871e-05
0.0280862 3.37885e-05 1.26232e-05
0.028131 1.05507e-05 7.69735e-06
0.0281581 -1.92906e-07 4.51204e-06
0.0281744 -4.44981e-06 2.56553e-06
0.0281842 -5.54413e-06 1.42182e-06
0.02819 -5.23805e-06 7.6932e-07
0.0281935 -4.42096e-06 4.05891e-07
0.0281955 -3.51256e-06 2.07774e-07
0.0281968 -2.68985e-06 1.0208e-07
0.0281975 -2.01053e-06 4.7054e-08
0.028198 -1.47784e-06 1.92887e-08
0.0281983 -1.07339e-06 5.895e-09
0.0281984 -7.72851e-07 -1.06301e-10
0.0281985 -5.52858e-07 -2.42991e-09
0.0281986 -3.93554e-07 -3.01392e-09
0.0281986 -2.79113e-07 -2.84387e-09
0.0281987 -1.97392e-07 -2.40295e-09
0.0281987 -1.39302e-07 -1.91475e-09
0.0281987 -9.81587e-08 -1.47237e-09
0.0281987 -6.91063e-08 -1.10597e-09
0.0281987 -4.86506e-08 -8.17269e-10
0.0281987 -3.43022e-08 -5.97093e-10
0.0281987 -2.43138e-08 -4.35206e-10
0.0281987 -1.74649e-08 -3.2459e-10
0.0281987 -1.28599e-08 -2.75452e-10
0.0281987 -9.81194e-09 -3.429e-10
0.0281987 -7.76389e-09 -5.28282e-10
0.0281987 -6.3618e-09 -1.28625e-09
0.0281987 -5.22479e-09 -4.47866e-09
0.0281987 -4.65076e-09 -7.02503e-09
0.0196 -4.06354e-08 -4.10834e-08
0.0196 -0.00537808 -0.00272224
0.0191121 -0.0121183 -0.00652443
0.0161797 -0.0147531 -0.00699183
0.0113387 -0.0134854 -0.00665177
0.00216864 -0.00547251 -0.00444869
1.1733e-06 -1.07959e-06 -0.000986514
5.0356e-07 -5.0356e-07 -6.61343e-10
-5.61675e-07 5.90375e-07 0.000150746
0.00480063 0.00365239 0.000310512
0.0109568 0.00819555 0.000248571
0.0137474 0.00773385 -2.15137e-05
0.0170249 0.00489353 -0.000294385
0.0203105 0.00247061 -0.00034793
0.0230741 0.0010816 -0.000260606
0.0250755 0.000432832 -0.000129157
0.0263713 0.000152654 -2.83731e-05
0.0271593 2.81458e-05 2.01223e-05
0.0276256 -2.72297e-05 3.18285e-05
0.0278984 -4.74554e-05 2.73649e-05
0.0280565 -4.95304e-05 1.91288e-05
0.0281471 -4.34691e-05 1.2005e-05
0.0281986 -3.49168e-05 7.04737e-06
0.0282274 -2.66274e-05 3.94729e-06
0.0282434 -1.9661e-05 2.12937e-06
0.0282522 -1.4222e-05 1.10909e-06
0.0282569 -1.01532e-05 5.55547e-07
0.0282595 -7.18781e-06 2.64135e-07
0.0282608 -5.0616e-06 1.15474e-07
0.0282615 -3.55262e-06 4.25424e-08
0.0282618 -2.48852e-06 8.75561e-09
0.0282619 -1.7411e-06 -5.40193e-09
0.028262 -1.21735e-06 -1.01153e-08
0.028262 -8.50854e-07 -1.05734e-08
0.028262 -5.94598e-07 -9.33873e-09
0.028262 -4.15498e-07 -7.62027e-09
0.028262 -2.9035e-07 -5.94569e-09
0.028262 -2.02912e-07 -4.51116e-09
0.0282619 -1.41826e-07 -3.35974e-09
0.0282619 -9.91581e-08 -2.47025e-09
0.0282619 -6.93647e-08 -1.80005e-09
0.0282619 -4.85789e-08 -1.30466e-09
0.0282619 -3.41009e-08 -9.4637e-10
0.0282619 -2.40341e-08 -6.99641e-10
0.0282619 -1.70321e-08 -5.49624e-10
0.0282619 -1.21274e-08 -4.90604e-10
0.0282619 -8.60692e-09 -5.58221e-10
0.0282619 -5.88448e-09 -7.34633e-10
0.0282619 -3.49097e-09 -1.4783e-09
0.0282619 -1.05086e-09 -4.51968e-09
0.0282619 2.27274e-10 -6.91944e-09
0.0196 -1.98398e-08 -5.51974e-08
0.0196 -0.00330655 -0.00306939
0.0189982 -0.00701888 -0.00658268
0.0177253 -0.00668262 -0.00651517
0.0138556 -0.00297284 -0.00573175
0.00997126 0.00332234 -0.00459897
0.00644039 0.00332492 -0.00229741
1.17408e-06 -9.85092e-07 -0.00042837
4.23417e-07 -4.23417e-07 -2.01222e-09
-5.45793e-07 5.77556e-07 4.34102e-05
0.00364156 0.00282218 0.000337948
0.00826938 0.00402193 0.000374943
0.0136832 0.000942362 -2.97713e-05
0.0185365 -0.00112653 -0.000315845
0.0223366 -0.00173111 -0.00038259
0.0249207 -0.00149414 -0.000271012
0.0264578 -0.00104725 -0.000124874
0.0272972 -0.00068045 -3.27328e-05
0.0277389 -0.000435037 4.04448e-06
0.0279684 -0.000278424 1.19271e-05
0.0280864 -0.000178393 9.98357e-06
0.0281463 -0.000114218 6.4256e-06
0.0281761 -7.30985e-05 3.64397e-06
0.0281904 -4.68517e-05 1.89917e-06
0.0281969 -3.01422e-05 9.17139e-07
0.0281996 -1.9503e-05 4.02503e-07
0.0282006 -1.27082e-05 1.48876e-07
0.0282006 -8.34474e-06 3.2385e-08
0.0282004 -5.52265e-06 -1.56126e-08
0.0282001 -3.68265e-06 -3.12079e-08
0.0281998 -2.4729e-06 -3.25885e-08
0.0281995 -1.67097e-06 -2.85327e-08
0.0281993 -1.1353e-06 -2.30496e-08
0.0281992 -7.74971e-07 -1.7813e-08
0.028199 -5.31106e-07 -1.34016e-08
0.0281989 -3.65183e-07 -9.9105e-09
0.0281989 -2.51785e-07 -7.24533e-09
0.0281988 -1.73995e-07 -5.25562e-09
0.0281988 -1.20469e-07 -3.79179e-09
0.0281988 -8.35506e-08 -2.72585e-09
0.0281988 -5.80389e-08 -1.95627e-09
0.0281987 -4.03815e-08 -1.40653e-09
0.0281987 -2.81362e-08 -1.02155e-09
0.0281987 -1.9611e-08 -7.63655e-10
0.0281987 -1.36185e-08 -6.06783e-10
0.0281987 -9.30575e-09 -5.37672e-10
0.0281987 -6.0322e-09 -5.93352e-10
0.0281987 -3.22772e-09 -7.50937e-10
0.0281987 -2.96964e-10 -1.43094e-09
0.0281987 3.17144e-09 -4.3719e-09
0.0281987 5.06646e-09 -6.72161e-09
0.018 -1.2564e-08 -5.42141e-08
0.018 -0.00166286 -0.00300715
0.0184728 -0.00290218 -0.00624676
0.0188007 -0.00134171 -0.00575343
0.0181646 0.00177443 -0.0046221
0.0180942 0.00760811 -0.00367457
0.0186794 0.0126922 -0.00225003
0.0115323 0.0069609 -0.00100407
1.2011e-06 -7.69082e-07 -0.000320264
-4.38095e-07 -8.84673e-07 8.55878e-09
1.20983e-07 -0.000207624 0.000830619
0.00932637 -0.00242744 0.00133878
0.017067 -0.00525368 0.000710917
0.0219416 -0.00590787 0.000130132
0.0248221 -0.00501964 -0.000255276
0.0264573 -0.00349753 -0.000328403
0.0272909 -0.00213441 -0.000223175
0.0276573 -0.00122616 -0.000110191
0.0277926 -0.000697459 -4.48895e-05
0.027829 -0.000400493 -1.63131e-05
0.0278287 -0.000232641 -5.63958e-06
0.0278177 -0.000136499 -2.01535e-06
0.0278059 -8.08679e-05 -8.41368e-07
0.0277961 -4.8417e-05 -4.50559e-07
0.0277887 -2.93303e-05 -2.96331e-07
0.0277833 -1.79949e-05 -2.13829e-07
0.0277796 -1.11867e-05 -1.57322e-07
0.027777 -7.04644e-06 -1.14825e-07
0.0277752 -4.49527e-06 -8.26663e-08
0.027774 -2.90217e-06 -5.88035e-08
0.0277731 -1.89425e-06 -4.14756e-08
0.0277725 -1.24854e-06 -2.91061e-08
0.0277721 -8.30059e-07 -2.03786e-08
0.0277718 -5.55966e-07 -1.42638e-08
0.0277716 -3.74753e-07 -9.99422e-09
0.0277714 -2.53961e-07 -7.01555e-09
0.0277713 -1.72876e-07 -4.93575e-09
0.0277713 -1.1812e-07 -3.48095e-09
0.0277712 -8.09598e-08 -2.46118e-09
0.0277712 -5.56346e-08 -1.74528e-09
0.0277712 -3.83116e-08 -1.24307e-09
0.0277711 -2.64175e-08 -8.92836e-10
0.0277711 -1.82079e-08 -6.52971e-10
0.0277711 -1.24857e-08 -4.97096e-10
0.0277711 -8.4108e-09 -4.07838e-10
0.0277711 -5.36858e-09 -3.76965e-10
0.0277711 -2.87989e-09 -4.46315e-10
0.0277711 -4.74439e-10 -5.8791e-10
0.0277711 2.57411e-09 -1.14023e-09
0.0277711 6.78664e-09 -3.96738e-09
0.0277711 9.19649e-09 -6.31346e-09
0.0148 -7.36494e-09 -4.72709e-08
0.0148 -0.000752533 -0.00279656
0.0164657 -0.000825818 -0.00557899
0.018537 0.00108643 -0.00480201
0.0204837 0.00409686 -0.00357962
0.0225744 0.00761252 -0.00288634
0.0261958 0.0127342 -0.00205688
0.0293297 0.0198132 -0.00112803
0.0238933 0.0117543 -0.000145222
0.0242738 1.39471e-14 0.000597416
0.0277804 -0.00693001 0.00150153
0.0323359 -0.0136922 0.00229256
0.0335865 -0.0119159 0.00202848
0.0323872 -0.00878234 0.00122375
0.0303431 -0.00597287 0.000222804
0.0285791 -0.00370239 -0.000324344
0.0274113 -0.00208533 -0.000368735
0.0267188 -0.00110589 -0.000232677
0.0263216 -0.000577255 -0.000115504
0.0260944 -0.000304791 -5.11583e-05
0.0259639 -0.000164435 -2.14927e-05
0.0258882 -9.0795e-05 -8.84715e-06
0.025844 -5.12585e-05 -3.63848e-06
0.0258178 -2.95395e-05 -1.5153e-06
0.0258021 -1.73484e-05 -6.45034e-07
0.0257925 -1.03676e-05 -2.81799e-07
0.0257866 -6.29631e-06 -1.25933e-07
0.0257828 -3.8812e-06 -5.68439e-08
0.0257805 -2.4257e-06 -2.52869e-08
0.025779 -1.53542e-06 -1.0595e-08
0.025778 -9.83225e-07 -3.76007e-09
0.0257773 -6.36243e-07 -6.81368e-10
0.0257769 -4.15565e-07 5.86371e-10
0.0257766 -2.73658e-07 9.94834e-10
0.0257764 -1.81494e-07 1.01646e-09
0.0257763 -1.21105e-07 8.84353e-10
0.0257762 -8.12308e-08 7.09868e-10
0.0257761 -5.47249e-08 5.42347e-10
0.0257761 -3.70034e-08 4.00172e-10
0.025776 -2.5094e-08 2.86912e-10
0.025776 -1.70497e-08 1.99546e-10
0.025776 -1.15814e-08 1.32478e-10
0.025776 -7.82461e-09 7.9195e-11
0.025776 -5.18758e-09 3.21708e-11
0.025776 -3.25067e-09 -1.51431e-11
0.025776 -1.69009e-09 -6.91834e-11
0.025776 -2.21016e-10 -1.71314e-10
0.025776 1.4613e-09 -3.0234e-10
0.025776 4.086e-09 -7.18587e-10
0.025776 8.27589e-09 -3.32772e-09
0.025776 1.07772e-08 -5.57922e-09
0.01 -1.4319e-08 -4.2212e-08
0.01 -0.000465813 -0.00232238
0.0116944 -0.000262258 -0.00436658
0.0142842 0.00110129 -0.00338736