# vtk DataFile Version 2.0
Tobias Weinzierl: CPU, Manycore and Cluster Computing
ASCII

DATASET STRUCTURED_POINTS
DIMENSIONS  51 11 6

ORIGIN 0 0 0 

SPACING 0.1 0.1 0.1 

POINT_DATA 3366

VECTORS velocity float
0 0 0
2.2945e-15 0 0
-2.62304e-09 0 0
-5.22553e-09 0 0
-5.70192e-09 0 0
-1.53648e-09 0 0
-1.03155e-10 0 0
-1.16399e-10 0 0
-1.06339e-09 0 0
-2.39782e-09 0 0
-3.266e-09 0 0
-3.5331e-09 0 0
-3.47777e-09 0 0
-3.35051e-09 0 0
-3.26403e-09 0 0
-3.23784e-09 0 0
-3.25142e-09 0 0
-3.28064e-09 0 0
-3.3105e-09 0 0
-3.33469e-09 0 0
-3.352e-09 0 0
-3.36337e-09 0 0
-3.37035e-09 0 0
-3.37436e-09 0 0
-3.37649e-09 0 0
-3.37749e-09 0 0
-3.37787e-09 0 0
-3.37791e-09 0 0
-3.37781e-09 0 0
-3.37764e-09 0 0
-3.37747e-09 0 0
-3.37731e-09 0 0
-3.37717e-09 0 0
-3.37706e-09 0 0
-3.37697e-09 0 0
-3.37691e-09 0 0
-3.37685e-09 0 0
-3.37681e-09 0 0
-3.37678e-09 0 0
-3.37676e-09 0 0
-3.37674e-09 0 0
-3.37673e-09 0 0
-3.37672e-09 0 0
-3.37671e-09 0 0
-3.37671e-09 0 0
-3.37671e-09 0 0
-3.3767e-09 0 0
-3.3767e-09 0 0
-3.3767e-09 0 0
-3.37671e-09 0 0
0.00274273 0 0
0 7.30454e-09 0
2.13412e-14 1.33793e-09 0
-4.8859e-09 2.39847e-09 0
-1.01256e-08 1.80613e-09 0
-1.03701e-08 1.09072e-09 0
-3.40682e-09 1.29067e-09 0
-1.19171e-09 2.072e-09 0
-8.91861e-10 2.07303e-09 0
-1.49425e-09 1.90826e-09 0
-3.34611e-09 1.63498e-09 0
-4.86109e-09 9.84977e-10 0
-5.48646e-09 3.90218e-10 0
-5.61285e-09 6.31626e-11 0
-5.63894e-09 -4.03362e-11 0
-5.7295e-09 -2.91958e-11 0
-5.89061e-09 9.87838e-12 0
-6.07209e-09 3.56506e-11 0
-6.23338e-09 4.25763e-11 0
-6.35799e-09 3.79474e-11 0
-6.44582e-09 2.90641e-11 0
-6.50378e-09 2.01441e-11 0
-6.54008e-09 1.2906e-11 0
-6.56179e-09 7.68152e-12 0
-6.5742e-09 4.20449e-12 0
-6.58095e-09 2.04038e-12 0
-6.58438e-09 7.78421e-13 0
-6.58595e-09 9.6342e-14 0
-6.58653e-09 -2.33997e-13 0
-6.5866e-09 -3.63109e-13 0
-6.58645e-09 -3.84884e-13 0
-6.58622e-09 -3.54982e-13 0
-6.58598e-09 -3.04683e-13 0
-6.58576e-09 -2.50459e-13 0
-6.58558e-09 -2.00175e-13 0
-6.58543e-09 -1.56935e-13 0
-6.58531e-09 -1.21371e-13 0
-6.58522e-09 -9.29457e-14 0
-6.58515e-09 -7.06595e-14 0
-6.5851e-09 -5.34191e-14 0
-6.58506e-09 -4.02066e-14 0
-6.58503e-09 -3.01458e-14 0
-6.58501e-09 -2.25167e-14 0
-6.58499e-09 -1.67435e-14 0
-6.58498e-09 -1.23736e-14 0
-6.58497e-09 -9.04779e-15 0
-6.58496e-09 -6.47546e-15 0
-6.58496e-09 -4.45423e-15 0
-6.58496e-09 -2.69876e-15 0
-6.58496e-09 6.35262e-16 0
-6.58497e-09 1.0068e-14 0
0.00731785 -3.77843e-09 0
0 6.17118e-10 0
5.12755e-14 1.58851e-09 0
-3.19095e-09 1.8548e-09 0
-7.81174e-09 -5.01927e-10 0
-6.14501e-09 -5.16539e-10 0
-1.43388e-09 1.73817e-09 0
-2.17744e-09 2.87454e-09 0
-2.55342e-09 1.39798e-09 0
-2.3209e-09 4.43685e-11 0
-2.8606e-09 2.38819e-10 0
-3.76519e-09 6.49634e-10 0
-4.13018e-09 1.08446e-09 0
-4.22459e-09 1.26957e-09 0
-4.27067e-09 1.14055e-09 0
-4.40507e-09 8.9269e-10 0
-4.6267e-09 6.58028e-10 0
-4.86563e-09 4.67036e-10 0
-5.06907e-09 3.20025e-10 0
-5.2194e-09 2.11833e-10 0
-5.3207e-09 1.35559e-10 0
-5.38459e-09 8.38894e-11 0
-5.42285e-09 5.01513e-11 0
-5.44476e-09 2.88695e-11 0
-5.45675e-09 1.58862e-11 0
-5.46299e-09 8.22973e-12 0
-5.46601e-09 3.87817e-12 0
-5.46731e-09 1.5116e-12 0
-5.46773e-09 2.9893e-13 0
-5.46773e-09 -2.6645e-13 0
-5.46757e-09 -4.84015e-13 0
-5.46735e-09 -5.25391e-13 0
-5.46713e-09 -4.85627e-13 0
-5.46695e-09 -4.15193e-13 0
-5.46679e-09 -3.39357e-13 0
-5.46667e-09 -2.69596e-13 0
-5.46657e-09 -2.10149e-13 0
-5.4665e-09 -1.61674e-13 0
-5.46645e-09 -1.23223e-13 0
-5.4664e-09 -9.32765e-14 0
-5.46637e-09 -7.02363e-14 0
-5.46635e-09 -5.26531e-14 0
-5.46633e-09 -3.92986e-14 0
-5.46632e-09 -2.91695e-14 0
-5.46631e-09 -2.14626e-14 0
-5.4663e-09 -1.55317e-14 0
-5.4663e-09 -1.07681e-14 0
-5.4663e-09 -6.33903e-15 0
-5.4663e-09 -1.17159e-15 0
-5.4663e-09 4.84599e-15 0
-5.4663e-09 1.13579e-14 0
0.00956692 -4.87112e-09 0
0 -9.06875e-09 0
6.45865e-14 6.32162e-10 0
-1.54141e-09 -7.95855e-10 0
-5.89501e-09 -4.54644e-09 0
-4.27195e-09 -4.87352e-09 0
4.36472e-10 -1.75512e-09 0
-1.0889e-09 -3.11364e-14 0
-1.77796e-09 -1.49466e-09 0
-4.37031e-09 -3.40613e-09 0
-4.87836e-09 -2.95175e-09 0
-5.28807e-09 -1.02629e-09 0
-5.34477e-09 8.35198e-10 0
-5.09121e-09 1.78774e-09 0
-4.63317e-09 1.76667e-09 0
-4.25632e-09 1.39638e-09 0
-4.08331e-09 1.01774e-09 0
-4.05622e-09 7.06145e-10 0
-4.08817e-09 4.68719e-10 0
-4.1283e-09 2.98556e-10 0
-4.15844e-09 1.83033e-10 0
-4.17653e-09 1.08141e-10 0
-4.18566e-09 6.14822e-11 0
-4.18935e-09 3.3438e-11 0
-4.1902e-09 1.71572e-11 0
-4.18975e-09 8.0452e-12 0
-4.18887e-09 3.16022e-12 0
-4.18793e-09 6.88521e-13 0
-4.18711e-09 -4.52432e-13 0
-4.18644e-09 -8.89695e-13 0
-4.18593e-09 -9.75807e-13 0
-4.18554e-09 -9.02531e-13 0
-4.18525e-09 -7.69967e-13 0
-4.18504e-09 -6.27386e-13 0
-4.18489e-09 -4.9675e-13 0
-4.18477e-09 -3.85938e-13 0
-4.18469e-09 -2.95992e-13 0
-4.18463e-09 -2.24962e-13 0
-4.18459e-09 -1.69875e-13 0
-4.18455e-09 -1.27666e-13 0
-4.18453e-09 -9.55854e-14 0
-4.18451e-09 -7.13269e-14 0
-4.1845e-09 -5.30266e-14 0
-4.18449e-09 -3.92061e-14 0
-4.18448e-09 -2.86873e-14 0
-4.18448e-09 -2.0512e-14 0
-4.18447e-09 -1.39386e-14 0
-4.18447e-09 -8.51632e-15 0
-4.18447e-09 -3.90607e-15 0
-4.18447e-09 5.91803e-16 0
-4.18447e-09 5.70146e-15 0
0.0100528 -3.57413e-09 0
0 -1.75549e-08 0
4.46511e-14 -6.28929e-10 0
-1.64773e-09 -2.63213e-09 0
-6.23719e-09 -4.43175e-09 0
-6.46969e-09 -3.52828e-09 0
-2.37019e-14 -1.09977e-09 0
-2.31913e-13 -2.58635e-13 0
2.1745e-13 -2.47465e-13 0
-2.48027e-09 -2.22594e-09 0
-5.61674e-09 -3.80218e-09 0
-5.96623e-09 -1.77804e-09 0
-6.22891e-09 5.23309e-10 0
-6.25363e-09 1.54993e-09 0
-5.71721e-09 1.46705e-09 0
-5.0085e-09 1.11818e-09 0
-4.47965e-09 8.17542e-10 0
-4.17531e-09 5.71839e-10 0
-4.01583e-09 3.75127e-10 0
-3.93024e-09 2.30287e-10 0
-3.88021e-09 1.32792e-10 0
-3.84853e-09 7.18874e-11 0
-3.82758e-09 3.61076e-11 0
-3.81358e-09 1.62145e-11 0
-3.80429e-09 5.77076e-12 0
-3.79821e-09 6.71508e-13 0
-3.79427e-09 -1.54486e-12 0
-3.79175e-09 -2.28637e-12 0
-3.79015e-09 -2.32595e-12 0
-3.78913e-09 -2.07054e-12 0
-3.78848e-09 -1.72384e-12 0
-3.78807e-09 -1.38055e-12 0
-3.7878e-09 -1.07904e-12 0
-3.78762e-09 -8.30013e-13 0
-3.78751e-09 -6.31624e-13 0
-3.78743e-09 -4.77122e-13 0
-3.78737e-09 -3.58581e-13 0
-3.78734e-09 -2.68534e-13 0
-3.78731e-09 -2.00593e-13 0
-3.78729e-09 -1.49558e-13 0
-3.78728e-09 -1.11327e-13 0
-3.78727e-09 -8.27242e-14 0
-3.78727e-09 -6.13148e-14 0
-3.78726e-09 -4.52512e-14 0
-3.78726e-09 -3.31497e-14 0
-3.78725e-09 -2.39883e-14 0
-3.78725e-09 -1.69908e-14 0
-3.78725e-09 -1.15114e-14 0
-3.78725e-09 -6.98158e-15 0
-3.78725e-09 -2.76529e-15 0
-3.78725e-09 1.65929e-15 0
0.010131 -1.64677e-09 0
0 -1.56957e-08 0
2.70107e-14 -1.08265e-09 0
-1.98797e-09 -2.61743e-09 0
-6.46395e-09 -3.58591e-09 0
-7.92522e-09 -3.83052e-09 0
-2.7131e-09 -1.7794e-09 0
-2.21713e-13 2.16477e-13 0
9.71241e-16 -9.71241e-16 0
1.99765e-13 -2.35134e-13 0
-2.6507e-09 -1.6235e-09 0
-4.59401e-09 -1.76976e-09 0
-5.46866e-09 8.78269e-10 0
-6.65947e-09 1.91975e-09 0
-6.71226e-09 1.39479e-09 0
-5.88862e-09 7.76212e-10 0
-5.0349e-09 4.39375e-10 0
-4.46904e-09 2.5325e-10 0
-4.14693e-09 1.33448e-10 0
-3.96797e-09 5.78343e-11 0
-3.86615e-09 1.55413e-11 0
-3.8067e-09 -4.62459e-12 0
-3.77154e-09 -1.2142e-11 0
-3.75072e-09 -1.33815e-11 0
-3.73844e-09 -1.19893e-11 0
-3.73127e-09 -9.80471e-12 0
-3.72711e-09 -7.64317e-12 0
-3.72471e-09 -5.80054e-12 0
-3.72335e-09 -4.33576e-12 0
-3.72258e-09 -3.21382e-12 0
-3.72215e-09 -2.37199e-12 0
-3.72191e-09 -1.74748e-12 0
-3.72178e-09 -1.28692e-12 0
-3.72171e-09 -9.48199e-13 0
-3.72167e-09 -6.99268e-13 0
-3.72165e-09 -5.16261e-13 0
-3.72164e-09 -3.81587e-13 0
-3.72164e-09 -2.8235e-13 0
-3.72164e-09 -2.09117e-13 0
-3.72163e-09 -1.54989e-13 0
-3.72163e-09 -1.14913e-13 0
-3.72163e-09 -8.51871e-14 0
-3.72163e-09 -6.30923e-14 0
-3.72163e-09 -4.66292e-14 0
-3.72163e-09 -3.43153e-14 0
-3.72163e-09 -2.50465e-14 0
-3.72163e-09 -1.80142e-14 0
-3.72163e-09 -1.26369e-14 0
-3.72163e-09 -8.44376e-15 0
-3.72163e-09 -4.87807e-15 0
-3.72163e-09 -1.40068e-15 0
0.0101399 3.28136e-10 0
0 -1.11299e-08 0
2.58884e-14 -1.17323e-09 0
-1.95472e-09 -2.69937e-09 0
-6.3164e-09 -2.67732e-09 0
-8.26259e-09 -2.03534e-09 0
-6.02363e-09 -1.5835e-09 0
-1.89986e-09 -6.9934e-10 0
-2.20645e-13 2.12308e-13 0
-1.25451e-14 1.25451e-14 0
1.76215e-13 -2.23314e-13 0
-1.74575e-09 4.20832e-10 0
-3.26915e-09 2.44627e-09 0
-6.28796e-09 3.34051e-09 0
-7.65639e-09 1.68013e-09 0
-6.83519e-09 3.50212e-10 0
-5.54301e-09 -1.10783e-10 0
-4.66981e-09 -1.9445e-10 0
-4.21399e-09 -1.8261e-10 0
-3.99391e-09 -1.49975e-10 0
-3.88801e-09 -1.142e-10 0
-3.83626e-09 -8.22595e-11 0
-3.81069e-09 -5.70174e-11 0
-3.79803e-09 -3.86052e-11 0
-3.79182e-09 -2.58401e-11 0
-3.78884e-09 -1.72513e-11 0
-3.78747e-09 -1.15601e-11 0
-3.7869e-09 -7.80745e-12 0
-3.78671e-09 -5.3273e-12 0
-3.7867e-09 -3.67638e-12 0
-3.78676e-09 -2.56617e-12 0
-3.78684e-09 -1.8107e-12 0
-3.78693e-09 -1.29025e-12 0
-3.787e-09 -9.27357e-13 0
-3.78706e-09 -6.71472e-13 0
-3.7871e-09 -4.8921e-13 0
-3.78714e-09 -3.5824e-13 0
-3.78716e-09 -2.63413e-13 0
-3.78719e-09 -1.94316e-13 0
-3.7872e-09 -1.43698e-13 0
-3.78721e-09 -1.06448e-13 0
-3.78722e-09 -7.89293e-14 0
-3.78723e-09 -5.85255e-14 0
-3.78723e-09 -4.33401e-14 0
-3.78724e-09 -3.1993e-14 0
-3.78724e-09 -2.34777e-14 0
-3.78724e-09 -1.70731e-14 0
-3.78724e-09 -1.23047e-14 0
-3.78724e-09 -8.87123e-15 0
-3.78724e-09 -6.42358e-15 0
-3.78724e-09 -4.36329e-15 0
0.010131 2.25284e-09 0
0 -7.97152e-09 0
2.3452e-14 -1.23161e-09 0
-2.15432e-09 -2.56275e-09 0
-6.22855e-09 -2.14697e-09 0
-7.95516e-09 -1.05965e-09 0
-6.50529e-09 -6.39756e-10 0
-4.3322e-09 -1.51625e-09 0
-2.39433e-09 -1.12032e-09 0
-2.31875e-13 1.92741e-13 0
1.58286e-13 1.91341e-13 0
-1.33986e-14 1.11797e-09 0
-9.00647e-10 4.55484e-09 0
-3.72372e-09 5.44648e-09 0
-6.45325e-09 2.19114e-09 0
-6.69133e-09 -2.02027e-10 0
-5.68035e-09 -7.47359e-10 0
-4.82728e-09 -6.21681e-10 0
-4.39452e-09 -4.29838e-10 0
-4.2239e-09 -2.83155e-10 0
-4.16999e-09 -1.81395e-10 0
-4.15944e-09 -1.13802e-10 0
-4.16229e-09 -7.05663e-11 0
-4.16779e-09 -4.36666e-11 0
-4.17269e-09 -2.71814e-11 0
-4.17634e-09 -1.71189e-11 0
-4.17889e-09 -1.09493e-11 0
-4.18063e-09 -7.12707e-12 0
-4.1818e-09 -4.72476e-12 0
-4.1826e-09 -3.18915e-12 0
-4.18314e-09 -2.18951e-12 0
-4.18352e-09 -1.52658e-12 0
-4.18379e-09 -1.07893e-12 0
-4.18397e-09 -7.71471e-13 0
-4.18411e-09 -5.57028e-13 0
-4.1842e-09 -4.05417e-13 0
-4.18427e-09 -2.96972e-13 0
-4.18432e-09 -2.18641e-13 0
-4.18436e-09 -1.61602e-13 0
-4.18438e-09 -1.19792e-13 0
-4.1844e-09 -8.89765e-14 0
-4.18442e-09 -6.61625e-14 0
-4.18443e-09 -4.92066e-14 0
-4.18444e-09 -3.65614e-14 0
-4.18444e-09 -2.71047e-14 0
-4.18445e-09 -2.00236e-14 0
-4.18445e-09 -1.47386e-14 0
-4.18445e-09 -1.09004e-14 0
-4.18446e-09 -8.46618e-15 0
-4.18446e-09 -7.6055e-15 0
-4.18446e-09 -7.90625e-15 0
0.0100528 4.00194e-09 0
0 -7.20906e-09 0
2.1228e-14 -1.12787e-09 0
-2.73464e-09 -2.29109e-09 0
-6.56447e-09 -1.77127e-09 0
-8.10237e-09 -7.43901e-10 0
-7.07657e-09 -1.84807e-10 0
-5.19784e-09 -7.72164e-10 0
-4.4793e-09 -2.65491e-09 0
-2.8336e-09 -1.9317e-09 0
-4.51008e-09 -5.99201e-18 0
-6.68021e-09 1.37105e-09 0
-4.8678e-09 4.57126e-09 0
-2.26475e-09 5.45992e-09 0
-3.61234e-09 2.629e-09 0
-5.40124e-09 -2.63333e-11 0
-5.68732e-09 -8.02277e-10 0
-5.46319e-09 -6.67824e-10 0
-5.33537e-09 -4.09723e-10 0
-5.32413e-09 -2.31102e-10 0
-5.3554e-09 -1.29011e-10 0
-5.39014e-09 -7.33071e-11 0
-5.41685e-09 -4.28577e-11 0
-5.43491e-09 -2.58519e-11 0
-5.44645e-09 -1.60695e-11 0
-5.45366e-09 -1.02645e-11 0
-5.45814e-09 -6.71733e-12 0
-5.46094e-09 -4.49165e-12 0
-5.46271e-09 -3.06148e-12 0
-5.46385e-09 -2.12232e-12 0
-5.4646e-09 -1.4932e-12 0
-5.4651e-09 -1.06399e-12 0
-5.46544e-09 -7.6632e-13 0
-5.46567e-09 -5.56832e-13 0
-5.46584e-09 -4.07528e-13 0
-5.46596e-09 -2.99969e-13 0
-5.46604e-09 -2.21789e-13 0
-5.4661e-09 -1.64548e-13 0
-5.46615e-09 -1.2239e-13 0
-5.46618e-09 -9.11945e-14 0
-5.46621e-09 -6.80237e-14 0
-5.46623e-09 -5.07609e-14 0
-5.46624e-09 -3.78673e-14 0
-5.46625e-09 -2.82194e-14 0
-5.46626e-09 -2.09962e-14 0
-5.46626e-09 -1.56049e-14 0
-5.46627e-09 -1.16271e-14 0
-5.46627e-09 -8.8125e-15 0
-5.46627e-09 -7.32865e-15 0
-5.46627e-09 -8.24802e-15 0
-5.46628e-09 -1.22449e-14 0
0.00956691 4.93535e-09 0
0 -7.73227e-09 0
1.7624e-14 -6.72388e-10 0
-3.23181e-09 -1.35971e-09 0
-6.60633e-09 -1.01509e-09 0
-7.95152e-09 -5.10462e-10 0
-7.79367e-09 -6.41651e-10 0
-6.71838e-09 -1.32545e-09 0
-6.04598e-09 -2.04095e-09 0
-6.80493e-09 3.88392e-11 0
-6.98541e-09 3.70183e-09 0
-7.46675e-09 3.26232e-09 0
-5.46346e-09 -4.25126e-10 0
-3.36887e-09 -2.47477e-09 0
-4.65561e-09 -1.73259e-09 0
-6.55817e-09 -3.04928e-10 0
-7.00641e-09 4.29102e-10 0
-6.80053e-09 4.68169e-10 0
-6.61312e-09 2.87089e-10 0
-6.53827e-09 1.36427e-10 0
-6.52536e-09 5.40403e-11 0
-6.53422e-09 1.68955e-11 0
-6.54709e-09 2.32721e-12 0
-6.55817e-09 -2.47907e-12 0
-6.56638e-09 -3.4958e-12 0
-6.57211e-09 -3.22284e-12 0
-6.57603e-09 -2.62167e-12 0
-6.57869e-09 -2.02595e-12 0
-6.58052e-09 -1.5298e-12 0
-6.58178e-09 -1.14307e-12 0
-6.58266e-09 -8.50294e-13 0
-6.58328e-09 -6.31533e-13 0
-6.58373e-09 -4.68985e-13 0
-6.58405e-09 -3.48436e-13 0
-6.58428e-09 -2.59048e-13 0
-6.58445e-09 -1.92723e-13 0
-6.58458e-09 -1.43462e-13 0
-6.58467e-09 -1.06839e-13 0
-6.58474e-09 -7.95855e-14 0
-6.58479e-09 -5.92866e-14 0
-6.58483e-09 -4.41564e-14 0
-6.58486e-09 -3.28713e-14 0
-6.58488e-09 -2.44494e-14 0
-6.5849e-09 -1.81632e-14 0
-6.58491e-09 -1.34761e-14 0
-6.58492e-09 -1.0001e-14 0
-6.58492e-09 -7.47271e-15 0
-6.58493e-09 -5.73534e-15 0
-6.58493e-09 -4.95008e-15 0
-6.58494e-09 -6.5213e-15 0
-6.58494e-09 -1.25381e-14 0
0.00731785 3.4667e-09 0
0 0 0
8.6767e-15 0 0
-1.65035e-09 0 0
-3.1641e-09 0 0
-3.79237e-09 0 0
-3.91184e-09 0 0
-3.95288e-09 0 0
-3.96101e-09 0 0
-3.97136e-09 0 0
-2.47535e-09 0 0
-7.86551e-10 0 0
-6.34865e-10 0 0
-1.94743e-09 0 0
-3.48612e-09 0 0
-4.20991e-09 0 0
-4.12106e-09 0 0
-3.7998e-09 0 0
-3.56121e-09 0 0
-3.43826e-09 0 0
-3.38675e-09 0 0
-3.36916e-09 0 0
-3.3653e-09 0 0
-3.36618e-09 0 0
-3.36823e-09 0 0
-3.37025e-09 0 0
-3.3719e-09 0 0
-3.37316e-09 0 0
-3.37409e-09 0 0
-3.37478e-09 0 0
-3.37528e-09 0 0
-3.37565e-09 0 0
-3.37593e-09 0 0
-3.37612e-09 0 0
-3.37627e-09 0 0
-3.37638e-09 0 0
-3.37646e-09 0 0
-3.37652e-09 0 0
-3.37657e-09 0 0
-3.3766e-09 0 0
-3.37662e-09 0 0
-3.37664e-09 0 0
-3.37665e-09 0 0
-3.37666e-09 0 0
-3.37667e-09 0 0
-3.37668e-09 0 0
-3.37668e-09 0 0
-3.37668e-09 0 0
-3.37669e-09 0 0
-3.37669e-09 0 0
-3.3767e-09 0 0
0.00274273 0 0
0 0 8.41376e-09
3.36487e-14 0 1.28511e-09
-5.05002e-09 0 2.82706e-09
-1.15303e-08 0 1.27275e-09
-1.57196e-08 0 -4.77977e-09
-3.19018e-09 0 -6.88943e-09
1.78647e-09 0 -3.49208e-09
2.94258e-09 0 -1.11279e-09
1.7776e-09 0 3.73169e-10
-6.00381e-10 0 5.67627e-10
-2.66906e-09 0 1.50293e-10
-3.99075e-09 0 -1.78453e-10
-4.76783e-09 0 -2.45752e-10
-5.24373e-09 0 -1.73401e-10
-5.57492e-09 0 -8.3475e-11
-5.84507e-09 0 -2.24872e-11
-6.07363e-09 0 7.15327e-12
-6.25662e-09 0 1.65019e-11
-6.39272e-09 0 1.61065e-11
-6.48759e-09 0 1.24396e-11
-6.55029e-09 0 8.53764e-12
-6.58991e-09 0 5.44639e-12
-6.61396e-09 0 3.30286e-12
-6.628e-09 0 1.92845e-12
-6.63585e-09 0 1.09233e-12
-6.64001e-09 0 6.0296e-13
-6.64206e-09 0 3.25178e-13
-6.64293e-09 0 1.71557e-13
-6.6432e-09 0 8.85983e-14
-6.64317e-09 0 4.48249e-14
-6.64301e-09 0 2.22745e-14
-6.64281e-09 0 1.09536e-14
-6.64262e-09 0 5.42947e-15
-6.64246e-09 0 2.8162e-15
-6.64232e-09 0 1.61629e-15
-6.64221e-09 0 1.07451e-15
-6.64212e-09 0 8.22911e-16
-6.64205e-09 0 6.89946e-16
-6.642e-09 0 6.0149e-16
-6.64196e-09 0 5.28804e-16
-6.64194e-09 0 4.6391e-16
-6.64191e-09 0 4.08031e-16
-6.6419e-09 0 3.66287e-16
-6.64189e-09 0 3.46674e-16
-6.64188e-09 0 3.66139e-16
-6.64187e-09 0 4.41671e-16
-6.64187e-09 0 5.15262e-16
-6.64186e-09 0 5.5973e-16
-6.64187e-09 0 2.09067e-15
-6.64187e-09 0 9.67646e-15
0.00730969 0 -2.97501e-09
0.0036 1.07772e-09 2.63998e-09
0.00359999 -0.00161063 -0.00029795
0.0074978 -0.00497486 -0.00125907
0.0156208 -0.00843243 -0.00297686
0.027346 -0.0132124 -0.00485073
0.0465135 -0.0093143 -0.00357064
0.0488455 -0.000318067 -0.000656677
0.0482039 0.00335287 0.000561956
0.0428911 0.00514724 0.000758539
0.0372771 0.00487406 0.000249869
0.0323113 0.00392008 -0.000203246
0.0282585 0.00288695 -0.000362326
0.025247 0.00199011 -0.000313461
0.0231933 0.00130864 -0.000199636
0.0218662 0.000838645 -0.000103661
0.0210345 0.000529239 -4.53769e-05
0.0205252 0.000328791 -1.64042e-05
0.0202202 0.000200637 -4.1581e-06
0.0200415 0.000120156 1.27415e-07
0.0199389 7.06312e-05 1.15069e-06
0.0198815 4.07663e-05 1.06331e-06
0.0198501 2.31001e-05 7.24176e-07
0.0198334 1.28395e-05 4.18901e-07
0.0198249 6.98644e-06 2.09288e-07
0.0198208 3.70838e-06 8.42137e-08
0.019819 1.90844e-06 1.74459e-08
0.0198184 9.42087e-07 -1.38704e-08
0.0198182 4.37227e-07 -2.55333e-08
0.0198184 1.8266e-07 -2.72662e-08
0.0198185 6.06043e-08 -2.45893e-08
0.0198187 6.59947e-09 -2.04151e-08
0.0198189 -1.38774e-08 -1.61517e-08
0.019819 -1.88359e-08 -1.23908e-08
0.0198191 -1.7352e-08 -9.30991e-09
0.0198192 -1.37787e-08 -6.89409e-09
0.0198192 -1.00437e-08 -5.05229e-09
0.0198193 -6.8784e-09 -3.67463e-09
0.0198193 -4.45841e-09 -2.65787e-09
0.0198193 -2.72732e-09 -1.91483e-09
0.0198193 -1.5524e-09 -1.37606e-09
0.0198193 -7.94138e-10 -9.88423e-10
0.0198194 -3.33253e-10 -7.12644e-10
0.0198194 -7.77283e-11 -5.20916e-10
0.0198194 3.87455e-11 -3.94607e-10
0.0198194 6.07541e-11 -3.22183e-10
0.0198194 4.91268e-12 -3.04267e-10
0.0198194 -1.33722e-10 -3.26356e-10
0.0198194 -3.28964e-10 -2.3201e-10
0.0198194 -1.50084e-09 -6.27062e-10
0.0198194 -7.08291e-09 -4.71577e-09
0.0198194 -1.15973e-08 -8.29888e-09
0.01 9.49504e-10 -1.45036e-08
0.01 -0.00356428 -0.000769455
0.0151098 -0.0111705 -0.00213366
0.0241355 -0.018597 -0.00379114
0.0368105 -0.0285936 -0.00442558
0.0559497 -0.0194 -0.00122104
0.0545157 -0.00108531 0.00179468
0.0549305 0.00592097 0.00219278
0.0493118 0.0108086 0.00187236
0.0434231 0.0106545 0.000770476
0.0383825 0.00922904 -0.000166557
0.0341846 0.0072856 -0.000523878
0.0311031 0.00522846 -0.00049016
0.0291044 0.00347642 -0.000323134
0.0278784 0.00220502 -0.000170919
0.0271472 0.00135918 -7.57901e-05
0.0267222 0.000819483 -2.76883e-05
0.0264821 0.000484103 -6.98201e-06
0.0263507 0.000280277 4.71431e-07
0.0262814 0.000158944 2.36465e-06
0.0262464 8.8142e-05 2.28125e-06
0.0262299 4.76376e-05 1.69374e-06
0.0262229 2.49387e-05 1.12017e-06
0.0262206 1.2504e-05 6.92878e-07
0.0262204 5.87289e-06 4.09723e-07
0.0262211 2.45635e-06 2.34202e-07
0.026222 7.79354e-07 1.30106e-07
0.0262229 1.73452e-08 7.03566e-08
0.0262237 -2.812e-07 3.69652e-08
0.0262243 -3.57634e-07 1.87523e-08
0.0262247 -3.37103e-07 9.06139e-09
0.0262251 -2.81834e-07 4.04983e-09
0.0262253 -2.20843e-07 1.55224e-09
0.0262255 -1.66177e-07 3.73463e-10
0.0262256 -1.21618e-07 -1.3341e-10
0.0262257 -8.72181e-08 -3.11457e-10
0.0262258 -6.15789e-08 -3.38348e-10
0.0262258 -4.29354e-08 -3.03321e-10
0.0262259 -2.96276e-08 -2.49317e-10
0.0262259 -2.02688e-08 -1.95723e-10
0.0262259 -1.3772e-08 -1.50503e-10
0.0262259 -9.31954e-09 -1.16609e-10
0.0262259 -6.31575e-09 -9.54635e-11
0.0262259 -4.34135e-09 -8.86376e-11
0.0262259 -3.11465e-09 -9.50234e-11
0.0262259 -2.47238e-09 -1.10867e-10
0.0262259 -2.54282e-09 -1.37787e-10
0.0262259 -4.05275e-09 -6.39397e-11
0.0262259 -7.45689e-09 -7.53424e-10
0.0262259 -1.24504e-08 -6.33538e-09
0.0262259 -1.52912e-08 -1.1137e-08
0.0148 -1.42814e-08 -1.90861e-08
0.0148 -0.00561213 -0.00127717
0.0195921 -0.0165496 -0.00349747
0.0255607 -0.0268488 -0.00539589
0.0298753 -0.0409993 -0.0050074
0.0283905 -0.0250882 -0.000782456
0.026058 -1.65558e-07 0.00191604
0.0263335 0.00774856 0.0020426
0.0310994 0.0161713 0.00194166
0.031163 0.0157953 0.00101235
0.0297319 0.0134331 0.000148273
0.0284552 0.0104827 -0.000286259
0.0276747 0.00731126 -0.000341848
0.0274047 0.0046783 -0.000240426
0.0273575 0.00286782 -0.000121638
0.0273828 0.00171496 -4.30855e-05
0.0274284 0.00100301 -5.04459e-06
0.027476 0.000573108 8.42395e-06
0.027518 0.00031944 1.05508e-05
0.0275517 0.000173242 8.70036e-06
0.0275772 9.09515e-05 6.1289e-06
0.0275954 4.57611e-05 3.96577e-06
0.0276082 2.16207e-05 2.43193e-06
0.0276169 9.15629e-06 1.43655e-06
0.0276228 3.01402e-06 8.24957e-07
0.0276267 1.99957e-07 4.62951e-07
0.0276294 -9.24435e-07 2.54506e-07
0.0276311 -1.23472e-06 1.37088e-07
0.0276323 -1.18527e-06 7.21902e-08
0.0276331 -1.00275e-06 3.6963e-08
0.0276336 -7.93673e-07 1.82038e-08
0.0276339 -6.03067e-07 8.43685e-09
0.0276342 -4.45867e-07 3.49974e-09
0.0276343 -3.23274e-07 1.10888e-09
0.0276344 -2.30993e-07 2.96072e-11
0.0276345 -1.63193e-07 -3.95198e-10
0.0276346 -1.14246e-07 -5.08805e-10
0.0276346 -7.93804e-08 -4.86214e-10
0.0276346 -5.48082e-08 -4.13627e-10
0.0276346 -3.76471e-08 -3.31357e-10
0.0276346 -2.5763e-08 -2.56727e-10
0.0276347 -1.76094e-08 -1.96123e-10
0.0276347 -1.20877e-08 -1.50869e-10
0.0276347 -8.43988e-09 -1.19631e-10
0.0276347 -6.19892e-09 -1.01612e-10
0.0276347 -5.1761e-09 -1.09111e-10
0.0276347 -5.26924e-09 -1.80636e-10
0.0276347 -6.24326e-09 -2.79647e-10
0.0276347 -8.01602e-09 -1.31435e-09
0.0276347 -1.04194e-08 -6.95089e-09
0.0276347 -1.17175e-08 -1.15934e-08
0.018 -3.1206e-08 -2.3655e-08
0.018 -0.00657365 -0.00208438
0.0199729 -0.0174108 -0.00568317
0.0198209 -0.0224946 -0.00710472
0.0159562 -0.024236 -0.00638647
-1.73369e-08 -0.0125786 -0.00288056
1.60372e-06 5.39238e-07 9.22519e-09
-6.22945e-07 6.57426e-07 0.000386805
0.00758508 0.00535847 0.000775819
0.0158993 0.011862 0.00063908
0.0192213 0.012057 0.000287041
0.020809 0.00954944 -6.33044e-05
0.0225385 0.00645607 -0.000210686
0.0242105 0.00390524 -0.000173817
0.0255039 0.00227975 -8.28144e-05
0.0263867 0.00130505 -1.53777e-05
0.026955 0.000726454 1.55008e-05
0.0273112 0.000389314 2.26393e-05
0.027531 0.000199 1.95761e-05
0.0276649 9.55373e-05 1.4023e-05
0.0277456 4.15795e-05 9.08693e-06
0.0277937 1.48015e-05 5.53043e-06
0.0278222 2.40203e-06 3.22281e-06
0.027839 -2.69393e-06 1.81716e-06
0.0278488 -4.26793e-06 9.96519e-07
0.0278546 -4.27325e-06 5.32164e-07
0.027858 -3.67877e-06 2.75986e-07
0.02786 -2.93855e-06 1.37886e-07
0.0278611 -2.24606e-06 6.52121e-08
0.0278618 -1.66829e-06 2.8058e-08
0.0278623 -1.21478e-06 9.79853e-09
0.0278625 -8.71849e-07 1.36073e-09
0.0278627 -6.18893e-07 -2.12124e-09
0.0278627 -4.35553e-07 -3.20796e-09
0.0278628 -3.0438e-07 -3.21609e-09
0.0278628 -2.1146e-07 -2.80157e-09
0.0278629 -1.46158e-07 -2.27584e-09
0.0278629 -1.00569e-07 -1.77503e-09
0.0278629 -6.89252e-08 -1.34907e-09
0.0278629 -4.70812e-08 -1.00787e-09
0.0278629 -3.20897e-08 -7.44635e-10
0.0278629 -2.18775e-08 -5.47318e-10
0.0278629 -1.50073e-08 -4.04571e-10
0.0278629 -1.05024e-08 -3.09033e-10
0.0278629 -7.69337e-09 -2.61727e-10
0.0278629 -6.08073e-09 -2.92323e-10
0.0278629 -5.2885e-09 -4.48227e-10
0.0278629 -5.02584e-09 -6.29828e-10
0.0278629 -5.19249e-09 -1.71652e-09
0.0278629 -5.67594e-09 -7.10648e-09
0.0278629 -5.95971e-09 -1.14768e-08
0.0196 -3.87345e-08 -3.94373e-08
0.0196 -0.00513276 -0.00286231
0.0190721 -0.0116538 -0.00702611
0.0163438 -0.0139147 -0.00748888
0.0118033 -0.0122912 -0.00624353
0.00255337 -0.00489757 -0.00365433
1.21974e-06 -1.12511e-06 -0.000735843
5.02167e-07 -5.02167e-07 -7.68041e-10
-6.04667e-07 6.41223e-07 9.73062e-05
0.00533142 0.00400997 0.000206348
0.0118138 0.00850107 0.000164999
0.0146096 0.00724341 -4.7963e-05
0.0181052 0.00402562 -0.000246897
0.0214626 0.0018005 -0.000241702
0.0239875 0.00073296 -0.000138056
0.0256165 0.000272223 -4.22798e-05
0.0265907 7.18215e-05 7.20466e-06
0.0271555 -1.31358e-05 2.14072e-05
0.0274785 -4.31385e-05 1.97778e-05
0.0276614 -4.76374e-05 1.40534e-05
0.0277639 -4.18631e-05 8.82537e-06
0.0278209 -3.3254e-05 5.15261e-06
0.0278523 -2.50085e-05 2.86139e-06
0.0278695 -1.82079e-05 1.52646e-06
0.0278788 -1.29935e-05 7.83364e-07
0.0278838 -9.15495e-06 3.83999e-07
0.0278864 -6.39715e-06 1.76133e-07
0.0278878 -4.44546e-06 7.16978e-08
0.0278885 -3.07737e-06 2.16409e-08
0.0278888 -2.1243e-06 -6.17942e-10
0.0278889 -1.4631e-06 -9.1543e-09
0.027889 -1.00573e-06 -1.12542e-08
0.027889 -6.90053e-07 -1.05895e-08
0.027889 -4.7258e-07 -8.94414e-09
0.027889 -3.23013e-07 -7.13595e-09
0.027889 -2.20321e-07 -5.50208e-09
0.027889 -1.49939e-07 -4.14976e-09
0.027889 -1.01798e-07 -3.08353e-09
0.027889 -6.89455e-08 -2.26775e-09
0.027889 -4.65907e-08 -1.65622e-09
0.027889 -3.14378e-08 -1.2052e-09
0.027889 -2.12246e-08 -8.78731e-10
0.0278889 -1.43982e-08 -6.50907e-10
0.0278889 -9.88504e-09 -5.07266e-10
0.0278889 -6.93526e-09 -4.4328e-10
0.0278889 -5.01298e-09 -4.73011e-10
0.0278889 -3.70606e-09 -6.28257e-10
0.0278889 -2.64645e-09 -7.96596e-10
0.0278889 -1.5888e-09 -1.85468e-09
0.0278889 -4.35607e-10 -7.10035e-09
0.0278889 1.73606e-10 -1.13429e-08
0.0196 -1.96615e-08 -5.31707e-08
0.0196 -0.00303724 -0.0031801
0.0190545 -0.00633942 -0.00707798
0.0178642 -0.00587277 -0.00708349
0.0144858 -0.00227761 -0.0055535
0.0107049 0.00373022 -0.00377699
0.00668558 0.00343726 -0.00172848
1.22038e-06 -1.02984e-06 -0.000319438
4.25172e-07 -4.25172e-07 -2.01152e-09
-5.82717e-07 6.26616e-07 2.58112e-05
0.0040022 0.00274973 0.000322505
0.00866613 0.00331332 0.000337122
0.0145362 -0.00025559 -0.000124261
0.019823 -0.00184598 -0.000351309
0.0235104 -0.00179872 -0.000293166
0.0256298 -0.00127208 -0.000143885
0.0267338 -0.000812616 -4.29933e-05
0.0272942 -0.000506825 -2.18182e-06
0.0275787 -0.000315197 7.69939e-06
0.0277232 -0.000195948 7.21772e-06
0.0277962 -0.000121807 4.75842e-06
0.0278326 -7.58303e-05 2.71164e-06
0.0278504 -4.73812e-05 1.40936e-06
0.0278587 -2.97741e-05 6.73938e-07
0.0278625 -1.88439e-05 2.88775e-07
0.0278639 -1.20212e-05 9.97097e-08
0.0278643 -7.7312e-06 1.37617e-08
0.0278643 -5.01121e-06 -2.07018e-08
0.0278641 -3.2715e-06 -3.08808e-08
0.0278638 -2.14919e-06 -3.05104e-08
0.0278636 -1.41931e-06 -2.62299e-08
0.0278634 -9.41223e-07 -2.10683e-08
0.0278633 -6.26107e-07 -1.62792e-08
0.0278632 -4.17345e-07 -1.228e-08
0.0278631 -2.78488e-07 -9.11902e-09
0.0278631 -1.85859e-07 -6.70022e-09
0.027863 -1.23953e-07 -4.88702e-09
0.027863 -8.25472e-08 -3.54636e-09
0.027863 -5.4859e-08 -2.56474e-09
0.0278629 -3.63688e-08 -1.85174e-09
0.0278629 -2.40521e-08 -1.33851e-09
0.0278629 -1.58769e-08 -9.74937e-10
0.0278629 -1.04709e-08 -7.26484e-10
0.0278629 -6.89858e-09 -5.71228e-10
0.0278629 -4.50792e-09 -4.98197e-10
0.0278629 -2.82323e-09 -5.19499e-10
0.0278629 -1.45553e-09 -6.68917e-10
0.0278629 1.45048e-11 -8.20923e-10
0.0278629 2.03979e-09 -1.82233e-09
0.0278629 4.76296e-09 -7.01575e-09
0.0278629 6.28022e-09 -1.12483e-08
0.018 -1.21072e-08 -5.22295e-08
0.018 -0.00135747 -0.00313046
0.0185643 -0.00216842 -0.006719
0.0191557 -0.000576986 -0.00632027
0.0188479 0.00225219 -0.00466325
0.0188266 0.00774927 -0.00315809
0.0192397 0.0127985 -0.00173785
0.0118628 0.00706744 -0.000779083
1.24895e-06 -8.10727e-07 -0.000267739
-4.7233e-07 -9.28349e-07 7.73115e-09
1.26339e-07 -0.000281507 0.00090138
0.0094793 -0.00337381 0.0013272
0.0172087 -0.00699443 0.000410517
0.0223047 -0.00695705 -0.000211823
0.0252787 -0.00490972 -0.000354277
0.0267408 -0.00287024 -0.000235699
0.0273544 -0.00156581 -0.000108108
0.0275826 -0.000854057 -4.03666e-05
0.0276562 -0.000474625 -1.33689e-05
0.0276728 -0.00026809 -4.13321e-06
0.0276704 -0.000153284 -1.26809e-06
0.0276632 -8.85813e-05 -4.48046e-07
0.027656 -5.1745e-05 -2.26801e-07
0.0276501 -3.05713e-05 -1.61484e-07
0.0276456 -1.8275e-05 -1.29999e-07
0.0276424 -1.10543e-05 -1.0457e-07
0.0276401 -6.76422e-06 -8.15772e-08
0.0276384 -4.18455e-06 -6.17832e-08
0.0276373 -2.61473e-06 -4.5759e-08
0.0276365 -1.64834e-06 -3.33762e-08
0.0276359 -1.04695e-06 -2.41058e-08
0.0276356 -6.68977e-07 -1.73074e-08
0.0276353 -4.29366e-07 -1.23861e-08
0.0276351 -2.76356e-07 -8.85096e-09
0.027635 -1.78079e-07 -6.32236e-09
0.0276349 -1.14689e-07 -4.5174e-09
0.0276348 -7.36941e-08 -3.22991e-09
0.0276348 -4.71572e-08 -2.31166e-09
0.0276347 -2.99923e-08 -1.65694e-09
0.0276347 -1.89176e-08 -1.19095e-09
0.0276347 -1.18014e-08 -8.61286e-10
0.0276347 -7.25056e-09 -6.31985e-10
0.0276347 -4.34522e-09 -4.79691e-10
0.0276347 -2.46693e-09 -3.90979e-10
0.0276347 -1.18157e-09 -3.60448e-10
0.0276347 -1.57597e-10 -4.03626e-10
0.0276347 9.00798e-10 -5.60072e-10
0.0276347 2.40433e-09 -6.94177e-10
0.0276347 5.118e-09 -1.58495e-09
0.0276347 9.4256e-09 -6.75269e-09
0.0276347 1.19484e-08 -1.10515e-08
0.0148 -7.65095e-09 -4.51648e-08
0.0148 -0.000449887 -0.0029426
0.016701 -0.000117747 -0.00604535
0.0192116 0.00175276 -0.00530792
0.0214977 0.00440194 -0.00369917
0.0235965 0.0075667 -0.00261525
0.0269736 0.0126504 -0.00172382
0.0300113 0.0200932 -0.000935184
0.0243248 0.0120281 -0.000133728
0.0249027 1.47406e-14 0.000500141
0.0290629 -0.00711724 0.00164635
0.0340514 -0.0144075 0.00249955
0.0343757 -0.0131353 0.00164624
0.0320731 -0.00971893 0.000403623
0.0297013 -0.00601636 -0.000316252
0.0281537 -0.00321135 -0.000380515
0.0272893 -0.00159187 -0.000224847
0.0268216 -0.0007851 -0.000102471
0.0265659 -0.000397637 -4.17235e-05
0.0264233 -0.000207802 -1.61867e-05
0.0263425 -0.000111563 -6.16286e-06
0.0262958 -6.12102e-05 -2.3369e-06
0.0262685 -3.41773e-05 -8.8834e-07
0.0262522 -1.93609e-05 -3.37695e-07
0.0262424 -1.11021e-05 -1.259e-07
0.0262364 -6.43292e-06 -4.333e-08
0.0262326 -3.76074e-06 -1.10316e-08
0.0262303 -2.21478e-06 1.21431e-09
0.0262288 -1.31169e-06 5.29406e-09
0.0262278 -7.79615e-07 6.04968e-09
0.0262272 -4.63849e-07 5.52257e-09
0.0262267 -2.7538e-07 4.5906e-09
0.0262265 -1.6246e-07 3.62592e-09
0.0262263 -9.47064e-08 2.77336e-09
0.0262262 -5.41138e-08 2.07484e-09
0.0262261 -2.99224e-08 1.52729e-09
0.026226 -1.56534e-08 1.11024e-09
0.026226 -7.38208e-09 7.98775e-10
0.026226 -2.71987e-09 5.69193e-10
0.026226 -2.08511e-10 4.01039e-10
0.0262259 1.04444e-09 2.77375e-10
0.0262259 1.58744e-09 1.84142e-10
0.0262259 1.76206e-09 1.09034e-10
0.0262259 1.78993e-09 4.03869e-11
0.0262259 1.83208e-09 -3.33551e-11
0.0262259 2.03722e-09 -1.35161e-10
0.0262259 2.57689e-09 -3.05652e-10
0.0262259 3.7605e-09 -4.28548e-10
0.0262259 6.62225e-09 -1.18374e-09
0.0262259 1.20177e-08 -6.16082e-09
0.0262259 1.5358e-08 -1.03974e-08
0.01 -1.46148e-08 -4.04314e-08
0.01 -0.000263582 -0.00248558
0.0121561 0.00016236 -0.00476771
0.0153483 0.00144384 -0.00375051
0.018895 0.00306185 -0.00239821