# vtk DataFile Version 2.0
Tobias Weinzierl: CPU, Manycore and Cluster Computing
ASCII

DATASET STRUCTURED_POINTS
DIMENSIONS  51 11 6

ORIGIN 0 0 0 

SPACING 0.1 0.1 0.1 

POINT_DATA 3366

VECTORS velocity float
0 0 0
-1.74189e-15 0 0
-4.08029e-09 0 0
-6.72014e-09 0 0
-6.25397e-09 0 0
-1.5015e-09 0 0
-4.12348e-10 0 0
-1.22293e-09 0 0
-2.77249e-09 0 0
-4.1847e-09 0 0
-4.78706e-09 0 0
-4.8191e-09 0 0
-4.67698e-09 0 0
-4.55625e-09 0 0
-4.50571e-09 0 0
-4.5124e-09 0 0
-4.54734e-09 0 0
-4.58841e-09 0 0
-4.62451e-09 0 0
-4.65218e-09 0 0
-4.67173e-09 0 0
-4.68481e-09 0 0
-4.69321e-09 0 0
-4.69846e-09 0 0
-4.70164e-09 0 0
-4.70354e-09 0 0
-4.70464e-09 0 0
-4.70527e-09 0 0
-4.70561e-09 0 0
-4.7058e-09 0 0
-4.70589e-09 0 0
-4.70593e-09 0 0
-4.70594e-09 0 0
-4.70594e-09 0 0
-4.70593e-09 0 0
-4.70592e-09 0 0
-4.70591e-09 0 0
-4.70591e-09 0 0
-4.7059e-09 0 0
-4.70589e-09 0 0
-4.70589e-09 0 0
-4.70588e-09 0 0
-4.70588e-09 0 0
-4.70588e-09 0 0
-4.70587e-09 0 0
-4.70587e-09 0 0
-4.70587e-09 0 0
-4.70587e-09 0 0
-4.70587e-09 0 0
-4.70588e-09 0 0
0.003005 0 0
0 7.58903e-09 0
1.82121e-14 2.29552e-09 0
-7.88614e-09 3.66288e-09 0
-1.32573e-08 2.17043e-09 0
-1.15413e-08 9.59612e-10 0
-3.34752e-09 1.21418e-09 0
-1.22112e-09 2.47204e-09 0
-1.91558e-09 2.61575e-09 0
-3.44516e-09 2.21447e-09 0
-5.67297e-09 1.53839e-09 0
-6.86094e-09 6.87394e-10 0
-7.18697e-09 1.76149e-10 0
-7.30102e-09 -2.82696e-12 0
-7.45288e-09 -1.85594e-11 0
-7.6723e-09 1.87179e-11 0
-7.91886e-09 5.26817e-11 0
-8.1452e-09 6.55709e-11 0
-8.32661e-09 6.18112e-11 0
-8.45943e-09 5.03646e-11 0
-8.55083e-09 3.75219e-11 0
-8.61097e-09 2.63083e-11 0
-8.64928e-09 1.76499e-11 0
-8.67307e-09 1.14466e-11 0
-8.68758e-09 7.22342e-12 0
-8.69629e-09 4.45394e-12 0
-8.70146e-09 2.68933e-12 0
-8.7045e-09 1.5907e-12 0
-8.70628e-09 9.1987e-13 0
-8.7073e-09 5.1734e-13 0
-8.7079e-09 2.7988e-13 0
-8.70823e-09 1.42377e-13 0
-8.70842e-09 6.45566e-14 0
-8.70853e-09 2.18889e-14 0
-8.70858e-09 -3.8017e-16 0
-8.70861e-09 -1.10273e-14 0
-8.70862e-09 -1.52189e-14 0
-8.70863e-09 -1.59625e-14 0
-8.70863e-09 -1.49823e-14 0
-8.70862e-09 -1.32464e-14 0
-8.70862e-09 -1.12833e-14 0
-8.70862e-09 -9.3659e-15 0
-8.70861e-09 -7.62131e-15 0
-8.70861e-09 -6.09557e-15 0
-8.70861e-09 -4.78899e-15 0
-8.70861e-09 -3.67138e-15 0
-8.7086e-09 -2.69709e-15 0
-8.7086e-09 -1.83502e-15 0
-8.70861e-09 -7.75119e-16 0
-8.70861e-09 3.09658e-15 0
-8.70862e-09 1.61564e-14 0
0.00781583 -5.16558e-09 0
0 9.24746e-10 0
6.38989e-14 2.85724e-09 0
-6.09709e-09 3.56079e-09 0
-1.10092e-08 5.19579e-10 0
-6.99782e-09 4.68029e-10 0
-1.8903e-09 2.03852e-09 0
-2.68447e-09 2.62903e-09 0
-3.6312e-09 1.00609e-09 0
-3.56738e-09 -5.64054e-11 0
-4.1592e-09 6.10345e-10 0
-4.69188e-09 1.12666e-09 0
-4.7988e-09 1.53264e-09 0
-4.9834e-09 1.57483e-09 0
-5.24831e-09 1.30209e-09 0
-5.57905e-09 9.72986e-10 0
-5.92275e-09 6.98513e-10 0
-6.22014e-09 4.8785e-10 0
-6.44582e-09 3.31777e-10 0
-6.60269e-09 2.19984e-10 0
-6.70544e-09 1.42533e-10 0
-6.77003e-09 9.04932e-11 0
-6.80947e-09 5.64601e-11 0
-6.83307e-09 3.47142e-11 0
-6.84702e-09 2.10881e-11 0
-6.85519e-09 1.2686e-11 0
-6.85997e-09 7.57172e-12 0
-6.86276e-09 4.49018e-12 0
-6.8644e-09 2.64779e-12 0
-6.86537e-09 1.5526e-12 0
-6.86594e-09 9.04375e-13 0
-6.86629e-09 5.21992e-13 0
-6.8665e-09 2.97146e-13 0
-6.86664e-09 1.65449e-13 0
-6.86672e-09 8.87656e-14 0
-6.86677e-09 4.45441e-14 0
-6.8668e-09 1.94525e-14 0
-6.86682e-09 5.6027e-15 0
-6.86683e-09 -1.67815e-15 0
-6.86684e-09 -5.16039e-15 0
-6.86684e-09 -6.48463e-15 0
-6.86685e-09 -6.6179e-15 0
-6.86685e-09 -6.12396e-15 0
-6.86685e-09 -5.32019e-15 0
-6.86685e-09 -4.3688e-15 0
-6.86685e-09 -3.31051e-15 0
-6.86685e-09 -1.98922e-15 0
-6.86685e-09 1.59379e-16 0
-6.86685e-09 4.04897e-15 0
-6.86685e-09 9.5618e-15 0
-6.86686e-09 1.64503e-14 0
0.00996991 -6.00916e-09 0
0 -8.79555e-09 0
9.01101e-14 1.50812e-09 0
-4.27455e-09 6.13986e-11 0
-9.27634e-09 -4.38291e-09 0
-5.15599e-09 -3.79413e-09 0
-4.42818e-11 -8.57958e-10 0
-1.87571e-09 -2.61011e-14 0
-2.93855e-09 -2.52431e-09 0
-6.71505e-09 -4.96437e-09 0
-6.81815e-09 -3.30855e-09 0
-6.62483e-09 -3.6135e-10 0
-6.24125e-09 1.75919e-09 0
-5.85661e-09 2.44697e-09 0
-5.44604e-09 2.10482e-09 0
-5.20939e-09 1.55909e-09 0
-5.16305e-09 1.09503e-09 0
-5.21047e-09 7.41772e-10 0
-5.27693e-09 4.86598e-10 0
-5.33141e-09 3.10588e-10 0
-5.36807e-09 1.9387e-10 0
-5.39027e-09 1.18889e-10 0
-5.40284e-09 7.19163e-11 0
-5.40967e-09 4.30599e-11 0
-5.41329e-09 2.55965e-11 0
-5.4152e-09 1.51444e-11 0
-5.41621e-09 8.93671e-12 0
-5.41676e-09 5.26776e-12 0
-5.41707e-09 3.10457e-12 0
-5.41726e-09 1.82976e-12 0
-5.41737e-09 1.07772e-12 0
-5.41745e-09 6.33172e-13 0
-5.4175e-09 3.69788e-13 0
-5.41754e-09 2.13455e-13 0
-5.41756e-09 1.20636e-13 0
-5.41758e-09 6.56653e-14 0
-5.41759e-09 3.33425e-14 0
-5.4176e-09 1.46108e-14 0
-5.41761e-09 4.04087e-15 0
-5.41761e-09 -1.64042e-15 0
-5.41761e-09 -4.41358e-15 0
-5.41761e-09 -5.47851e-15 0
-5.41761e-09 -5.55515e-15 0
-5.41761e-09 -5.06003e-15 0
-5.41761e-09 -4.20213e-15 0
-5.41761e-09 -3.04956e-15 0
-5.41761e-09 -1.62576e-15 0
-5.41761e-09 9.89767e-18 0
-5.41761e-09 1.93339e-15 0
-5.41761e-09 4.75463e-15 0
-5.41761e-09 9.01572e-15 0
0.0103662 -4.22115e-09 0
0 -1.70208e-08 0
7.49592e-14 -2.10128e-10 0
-4.33625e-09 -2.41126e-09 0
-9.88123e-09 -4.75036e-09 0
-8.10126e-09 -3.40497e-09 0
-2.70453e-14 -8.55784e-10 0
-3.05278e-13 -3.3569e-13 0
2.84093e-13 -3.27692e-13 0
-3.82034e-09 -3.02254e-09 0
-7.59933e-09 -4.69891e-09 0
-7.46831e-09 -1.54097e-09 0
-7.58123e-09 1.19562e-09 0
-7.43346e-09 2.05719e-09 0
-6.7264e-09 1.7521e-09 0
-6.02553e-09 1.31105e-09 0
-5.58205e-09 9.4658e-10 0
-5.34667e-09 6.49733e-10 0
-5.22533e-09 4.22904e-10 0
-5.15934e-09 2.63896e-10 0
-5.12063e-09 1.59881e-10 0
-5.09668e-09 9.50398e-11 0
-5.08153e-09 5.58872e-11 0
-5.07197e-09 3.27166e-11 0
-5.06603e-09 1.91594e-11 0
-5.0624e-09 1.12647e-11 0
-5.06023e-09 6.66604e-12 0
-5.05897e-09 3.97584e-12 0
-5.05824e-09 2.39078e-12 0
-5.05783e-09 1.4483e-12 0
-5.05761e-09 8.82206e-13 0
-5.05749e-09 5.38698e-13 0
-5.05743e-09 3.28319e-13 0
-5.0574e-09 1.98521e-13 0
-5.05739e-09 1.18075e-13 0
-5.05738e-09 6.8183e-14 0
-5.05738e-09 3.73754e-14 0
-5.05738e-09 1.85631e-14 0
-5.05738e-09 7.31288e-15 0
-5.05738e-09 8.25901e-16 0
-5.05738e-09 -2.67758e-15 0
-5.05738e-09 -4.33033e-15 0
-5.05738e-09 -4.85179e-15 0
-5.05738e-09 -4.69833e-15 0
-5.05738e-09 -4.16644e-15 0
-5.05738e-09 -3.44447e-15 0
-5.05738e-09 -2.61264e-15 0
-5.05738e-09 -1.64118e-15 0
-5.05738e-09 -4.13287e-16 0
-5.05738e-09 1.40627e-15 0
-5.05738e-09 4.01253e-15 0
0.0104194 -1.95189e-09 0
0 -1.52041e-08 0
5.93613e-14 -1.03659e-09 0
-4.5048e-09 -2.75005e-09 0
-1.015e-08 -3.87171e-09 0
-1.00016e-08 -3.98084e-09 0
-3.19143e-09 -1.8226e-09 0
-2.94588e-13 2.86772e-13 0
-2.68552e-15 2.68552e-15 0
2.62854e-13 -3.05328e-13 0
-3.45212e-09 -1.91235e-09 0
-5.48659e-09 -1.5987e-09 0
-7.14171e-09 1.69805e-09 0
-8.45772e-09 2.34409e-09 0
-8.03552e-09 1.50223e-09 0
-6.97782e-09 8.79274e-10 0
-6.14359e-09 5.50564e-10 0
-5.64543e-09 3.42963e-10 0
-5.36911e-09 2.02866e-10 0
-5.21525e-09 1.14392e-10 0
-5.12774e-09 6.2735e-11 0
-5.07721e-09 3.42097e-11 0
-5.04786e-09 1.89337e-11 0
-5.03081e-09 1.08156e-11 0
-5.02094e-09 6.44214e-12 0
-5.01526e-09 4.00832e-12 0
-5.01201e-09 2.59042e-12 0
-5.01016e-09 1.72154e-12 0
-5.00911e-09 1.16387e-12 0
-5.00852e-09 7.92835e-13 0
-5.00819e-09 5.40038e-13 0
-5.008e-09 3.65574e-13 0
-5.0079e-09 2.44655e-13 0
-5.00784e-09 1.61018e-13 0
-5.00781e-09 1.03558e-13 0
-5.00779e-09 6.45025e-14 0
-5.00778e-09 3.83361e-14 0
-5.00778e-09 2.11336e-14 0
-5.00778e-09 1.01037e-14 0
-5.00777e-09 3.27236e-15 0
-5.00777e-09 -7.46052e-16 0
-5.00777e-09 -2.91556e-15 0
-5.00777e-09 -3.90152e-15 0
-5.00777e-09 -4.15458e-15 0
-5.00777e-09 -3.96856e-15 0
-5.00777e-09 -3.53585e-15 0
-5.00777e-09 -2.99701e-15 0
-5.00777e-09 -2.45814e-15 0
-5.00777e-09 -1.93425e-15 0
-5.00777e-09 -1.22968e-15 0
-5.00777e-09 -1.57668e-16 0
0.0104245 3.01656e-10 0
0 -1.08234e-08 0
5.45204e-14 -1.40569e-09 0
-4.28266e-09 -3.14369e-09 0
-9.92427e-09 -2.90473e-09 0
-1.04341e-08 -2.12694e-09 0
-7.06292e-09 -2.11076e-09 0
-2.56287e-09 -1.15055e-09 0
-2.95524e-13 2.78016e-13 0
-1.51682e-14 1.51682e-14 0
2.38928e-13 -2.86775e-13 0
-2.0251e-09 1.51366e-09 0
-5.47468e-09 4.09752e-09 0
-9.33025e-09 3.72129e-09 0
-9.63837e-09 1.35421e-09 0
-7.9842e-09 1.94312e-10 0
-6.56813e-09 -7.80154e-11 0
-5.79191e-09 -1.0713e-10 0
-5.41776e-09 -9.22694e-11 0
-5.23913e-09 -6.95083e-11 0
-5.15156e-09 -4.74257e-11 0
-5.10737e-09 -2.97497e-11 0
-5.08451e-09 -1.7332e-11 0
-5.07242e-09 -9.39329e-12 0
-5.06589e-09 -4.67635e-12 0
-5.06228e-09 -2.04884e-12 0
-5.06026e-09 -6.81499e-13 0
-5.0591e-09 -3.08781e-14 0
-5.05842e-09 2.34497e-13 0
-5.05802e-09 3.06171e-13 0
-5.05778e-09 2.89612e-13 0
-5.05764e-09 2.39943e-13 0
-5.05755e-09 1.84049e-13 0
-5.05749e-09 1.33643e-13 0
-5.05745e-09 9.26824e-14 0
-5.05743e-09 6.14538e-14 0
-5.05741e-09 3.87182e-14 0
-5.0574e-09 2.27892e-14 0
-5.0574e-09 1.20279e-14 0
-5.05739e-09 5.03803e-15 0
-5.05739e-09 7.12446e-16 0
-5.05739e-09 -1.78666e-15 0
-5.05738e-09 -3.07113e-15 0
-5.05738e-09 -3.57651e-15 0
-5.05738e-09 -3.61089e-15 0
-5.05738e-09 -3.39891e-15 0
-5.05738e-09 -3.12997e-15 0
-5.05738e-09 -3.00937e-15 0
-5.05738e-09 -3.22909e-15 0
-5.05738e-09 -3.8001e-15 0
-5.05738e-09 -4.4083e-15 0
0.0104194 2.51227e-09 0
0 -7.81172e-09 0
4.57792e-14 -1.67113e-09 0
-4.35824e-09 -3.23961e-09 0
-9.5279e-09 -2.40886e-09 0
-1.01024e-08 -1.16349e-09 0
-7.68864e-09 -1.0125e-09 0
-5.60345e-09 -2.51902e-09 0
-3.41881e-09 -1.82965e-09 0
-3.10601e-13 2.45429e-13 0
2.13596e-13 2.26609e-13 0
6.32849e-16 3.02172e-09 0
-2.66666e-09 7.50249e-09 0
-7.38253e-09 5.92853e-09 0
-9.29941e-09 1.12332e-09 0
-8.16147e-09 -8.20406e-10 0
-6.71786e-09 -8.24201e-10 0
-5.91471e-09 -5.2482e-10 0
-5.58076e-09 -3.12524e-10 0
-5.46222e-09 -1.82743e-10 0
-5.42575e-09 -1.04028e-10 0
-5.41698e-09 -5.73101e-11 0
-5.41625e-09 -3.0514e-11 0
-5.41716e-09 -1.56539e-11 0
-5.41797e-09 -7.66174e-12 0
-5.41839e-09 -3.49376e-12 0
-5.41851e-09 -1.39896e-12 0
-5.41847e-09 -4.00155e-13 0
-5.41834e-09 3.57168e-14 0
-5.4182e-09 1.93639e-13 0
-5.41807e-09 2.22584e-13 0
-5.41796e-09 1.98145e-13 0
-5.41787e-09 1.57009e-13 0
-5.4178e-09 1.15688e-13 0
-5.41775e-09 8.05756e-14 0
-5.41771e-09 5.32396e-14 0
-5.41768e-09 3.31545e-14 0
-5.41766e-09 1.90523e-14 0
-5.41764e-09 9.55525e-15 0
-5.41763e-09 3.43703e-15 0
-5.41763e-09 -2.92632e-16 0
-5.41762e-09 -2.39127e-15 0
-5.41762e-09 -3.41674e-15 0
-5.41761e-09 -3.77048e-15 0
-5.41761e-09 -3.73963e-15 0
-5.41761e-09 -3.53894e-15 0
-5.41761e-09 -3.35855e-15 0
-5.41761e-09 -3.45658e-15 0
-5.41761e-09 -4.28139e-15 0
-5.41761e-09 -6.36317e-15 0
-5.41761e-09 -9.44393e-15 0
0.0103662 4.6293e-09 0
0 -7.17808e-09 0
3.51501e-14 -1.67669e-09 0
-4.90412e-09 -3.10369e-09 0
-9.53493e-09 -2.04067e-09 0
-1.02406e-08 -8.07611e-10 0
-8.51855e-09 -4.65105e-10 0
-6.47062e-09 -1.35794e-09 0
-6.22968e-09 -3.89615e-09 0
-4.62364e-09 -2.80938e-09 0
-7.03101e-09 -6.98942e-18 0
-8.35603e-09 2.8708e-09 0
-5.27872e-09 7.63652e-09 0
-3.89289e-09 6.6837e-09 0
-5.99764e-09 1.54493e-09 0
-7.05558e-09 -1.05498e-09 0
-6.95572e-09 -1.10189e-09 0
-6.78344e-09 -6.27945e-10 0
-6.74838e-09 -3.05557e-10 0
-6.7753e-09 -1.43024e-10 0
-6.81e-09 -6.67162e-11 0
-6.83584e-09 -3.11736e-11 0
-6.85176e-09 -1.44646e-11 0
-6.86059e-09 -6.52955e-12 0
-6.86509e-09 -2.75633e-12 0
-6.86715e-09 -9.9147e-13 0
-6.86794e-09 -2.03689e-13 0
-6.86812e-09 1.12456e-13 0
-6.86802e-09 2.08027e-13 0
-6.86782e-09 2.07532e-13 0
-6.86762e-09 1.71445e-13 0
-6.86743e-09 1.27747e-13 0
-6.86728e-09 8.81537e-14 0
-6.86716e-09 5.6504e-14 0
-6.86707e-09 3.30665e-14 0
-6.867e-09 1.66963e-14 0
-6.86696e-09 5.86801e-15 0
-6.86692e-09 -8.70046e-16 0
-6.8669e-09 -4.72689e-15 0
-6.86688e-09 -6.63889e-15 0
-6.86687e-09 -7.29722e-15 0
-6.86686e-09 -7.19204e-15 0
-6.86685e-09 -6.6611e-15 0
-6.86685e-09 -5.93428e-15 0
-6.86685e-09 -5.17245e-15 0
-6.86685e-09 -4.49851e-15 0
-6.86685e-09 -4.02849e-15 0
-6.86685e-09 -3.96755e-15 0
-6.86685e-09 -4.96181e-15 0
-6.86685e-09 -8.65217e-15 0
-6.86685e-09 -1.60483e-14 0
0.00996991 6.09183e-09 0
0 -7.80118e-09 0
2.39593e-14 -1.06725e-09 0
-5.39289e-09 -1.94712e-09 0
-9.42957e-09 -1.24946e-09 0
-1.03917e-08 -6.36997e-10 0
-9.9784e-09 -9.25519e-10 0
-8.80107e-09 -1.72955e-09 0
-8.02507e-09 -2.06774e-09 0
-9.37588e-09 1.23828e-09 0
-9.71244e-09 4.69238e-09 0
-9.6845e-09 1.86386e-09 0
-7.07337e-09 -2.56527e-09 0
-5.79624e-09 -2.98198e-09 0
-7.77424e-09 -9.26638e-10 0
-9.09755e-09 5.34948e-10 0
-9.12266e-09 8.10082e-10 0
-8.89125e-09 5.56942e-10 0
-8.7574e-09 2.90422e-10 0
-8.70938e-09 1.32679e-10 0
-8.69889e-09 5.67128e-11 0
-8.70014e-09 2.3481e-11 0
-8.70342e-09 9.58917e-12 0
-8.70602e-09 3.87812e-12 0
-8.70759e-09 1.52721e-12 0
-8.70839e-09 5.48852e-13 0
-8.70873e-09 1.37699e-13 0
-8.70883e-09 -3.34844e-14 0
-8.70881e-09 -1.00153e-13 0
-8.70876e-09 -1.20155e-13 0
-8.7087e-09 -1.19185e-13 0
-8.70865e-09 -1.0914e-13 0
-8.70861e-09 -9.5723e-14 0
-8.70859e-09 -8.17186e-14 0
-8.70857e-09 -6.84661e-14 0
-8.70856e-09 -5.65622e-14 0
-8.70856e-09 -4.62113e-14 0
-8.70856e-09 -3.74102e-14 0
-8.70856e-09 -3.00499e-14 0
-8.70857e-09 -2.39737e-14 0
-8.70857e-09 -1.90106e-14 0
-8.70857e-09 -1.49933e-14 0
-8.70858e-09 -1.17691e-14 0
-8.70858e-09 -9.20535e-15 0
-8.70858e-09 -7.19661e-15 0
-8.70859e-09 -5.6714e-15 0
-8.70859e-09 -4.60264e-15 0
-8.70859e-09 -4.05109e-15 0
-8.70859e-09 -4.52012e-15 0
-8.7086e-09 -8.33985e-15 0
-8.70861e-09 -1.89217e-14 0
0.00781582 4.85763e-09 0
0 0 0
1.06355e-14 0 0
-2.71622e-09 0 0
-4.57128e-09 0 0
-5.16528e-09 0 0
-5.27697e-09 0 0
-5.37103e-09 0 0
-5.21419e-09 0 0
-4.75228e-09 0 0
-2.68145e-09 0 0
-1.32847e-09 0 0
-2.35742e-09 0 0
-4.47714e-09 0 0
-5.84111e-09 0 0
-5.96845e-09 0 0
-5.52497e-09 0 0
-5.11756e-09 0 0
-4.8851e-09 0 0
-4.77672e-09 0 0
-4.73147e-09 0 0
-4.71392e-09 0 0
-4.70756e-09 0 0
-4.70546e-09 0 0
-4.70491e-09 0 0
-4.70487e-09 0 0
-4.70498e-09 0 0
-4.70513e-09 0 0
-4.70526e-09 0 0
-4.70538e-09 0 0
-4.70547e-09 0 0
-4.70555e-09 0 0
-4.70561e-09 0 0
-4.70566e-09 0 0
-4.70571e-09 0 0
-4.70574e-09 0 0
-4.70577e-09 0 0
-4.70579e-09 0 0
-4.7058e-09 0 0
-4.70582e-09 0 0
-4.70583e-09 0 0
-4.70584e-09 0 0
-4.70584e-09 0 0
-4.70585e-09 0 0
-4.70585e-09 0 0
-4.70585e-09 0 0
-4.70586e-09 0 0
-4.70586e-09 0 0
-4.70586e-09 0 0
-4.70586e-09 0 0
-4.70587e-09 0 0
0.003005 0 0
0 0 8.15738e-09
3.45996e-14 0 1.78477e-09
-8.36732e-09 0 3.05725e-09
-1.52264e-08 0 3.24508e-12
-1.66806e-08 0 -6.17825e-09
-1.77246e-09 0 -7.0558e-09
2.70298e-09 0 -2.75061e-09
2.2922e-09 0 -2.55603e-10
-1.38835e-10 0 7.47303e-10
-2.9038e-09 0 4.76177e-10
-4.74464e-09 0 -5.30001e-11
-5.83651e-09 0 -2.86226e-10
-6.56688e-09 0 -2.60018e-10
-7.10037e-09 0 -1.52714e-10
-7.51521e-09 0 -6.25728e-11
-7.85353e-09 0 -1.10554e-11
-8.12409e-09 0 1.04375e-11
-8.32899e-09 0 1.53639e-11
-8.47578e-09 0 1.34101e-11
-8.57623e-09 0 9.69571e-12
-8.64254e-09 0 6.31518e-12
-8.68512e-09 0 3.83402e-12
-8.71188e-09 0 2.20416e-12
-8.72841e-09 0 1.20721e-12
-8.7385e-09 0 6.28912e-13
-8.7446e-09 0 3.08256e-13
-8.74826e-09 0 1.38144e-13
-8.75045e-09 0 5.23427e-14
-8.75175e-09 0 1.19199e-14
-8.75252e-09 0 -5.1052e-15
-8.75298e-09 0 -1.07014e-14
-8.75325e-09 0 -1.11464e-14
-8.75341e-09 0 -9.59117e-15
-8.75351e-09 0 -7.5235e-15
-8.75356e-09 0 -5.5789e-15
-8.75359e-09 0 -3.97766e-15
-8.7536e-09 0 -2.74998e-15
-8.75361e-09 0 -1.84969e-15
-8.75362e-09 0 -1.2104e-15
-8.75362e-09 0 -7.66833e-16
-8.75362e-09 0 -4.62824e-16
-8.75362e-09 0 -2.54062e-16
-8.75361e-09 0 -1.03668e-16
-8.75361e-09 0 2.00342e-17
-8.75361e-09 0 1.47537e-16
-8.75361e-09 0 2.90126e-16
-8.75361e-09 0 3.72047e-16
-8.75361e-09 0 4.87931e-16
-8.75362e-09 0 3.01362e-15
-8.75363e-09 0 1.45058e-14
0.00781102 0 -4.24623e-09
0.0036 3.20048e-09 3.65668e-09
0.00359999 -0.00197531 -0.000569636
0.00816531 -0.00567345 -0.00185283
0.0168938 -0.00884568 -0.00328468
0.0286904 -0.012469 -0.00430415
0.046596 -0.00823859 -0.00279635
0.0485174 -5.82563e-05 -0.000338458
0.0478228 0.00325044 0.000559765
0.0424714 0.00487575 0.000549464
0.036912 0.00458031 4.91947e-05
0.0320364 0.00370143 -0.000266699
0.0281341 0.00274299 -0.000314158
0.0253194 0.0018956 -0.000232202
0.0234529 0.0012445 -0.000134699
0.022274 0.000791809 -6.57962e-05
0.0215506 0.000492764 -2.76452e-05
0.0211172 0.000300432 -9.75418e-06
0.0208633 0.000179514 -2.50311e-06
0.020718 0.000105201 -5.42098e-08
0.0206366 6.05129e-05 5.08141e-07
0.0205923 3.41773e-05 4.56883e-07
0.0205688 1.89459e-05 2.78953e-07
0.0205568 1.02939e-05 1.27599e-07
0.020551 5.46695e-06 3.13285e-08
0.0205485 2.82464e-06 -1.94652e-08
0.0205475 1.40855e-06 -4.07781e-08
0.0205473 6.6847e-07 -4.55559e-08
0.0205475 2.93833e-07 -4.22754e-08
0.0205477 1.12294e-07 -3.58499e-08
0.020548 2.99403e-08 -2.88468e-08
0.0205482 -3.35702e-09 -2.24469e-08
0.0205483 -1.3694e-08 -1.7077e-08
0.0205485 -1.42223e-08 -1.27889e-08
0.0205486 -1.12731e-08 -9.47079e-09
0.0205486 -7.68335e-09 -6.95696e-09
0.0205487 -4.56631e-09 -5.08021e-09
0.0205487 -2.23201e-09 -3.69368e-09
0.0205487 -6.5082e-10 -2.67715e-09
0.0205488 3.23586e-10 -1.9363e-09
0.0205488 8.54318e-10 -1.39921e-09
0.0205488 1.08221e-09 -1.01238e-09
0.0205488 1.1151e-09 -7.37046e-10
0.0205488 1.02904e-09 -5.46278e-10
0.0205488 8.73627e-10 -4.22659e-10
0.0205488 6.75748e-10 -3.57408e-10
0.0205488 4.33173e-10 -3.53424e-10
0.0205488 1.32257e-10 -3.79433e-10
0.0205488 -2.33528e-10 -2.69903e-10
0.0205488 -1.98088e-09 -9.83742e-10
0.0205488 -9.3889e-09 -6.61334e-09
0.0205488 -1.52495e-08 -1.14082e-08
0.01 2.99388e-09 -1.06979e-08
0.01 -0.00404898 -0.00111802
0.0152843 -0.0119558 -0.00297609
0.024383 -0.0186924 -0.00435411
0.0365767 -0.0272951 -0.00427377
0.0553972 -0.0180032 -0.00111358
0.0543125 -0.00073817 0.00155774
0.0548727 0.00605702 0.00187738
0.0489878 0.0108889 0.0014314
0.0427557 0.0105532 0.000368177
0.0375455 0.00896361 -0.000334182
0.0334035 0.00688249 -0.000481086
0.03054 0.00479251 -0.000370292
0.0287726 0.00310699 -0.000218329
0.0277298 0.00193112 -0.000107011
0.02713 0.00116808 -4.46394e-05
0.026794 0.00069067 -1.52305e-05
0.0266114 0.00039966 -3.26323e-06
0.0265157 0.000226307 7.64318e-07
0.0264677 0.000125246 1.62775e-06
0.0264451 6.75498e-05 1.43907e-06
0.0264356 3.53032e-05 1.02555e-06
0.0264325 1.76894e-05 6.59281e-07
0.0264323 8.32198e-06 3.98005e-07
0.0264333 3.50606e-06 2.29731e-07
0.0264346 1.14469e-06 1.27803e-07
0.0264358 7.03748e-08 6.86472e-08
0.0264368 -3.53632e-07 3.54605e-08
0.0264376 -4.66418e-07 1.74058e-08
0.0264383 -4.4323e-07 7.89333e-09
0.0264387 -3.70976e-07 3.072e-09
0.026439 -2.90101e-07 7.57773e-10
0.0264393 -2.17404e-07 -2.57272e-10
0.0264395 -1.58194e-07 -6.25492e-10
0.0264396 -1.12606e-07 -6.9037e-10
0.0264397 -7.8766e-08 -6.27261e-10
0.0264397 -5.42886e-08 -5.21973e-10
0.0264398 -3.69308e-08 -4.13817e-10
0.0264398 -2.48197e-08 -3.18783e-10
0.0264398 -1.64901e-08 -2.41809e-10
0.0264398 -1.08418e-08 -1.832e-10
0.0264398 -7.07324e-09 -1.41979e-10
0.0264398 -4.61587e-09 -1.17697e-10
0.0264399 -3.08081e-09 -1.11026e-10
0.0264399 -2.2185e-09 -1.21743e-10
0.0264399 -1.91795e-09 -1.50291e-10
0.0264399 -2.42421e-09 -1.84311e-10
0.0264399 -4.62295e-09 -9.16594e-11
0.0264399 -8.94046e-09 -1.1577e-09
0.0264399 -1.49734e-08 -8.50478e-09
0.0264399 -1.83672e-08 -1.46782e-08
0.0148 -1.37932e-08 -1.42523e-08
0.0148 -0.00594019 -0.00163287
0.0193553 -0.0168708 -0.00433503
0.025226 -0.0261832 -0.00582635
0.0293262 -0.0394393 -0.00472741
0.0279198 -0.0241869 -0.000758484
0.0260299 -1.61847e-07 0.00156882
0.026476 0.0080376 0.00169974
0.0314677 0.0167218 0.00154045
0.0312493 0.0161022 0.000674316
0.0296248 0.0132987 -1.83014e-05
0.0282909 0.00998346 -0.000284087
0.0275403 0.00668908 -0.00026628
0.0272874 0.00414648 -0.000165552
0.027244 0.00247797 -7.55883e-05
0.027275 0.00144587 -2.32133e-05
0.027328 0.000824225 -2.68742e-07
0.0273811 0.00045838 6.8371e-06
0.0274259 0.000248111 7.27883e-06
0.0274602 0.000130107 5.65974e-06
0.027485 6.54882e-05 3.85239e-06
0.0275024 3.10509e-05 2.43265e-06
0.0275142 1.32935e-05 1.46314e-06
0.0275222 4.53799e-06 8.49922e-07
0.0275275 5.09785e-07 4.80478e-07
0.027531 -1.12133e-06 2.6535e-07
0.0275333 -1.59638e-06 1.43284e-07
0.0275349 -1.55792e-06 7.55005e-08
0.0275359 -1.32623e-06 3.86008e-08
0.0275366 -1.05202e-06 1.89231e-08
0.0275371 -7.99456e-07 8.67845e-09
0.0275374 -5.90314e-07 3.50974e-09
0.0275377 -4.26995e-07 1.01918e-09
0.0275378 -3.04082e-07 -9.23978e-11
0.0275379 -2.13886e-07 -5.17344e-10
0.027538 -1.48908e-07 -6.17512e-10
0.027538 -1.02755e-07 -5.7728e-10
0.027538 -7.03469e-08 -4.87262e-10
0.0275381 -4.7812e-08 -3.89557e-10
0.0275381 -3.2284e-08 -3.01918e-10
0.0275381 -2.16842e-08 -2.30516e-10
0.0275381 -1.45315e-08 -1.76549e-10
0.0275381 -9.7907e-09 -1.39394e-10
0.0275381 -6.7654e-09 -1.18078e-10
0.0275381 -5.04874e-09 -1.14894e-10
0.0275381 -4.49713e-09 -1.46361e-10
0.0275381 -5.02133e-09 -2.34448e-10
0.0275381 -6.41138e-09 -3.15403e-10
0.0275381 -8.69226e-09 -1.68661e-09
0.0275381 -1.18078e-08 -8.96482e-09
0.0275381 -1.3521e-08 -1.48926e-08
0.018 -3.10902e-08 -1.99971e-08
0.018 -0.00661341 -0.00241054
0.0197487 -0.0172486 -0.00635787
0.0197795 -0.0218516 -0.00734556
0.0160691 -0.0233319 -0.00583064
-1.48973e-08 -0.0121157 -0.00243244
1.64068e-06 5.80492e-07 7.63008e-09
-6.56169e-07 6.95508e-07 0.000312038
0.00791887 0.00569604 0.000616367
0.016522 0.0123153 0.000493587
0.0197147 0.0120301 0.000202314
0.021261 0.00911899 -7.19825e-05
0.0229554 0.00591669 -0.000164382
0.0245077 0.00347472 -0.00011822
0.0256568 0.00197533 -4.71276e-05
0.026426 0.00109349 -2.70325e-06
0.0269176 0.000584162 1.43265e-05
0.0272237 0.000298479 1.64187e-05
0.0274108 0.00014394 1.30834e-05
0.0275235 6.35912e-05 8.9513e-06
0.0275905 2.3704e-05 5.6215e-06
0.0276301 5.11351e-06 3.34018e-06
0.0276533 -2.68515e-06 1.90742e-06
0.0276669 -5.26966e-06 1.05527e-06
0.0276748 -5.50907e-06 5.67246e-07
0.0276795 -4.82529e-06 2.9578e-07
0.0276822 -3.88759e-06 1.48539e-07
0.0276838 -2.98517e-06 7.06632e-08
0.0276848 -2.22266e-06 3.06601e-08
0.0276854 -1.62008e-06 1.08978e-08
0.0276857 -1.1627e-06 1.70242e-09
0.0276859 -8.24619e-07 -2.13618e-09
0.0276861 -5.79345e-07 -3.37075e-09
0.0276861 -4.03843e-07 -3.42261e-09
0.0276862 -2.79601e-07 -3.00337e-09
0.0276862 -1.92401e-07 -2.45321e-09
0.0276862 -1.31644e-07 -1.9225e-09
0.0276863 -8.95832e-08 -1.46772e-09
0.0276863 -6.06418e-08 -1.10138e-09
0.0276863 -4.08513e-08 -8.17296e-10
0.0276863 -2.7415e-08 -6.03056e-10
0.0276863 -1.83818e-08 -4.46055e-10
0.0276863 -1.24099e-08 -3.36635e-10
0.0276863 -8.59325e-09 -2.70323e-10
0.0276863 -6.31243e-09 -2.53272e-10
0.0276863 -5.11196e-09 -3.186e-10
0.0276863 -4.66398e-09 -4.88069e-10
0.0276863 -4.72979e-09 -6.29535e-10
0.0276863 -5.27919e-09 -2.00688e-09
0.0276863 -6.2503e-09 -8.995e-09
0.0276863 -6.8059e-09 -1.46376e-08
0.0196 -3.75935e-08 -3.64567e-08
0.0196 -0.0050202 -0.00312197
0.0190451 -0.0114059 -0.00758999
0.0165575 -0.0133552 -0.00775355
0.0122151 -0.0115038 -0.00580373
0.00281351 -0.00453442 -0.00312007
1.2535e-06 -1.15836e-06 -0.00060182
5.0219e-07 -5.0219e-07 -8.31139e-10
-6.35277e-07 6.77061e-07 6.90442e-05
0.00567649 0.00419244 0.00015426
0.0122779 0.00854039 0.00012382
0.0151795 0.0067994 -5.51372e-05
0.0188206 0.00352297 -0.000203621
0.0220914 0.00150104 -0.000173059
0.0243853 0.000583085 -8.20297e-05
0.025802 0.000188128 -1.5966e-05
0.0266305 2.12655e-05 1.15888e-05
0.0271037 -4.14565e-05 1.66021e-05
0.0273707 -5.70259e-05 1.34219e-05
0.0275197 -5.33042e-05 8.94848e-06
0.0276022 -4.34503e-05 5.39984e-06
0.0276476 -3.3102e-05 3.06058e-06
0.0276723 -2.42769e-05 1.65612e-06
0.0276857 -1.74026e-05 8.59795e-07
0.0276929 -1.22982e-05 4.26357e-07
0.0276967 -8.61136e-06 1.98456e-07
0.0276987 -5.99279e-06 8.28333e-08
0.0276997 -4.15244e-06 2.67712e-08
0.0277002 -2.86782e-06 1.41256e-09
0.0277004 -1.97526e-06 -8.64566e-09
0.0277005 -1.35717e-06 -1.14351e-08
0.0277006 -9.30252e-07 -1.10357e-08
0.0277006 -6.36044e-07 -9.44946e-09
0.0277006 -4.33721e-07 -7.60843e-09
0.0277006 -2.94888e-07 -5.90736e-09
0.0277006 -1.9984e-07 -4.48125e-09
0.0277005 -1.34937e-07 -3.34684e-09
0.0277005 -9.07474e-08 -2.47291e-09
0.0277005 -6.07655e-08 -1.81382e-09
0.0277005 -4.05103e-08 -1.32455e-09
0.0277005 -2.69036e-08 -9.66748e-10
0.0277005 -1.78361e-08 -7.1088e-10
0.0277005 -1.18629e-08 -5.37126e-10
0.0277005 -7.98937e-09 -4.3606e-10
0.0277005 -5.52381e-09 -4.08731e-10
0.0277005 -3.96974e-09 -4.7438e-10
0.0277005 -2.93885e-09 -6.42137e-10
0.0277005 -2.08835e-09 -7.68765e-10
0.0277005 -1.22843e-09 -2.11173e-09
0.0277005 -3.20626e-10 -8.95773e-09
0.0277005 1.49001e-10 -1.44798e-08
0.0196 -1.95878e-08 -5.02865e-08
0.0196 -0.00286303 -0.00340051
0.0190982 -0.00592003 -0.00761706
0.0180696 -0.00538943 -0.00740398
0.0149797 -0.00186756 -0.00527042
0.0111816 0.00400875 -0.00324289
0.00686855 0.00354391 -0.0014295
1.2545e-06 -1.06222e-06 -0.000269645
4.26941e-07 -4.26941e-07 -1.98005e-09
-6.0983e-07 6.60723e-07 1.80762e-05
0.00418669 0.00250384 0.000282747
0.00907557 0.0026206 0.000258758
0.0153864 -0.000891513 -0.000174199
0.0207312 -0.0020045 -0.00031162
0.0240975 -0.00169278 -0.000209196
0.0258865 -0.00114023 -8.40378e-05
0.0267854 -0.000720016 -1.88116e-05
0.0272362 -0.000447619 2.57522e-06
0.0274636 -0.000277202 6.10026e-06
0.0275783 -0.000171538 4.75191e-06
0.0276358 -0.000106329 2.90729e-06
0.0276641 -6.61842e-05 1.57685e-06
0.0276777 -4.14568e-05 7.81158e-07
0.027684 -2.61703e-05 3.49498e-07
0.0276867 -1.66615e-05 1.31462e-07
0.0276876 -1.06993e-05 2.91257e-08
0.0276878 -6.92712e-06 -1.4056e-08
0.0276877 -4.51822e-06 -2.86276e-08
0.0276874 -2.96586e-06 -3.03255e-08
0.0276872 -1.957e-06 -2.6913e-08
0.027687 -1.29646e-06 -2.20265e-08
0.0276868 -8.61219e-07 -1.72385e-08
0.0276866 -5.72975e-07 -1.31284e-08
0.0276865 -3.81345e-07 -9.82358e-09
0.0276865 -2.53612e-07 -7.26417e-09
0.0276864 -1.68349e-07 -5.32793e-09
0.0276864 -1.1142e-07 -3.88559e-09
0.0276863 -7.34447e-08 -2.82262e-09
0.0276863 -4.81659e-08 -2.04556e-09
0.0276863 -3.13974e-08 -1.48177e-09
0.0276863 -2.03299e-08 -1.07693e-09
0.0276863 -1.30731e-08 -7.9223e-10
0.0276863 -8.34977e-09 -6.01859e-10
0.0276863 -5.28801e-09 -4.91029e-10
0.0276863 -3.27778e-09 -4.56681e-10
0.0276863 -1.86719e-09 -5.17469e-10
0.0276863 -6.70163e-10 -6.82732e-10
0.0276863 7.41344e-10 -7.94121e-10
0.0276863 2.79811e-09 -2.09002e-09
0.0276863 5.55893e-09 -8.91192e-09
0.0276863 7.08221e-09 -1.44425e-08
0.018 -1.19658e-08 -4.97464e-08
0.018 -0.00112768 -0.00334298
0.018647 -0.00167627 -0.00721425
0.019471 -0.000145253 -0.00664696
0.019333 0.0024894 -0.00453042
0.0192714 0.00783025 -0.00279007
0.0196041 0.0129318 -0.00147041
0.0120933 0.00718764 -0.000668003
1.28415e-06 -8.40289e-07 -0.00023288
-4.95947e-07 -9.56864e-07 7.73211e-09
1.28014e-07 -0.000627888 0.000864685
0.0095314 -0.00445247 0.00115026
0.0175101 -0.00800786 0.000170249
0.0227948 -0.0070505 -0.000300755
0.0256284 -0.00446967 -0.00029517
0.0268668 -0.0024561 -0.00015497
0.027342 -0.00131616 -6.07178e-05
0.0275095 -0.000718775 -2.02388e-05
0.0275615 -0.00040096 -6.09095e-06
0.0275721 -0.000227184 -1.70336e-06
0.0275692 -0.000130354 -4.76507e-07
0.0275629 -7.56974e-05 -1.7661e-07
0.0275568 -4.44989e-05 -1.1508e-07
0.0275517 -2.64878e-05 -1.00232e-07
0.0275479 -1.59652e-05 -8.8064e-08
0.0275451 -9.74068e-06 -7.32853e-08
0.027543 -6.01159e-06 -5.80445e-08
0.0275416 -3.74916e-06 -4.43673e-08
0.0275405 -2.35972e-06 -3.31124e-08
0.0275398 -1.49662e-06 -2.43322e-08
0.0275393 -9.54886e-07 -1.77062e-08
0.0275389 -6.11788e-07 -1.2808e-08
0.0275387 -3.92859e-07 -9.23285e-09
0.0275385 -2.52346e-07 -6.64331e-09
0.0275384 -1.61797e-07 -4.77599e-09
0.0275383 -1.03315e-07 -3.43276e-09
0.0275382 -6.55331e-08 -2.46783e-09
0.0275382 -4.11663e-08 -1.77529e-09
0.0275382 -2.55132e-08 -1.27898e-09
0.0275382 -1.55218e-08 -9.2462e-10
0.0275381 -9.20109e-09 -6.74174e-10
0.0275381 -5.24524e-09 -5.01898e-10
0.0275381 -2.79011e-09 -3.91914e-10
0.0275381 -1.2521e-09 -3.36705e-10
0.0275381 -2.1749e-10 -3.37894e-10
0.0275381 6.37537e-10 -4.17852e-10
0.0275381 1.62341e-09 -5.91776e-10
0.0275381 3.20669e-09 -6.89264e-10
0.0275381 6.21504e-09 -1.9004e-09
0.0275381 1.09655e-08 -8.76919e-09
0.0275381 1.37246e-08 -1.44148e-08
0.0148 -8.01733e-09 -4.3121e-08
0.0148 -0.000199047 -0.00314857
0.016908 0.000387066 -0.00648679
0.0197258 0.00212078 -0.00558851
0.0221418 0.0045132 -0.00365041
0.0241686 0.00752712 -0.00239322
0.0273967 0.0126446 -0.00153109
0.0304342 0.0203256 -0.000836148
0.0246832 0.0122296 -0.00012206
0.0255852 1.49701e-14 0.00052668
0.0301788 -0.00735444 0.00173935
0.034871 -0.0152796 0.00230931
0.0342121 -0.014134 0.00109813
0.031472 -0.00994292 -1.44315e-05
0.0292532 -0.00561306 -0.000374362
0.0279672 -0.00277374 -0.000276359
0.0272829 -0.00132984 -0.000133035
0.0269168 -0.000655527 -5.39382e-05
0.0267158 -0.000336117 -2.03326e-05
0.0266027 -0.00017815 -7.41792e-06
0.0265376 -9.6836e-05 -2.65738e-06
0.0264995 -5.36691e-05 -9.33646e-07
0.0264768 -3.02123e-05 -3.14376e-07
0.0264631 -1.72311e-05 -9.33754e-08
0.0264547 -9.93834e-06 -1.60032e-08
0.0264494 -5.78792e-06 9.35158e-09
0.0264461 -3.39833e-06 1.5867e-08
0.0264439 -2.00803e-06 1.57278e-08
0.0264426 -1.19149e-06 1.34823e-08
0.0264417 -7.08012e-07 1.08361e-08
0.0264411 -4.1986e-07 8.40474e-09
0.0264407 -2.47339e-07 6.37385e-09
0.0264404 -1.43836e-07 4.75913e-09
0.0264402 -8.18121e-08 3.51326e-09
0.0264401 -4.48386e-08 2.57116e-09
0.02644 -2.30332e-08 1.86893e-09
0.02644 -1.04091e-08 1.35094e-09
0.0264399 -3.32019e-09 9.71698e-10
0.0264399 4.61395e-10 6.95249e-10
0.0264399 2.29898e-09 4.93678e-10
0.0264399 3.02687e-09 3.45302e-10
0.0264399 3.15666e-09 2.32807e-10
0.0264399 3.00604e-09 1.41394e-10
0.0264399 2.78194e-09 5.70911e-11
0.0264399 2.63908e-09 -3.574e-11
0.0264399 2.72776e-09 -1.65626e-10
0.0264399 3.23577e-09 -3.53436e-10
0.0264399 4.55752e-09 -4.48221e-10
0.0264399 7.95817e-09 -1.54058e-09
0.0264399 1.44281e-08 -8.30443e-09
0.0264399 1.84332e-08 -1.39621e-08
0.01 -1.48827e-08 -3.90472e-08
0.01 -8.7088e-05 -0.00267217
0.0125671 0.000483945 -0.00511342
0.0161515 0.00164753 -0.00394641
0.0198273 0.00312366 -0.00240551
0.0241268 0.00575311 -0.00174436
0.0295573 0.00841554 -0.00174207