# vtk DataFile Version 2.0
Tobias Weinzierl: CPU, Manycore and Cluster Computing
ASCII

DATASET STRUCTURED_POINTS
DIMENSIONS  51 11 6

ORIGIN 0 0 0 

SPACING 0.1 0.1 0.1 

POINT_DATA 3366

VECTORS velocity float
0 0 0
4.6145e-15 0 0
-6.69239e-10 0 0
-2.3613e-09 0 0
-3.94499e-09 0 0
-1.52836e-09 0 0
-5.72747e-10 0 0
-1.00528e-11 0 0
1.45531e-10 0 0
-3.35273e-10 0 0
-1.08338e-09 0 0
-1.65024e-09 0 0
-1.88145e-09 0 0
-1.87689e-09 0 0
-1.79484e-09 0 0
-1.73278e-09 0 0
-1.71409e-09 0 0
-1.72562e-09 0 0
-1.74914e-09 0 0
-1.77289e-09 0 0
-1.79189e-09 0 0
-1.8052e-09 0 0
-1.81366e-09 0 0
-1.81856e-09 0 0
-1.82112e-09 0 0
-1.82223e-09 0 0
-1.82253e-09 0 0
-1.82242e-09 0 0
-1.82212e-09 0 0
-1.82178e-09 0 0
-1.82145e-09 0 0
-1.82117e-09 0 0
-1.82093e-09 0 0
-1.82075e-09 0 0
-1.82061e-09 0 0
-1.8205e-09 0 0
-1.82042e-09 0 0
-1.82036e-09 0 0
-1.82031e-09 0 0
-1.82028e-09 0 0
-1.82026e-09 0 0
-1.82024e-09 0 0
-1.82023e-09 0 0
-1.82022e-09 0 0
-1.82021e-09 0 0
-1.82021e-09 0 0
-1.8202e-09 0 0
-1.8202e-09 0 0
-1.8202e-09 0 0
-1.8202e-09 0 0
0.00239886 0 0
0 6.65997e-09 0
1.52602e-14 1.90948e-10 0
-1.09389e-09 6.33541e-10 0
-4.2398e-09 9.71724e-10 0
-6.59113e-09 6.63005e-10 0
-2.72723e-09 9.36059e-10 0
-1.66582e-09 1.66376e-09 0
-1.06502e-09 1.37693e-09 0
-4.4366e-10 1.03586e-09 0
-7.54208e-10 1.0741e-09 0
-1.76866e-09 9.9878e-10 0
-2.7148e-09 6.86646e-10 0
-3.17864e-09 3.07922e-10 0
-3.2566e-09 5.04496e-11 0
-3.22665e-09 -4.05905e-11 0
-3.25338e-09 -3.12387e-11 0
-3.35189e-09 2.36807e-12 0
-3.4795e-09 2.45481e-11 0
-3.59894e-09 3.08872e-11 0
-3.69319e-09 2.75712e-11 0
-3.75989e-09 2.06996e-11 0
-3.80345e-09 1.37806e-11 0
-3.83002e-09 8.23391e-12 0
-3.84516e-09 4.32447e-12 0
-3.85311e-09 1.82319e-12 0
-3.85678e-09 3.64384e-13 0
-3.85808e-09 -3.94756e-13 0
-3.85816e-09 -7.20794e-13 0
-3.85769e-09 -7.99916e-13 0
-3.85702e-09 -7.52275e-13 0
-3.85635e-09 -6.50129e-13 0
-3.85575e-09 -5.33781e-13 0
-3.85526e-09 -4.23587e-13 0
-3.85486e-09 -3.28216e-13 0
-3.85456e-09 -2.49953e-13 0
-3.85433e-09 -1.87924e-13 0
-3.85415e-09 -1.39927e-13 0
-3.85402e-09 -1.0342e-13 0
-3.85393e-09 -7.59994e-14 0
-3.85386e-09 -5.55912e-14 0
-3.85381e-09 -4.05047e-14 0
-3.85377e-09 -2.9403e-14 0
-3.85374e-09 -2.12547e-14 0
-3.85373e-09 -1.52777e-14 0
-3.85371e-09 -1.08821e-14 0
-3.8537e-09 -7.61232e-15 0
-3.8537e-09 -5.12378e-15 0
-3.85369e-09 -3.15154e-15 0
-3.85369e-09 -7.6337e-16 0
-3.85369e-09 4.37811e-15 0
0.00662 -2.15764e-09 0
0 2.37379e-11 0
2.37113e-14 2.17658e-10 0
-1.36689e-10 -2.04522e-11 0
-2.40054e-09 -1.42351e-09 0
-3.14072e-09 -2.3104e-09 0
-3.48573e-10 -2.15518e-10 0
-1.55064e-09 2.26232e-09 0
-2.06153e-09 1.86527e-09 0
-1.58742e-09 6.6454e-10 0
-1.22952e-09 1.7628e-10 0
-1.73039e-09 9.01603e-11 0
-2.40125e-09 3.02885e-10 0
-2.7669e-09 5.99885e-10 0
-2.79038e-09 7.40409e-10 0
-2.72085e-09 7.05997e-10 0
-2.73792e-09 5.90062e-10 0
-2.85254e-09 4.57217e-10 0
-3.00547e-09 3.34616e-10 0
-3.14689e-09 2.32725e-10 0
-3.2554e-09 1.54293e-10 0
-3.32936e-09 9.76004e-11 0
-3.37554e-09 5.87607e-11 0
-3.40222e-09 3.34028e-11 0
-3.41643e-09 1.75984e-11 0
-3.4232e-09 8.21711e-12 0
-3.42583e-09 2.95564e-12 0
-3.42631e-09 2.19015e-13 0
-3.42582e-09 -1.04274e-12 0
-3.42496e-09 -1.49004e-12 0
-3.42405e-09 -1.52022e-12 0
-3.42323e-09 -1.36139e-12 0
-3.42254e-09 -1.13742e-12 0
-3.422e-09 -9.10654e-13 0
-3.42157e-09 -7.08723e-13 0
-3.42125e-09 -5.40765e-13 0
-3.42102e-09 -4.06772e-13 0
-3.42084e-09 -3.02788e-13 0
-3.42071e-09 -2.23619e-13 0
-3.42061e-09 -1.64161e-13 0
-3.42055e-09 -1.19941e-13 0
-3.4205e-09 -8.72837e-14 0
-3.42046e-09 -6.32766e-14 0
-3.42043e-09 -4.56692e-14 0
-3.42041e-09 -3.27451e-14 0
-3.4204e-09 -2.32082e-14 0
-3.42039e-09 -1.60529e-14 0
-3.42039e-09 -1.03099e-14 0
-3.42038e-09 -4.89471e-15 0
-3.42038e-09 6.51276e-16 0
-3.42038e-09 6.07446e-15 0
0.00896737 -3.31868e-09 0
0 -9.5442e-09 0
2.4973e-14 -1.91574e-10 0
7.02396e-10 -1.30687e-09 0
-1.08046e-09 -3.54625e-09 0
-1.96451e-09 -4.72907e-09 0
8.50295e-10 -2.29814e-09 0
-4.5757e-10 -3.07734e-14 0
-1.00656e-09 -5.51444e-10 0
-2.11829e-09 -1.59828e-09 0
-2.2648e-09 -1.96408e-09 0
-2.721e-09 -1.38914e-09 0
-3.29871e-09 -3.15214e-10 0
-3.52938e-09 6.81151e-10 0
-3.33117e-09 1.10259e-09 0
-2.93838e-09 1.0735e-09 0
-2.6136e-09 8.8047e-10 0
-2.44663e-09 6.66438e-10 0
-2.39935e-09 4.75186e-10 0
-2.40735e-09 3.19984e-10 0
-2.42843e-09 2.0361e-10 0
-2.4452e-09 1.22266e-10 0
-2.45414e-09 6.88039e-11 0
-2.45694e-09 3.55866e-11 0
-2.45613e-09 1.60718e-11 0
-2.4537e-09 5.3085e-12 0
-2.45086e-09 -1.51709e-13 0
-2.44821e-09 -2.56544e-12 0
-2.44598e-09 -3.33364e-12 0
-2.44422e-09 -3.28458e-12 0
-2.44287e-09 -2.88369e-12 0
-2.44187e-09 -2.3771e-12 0
-2.44114e-09 -1.8843e-12 0
-2.4406e-09 -1.45517e-12 0
-2.44021e-09 -1.10347e-12 0
-2.43994e-09 -8.25895e-13 0
-2.43974e-09 -6.12245e-13 0
-2.43959e-09 -4.50641e-13 0
-2.43949e-09 -3.29915e-13 0
-2.43942e-09 -2.40534e-13 0
-2.43937e-09 -1.74786e-13 0
-2.43933e-09 -1.26637e-13 0
-2.4393e-09 -9.14681e-14 0
-2.43928e-09 -6.57965e-14 0
-2.43927e-09 -4.70037e-14 0
-2.43926e-09 -3.30904e-14 0
-2.43925e-09 -2.25237e-14 0
-2.43925e-09 -1.42693e-14 0
-2.43925e-09 -7.71471e-15 0
-2.43924e-09 -2.20045e-15 0
-2.43924e-09 3.01928e-15 0
0.00960802 -2.6427e-09 0
0 -1.83906e-08 0
8.49726e-15 -7.84567e-10 0
3.21017e-10 -2.262e-09 0
-1.61532e-09 -3.13796e-09 0
-3.2866e-09 -2.55849e-09 0
-1.55638e-14 -8.97983e-10 0
-1.29436e-13 -1.55724e-13 0
1.30795e-13 -1.46905e-13 0
-1.12006e-09 -1.2182e-09 0
-3.00747e-09 -2.49544e-09 0
-3.55753e-09 -1.86865e-09 0
-3.94067e-09 -4.24883e-10 0
-4.18307e-09 6.95722e-10 0
-4.0434e-09 1.03979e-09 0
-3.56355e-09 9.01535e-10 0
-3.01323e-09 6.7797e-10 0
-2.59978e-09 4.91189e-10 0
-2.35442e-09 3.3991e-10 0
-2.22279e-09 2.18072e-10 0
-2.15068e-09 1.26914e-10 0
-2.10706e-09 6.50754e-11 0
-2.07799e-09 2.70287e-11 0
-2.05763e-09 5.85061e-12 0
-2.04324e-09 -4.56079e-12 0
-2.0332e-09 -8.69315e-12 0
-2.0263e-09 -9.48777e-12 0
-2.02165e-09 -8.71217e-12 0
-2.01854e-09 -7.34868e-12 0
-2.01649e-09 -5.89794e-12 0
-2.01513e-09 -4.58519e-12 0
-2.01424e-09 -3.48876e-12 0
-2.01365e-09 -2.61496e-12 0
-2.01326e-09 -1.93914e-12 0
-2.013e-09 -1.42689e-12 0
-2.01282e-09 -1.04403e-12 0
-2.0127e-09 -7.60731e-13 0
-2.01262e-09 -5.52599e-13 0
-2.01256e-09 -4.00479e-13 0
-2.01252e-09 -2.89709e-13 0
-2.0125e-09 -2.09252e-13 0
-2.01248e-09 -1.50899e-13 0
-2.01246e-09 -1.08592e-13 0
-2.01246e-09 -7.78742e-14 0
-2.01245e-09 -5.54884e-14 0
-2.01244e-09 -3.90861e-14 0
-2.01244e-09 -2.69879e-14 0
-2.01244e-09 -1.79475e-14 0
-2.01244e-09 -1.09795e-14 0
-2.01243e-09 -5.19863e-15 0
-2.01243e-09 2.10897e-16 0
0.00974344 -1.19741e-09 0
0 -1.64089e-08 0
-2.30101e-15 -8.50206e-10 0
-1.98965e-10 -1.87798e-09 0
-2.05999e-09 -2.52507e-09 0
-4.08488e-09 -2.87751e-09 0
-1.78514e-09 -1.38021e-09 0
-1.28111e-13 1.23313e-13 0
7.48794e-15 -7.48794e-15 0
1.20053e-13 -1.4156e-13 0
-1.55326e-09 -1.17482e-09 0
-3.18297e-09 -1.86651e-09 0
-3.31538e-09 -3.92009e-10 0
-3.8591e-09 9.83577e-10 0
-4.30682e-09 1.20772e-09 0
-4.14119e-09 8.05307e-10 0
-3.52809e-09 4.18627e-10 0
-2.91416e-09 2.01111e-10 0
-2.49578e-09 8.55544e-11 0
-2.25291e-09 1.7422e-11 0
-2.11676e-09 -2.1761e-11 0
-2.03834e-09 -3.98119e-11 0
-1.99151e-09 -4.389e-11 0
-1.96297e-09 -4.03843e-11 0
-1.94555e-09 -3.38032e-11 0
-1.935e-09 -2.67407e-11 0
-1.9287e-09 -2.04132e-11 0
-1.92499e-09 -1.52289e-11 0
-1.92284e-09 -1.11935e-11 0
-1.92162e-09 -8.14916e-12 0
-1.92093e-09 -5.89722e-12 0
-1.92055e-09 -4.25193e-12 0
-1.92035e-09 -3.05913e-12 0
-1.92024e-09 -2.19845e-12 0
-1.92019e-09 -1.57912e-12 0
-1.92017e-09 -1.13414e-12 0
-1.92016e-09 -8.1465e-13 0
-1.92015e-09 -5.85294e-13 0
-1.92015e-09 -4.20618e-13 0
-1.92016e-09 -3.02331e-13 0
-1.92016e-09 -2.17311e-13 0
-1.92016e-09 -1.56144e-13 0
-1.92016e-09 -1.12078e-13 0
-1.92016e-09 -8.02743e-14 0
-1.92016e-09 -5.72573e-14 0
-1.92016e-09 -4.05174e-14 0
-1.92016e-09 -2.82353e-14 0
-1.92016e-09 -1.9112e-14 0
-1.92016e-09 -1.2207e-14 0
-1.92016e-09 -6.69064e-15 0
-1.92017e-09 -1.72784e-15 0
0.00976331 3.95797e-10 0
0 -1.15398e-08 0
1.52593e-15 -7.35523e-10 0
-2.68071e-10 -1.75453e-09 0
-2.06021e-09 -1.94066e-09 0
-4.41289e-09 -1.60896e-09 0
-4.0052e-09 -9.4716e-10 0
-1.15764e-09 -2.59851e-10 0
-1.25482e-13 1.21155e-13 0
-1.10226e-15 1.10226e-15 0
1.04268e-13 -1.35856e-13 0
-1.30134e-09 -6.85617e-10 0
-1.47722e-09 2.10851e-11 0
-2.39741e-09 1.86003e-09 0
-3.82809e-09 1.85605e-09 0
-4.42274e-09 8.96934e-10 0
-3.96075e-09 1.48196e-10 0
-3.19717e-09 -1.5933e-10 0
-2.62752e-09 -2.3104e-10 0
-2.30778e-09 -2.20862e-10 0
-2.14863e-09 -1.8627e-10 0
-2.0726e-09 -1.46403e-10 0
-2.03676e-09 -1.09444e-10 0
-2.0202e-09 -7.89598e-11 0
-2.0129e-09 -5.56479e-11 0
-2.01005e-09 -3.86802e-11 0
-2.00924e-09 -2.67064e-11 0
-2.00934e-09 -1.84071e-11 0
-2.00977e-09 -1.27057e-11 0
-2.01027e-09 -8.80007e-12 0
-2.01074e-09 -6.12153e-12 0
-2.01114e-09 -4.27814e-12 0
-2.01146e-09 -3.00351e-12 0
-2.01171e-09 -2.11757e-12 0
-2.0119e-09 -1.49861e-12 0
-2.01204e-09 -1.06407e-12 0
-2.01215e-09 -7.57657e-13 0
-2.01223e-09 -5.40758e-13 0
-2.01228e-09 -3.86699e-13 0
-2.01232e-09 -2.7695e-13 0
-2.01235e-09 -1.9856e-13 0
-2.01237e-09 -1.42435e-13 0
-2.01239e-09 -1.02153e-13 0
-2.0124e-09 -7.3163e-14 0
-2.01241e-09 -5.22245e-14 0
-2.01242e-09 -3.70247e-14 0
-2.01242e-09 -2.59112e-14 0
-2.01242e-09 -1.77232e-14 0
-2.01242e-09 -1.16827e-14 0
-2.01243e-09 -7.17465e-15 0
-2.01243e-09 -3.44015e-15 0
0.00974344 1.91997e-09 0
0 -8.16272e-09 0
3.38589e-15 -6.4634e-10 0
-4.19944e-10 -1.48491e-09 0
-2.25318e-09 -1.50411e-09 0
-4.28709e-09 -8.67186e-10 0
-4.3478e-09 -2.76131e-10 0
-2.77608e-09 -4.76028e-10 0
-1.32059e-09 -4.01544e-10 0
-1.31318e-13 1.11008e-13 0
9.9765e-14 1.13248e-13 0
-8.78353e-15 -3.56213e-10 0
-6.13953e-10 8.65442e-10 0
-7.11999e-10 2.96824e-09 0
-1.91361e-09 2.70351e-09 0
-3.31004e-09 1.08737e-09 0
-3.64676e-09 -8.00408e-11 0
-3.24136e-09 -4.70181e-10 0
-2.78667e-09 -4.77942e-10 0
-2.52357e-09 -3.81074e-10 0
-2.41567e-09 -2.77307e-10 0
-2.38638e-09 -1.92029e-10 0
-2.38779e-09 -1.28979e-10 0
-2.39796e-09 -8.51679e-11 0
-2.40861e-09 -5.58694e-11 0
-2.4173e-09 -3.66856e-11 0
-2.42378e-09 -2.42308e-11 0
-2.4284e-09 -1.61428e-11 0
-2.43164e-09 -1.08599e-11 0
-2.4339e-09 -7.37827e-12 0
-2.43548e-09 -5.05968e-12 0
-2.43658e-09 -3.49904e-12 0
-2.43735e-09 -2.43776e-12 0
-2.43789e-09 -1.70924e-12 0
-2.43828e-09 -1.20494e-12 0
-2.43855e-09 -8.533e-13 0
-2.43875e-09 -6.06558e-13 0
-2.43888e-09 -4.32499e-13 0
-2.43898e-09 -3.09159e-13 0
-2.43905e-09 -2.21423e-13 0
-2.4391e-09 -1.5881e-13 0
-2.43914e-09 -1.13993e-13 0
-2.43917e-09 -8.18243e-14 0
-2.43918e-09 -5.86663e-14 0
-2.4392e-09 -4.19391e-14 0
-2.43921e-09 -2.98101e-14 0
-2.43921e-09 -2.09747e-14 0
-2.43922e-09 -1.45193e-14 0
-2.43922e-09 -9.91873e-15 0
-2.43922e-09 -7.01196e-15 0
-2.43923e-09 -5.40583e-15 0
0.00960802 3.13191e-09 0
0 -7.19189e-09 0
6.77823e-15 -4.88258e-10 0
-7.41911e-10 -1.16499e-09 0
-2.72869e-09 -1.18036e-09 0
-4.52937e-09 -6.17348e-10 0
-4.65395e-09 4.52946e-11 0
-3.47301e-09 -9.37665e-11 0
-2.70148e-09 -1.2524e-09 0
-1.39142e-09 -9.99618e-10 0
-1.55606e-09 2.40774e-17 0
-3.27071e-09 5.1844e-10 0
-4.28691e-09 1.53876e-09 0
-2.11402e-09 2.34965e-09 0
-8.00219e-10 2.17814e-09 0
-1.92604e-09 1.06298e-09 0
-3.16655e-09 9.0408e-11 0
-3.46248e-09 -3.2327e-10 0
-3.3554e-09 -3.66292e-10 0
-3.26742e-09 -2.83125e-10 0
-3.25816e-09 -1.92333e-10 0
-3.28686e-09 -1.24616e-10 0
-3.3222e-09 -7.9698e-11 0
-3.35193e-09 -5.11393e-11 0
-3.37377e-09 -3.31787e-11 0
-3.38888e-09 -2.18273e-11 0
-3.39907e-09 -1.45617e-11 0
-3.40588e-09 -9.83914e-12 0
-3.41044e-09 -6.72229e-12 0
-3.41351e-09 -4.63646e-12 0
-3.4156e-09 -3.22357e-12 0
-3.41703e-09 -2.25648e-12 0
-3.41801e-09 -1.58858e-12 0
-3.4187e-09 -1.12377e-12 0
-3.41918e-09 -7.98183e-13 0
-3.41952e-09 -5.68842e-13 0
-3.41976e-09 -4.06531e-13 0
-3.41993e-09 -2.91201e-13 0
-3.42006e-09 -2.08972e-13 0
-3.42014e-09 -1.50175e-13 0
-3.4202e-09 -1.08025e-13 0
-3.42025e-09 -7.77397e-14 0
-3.42028e-09 -5.59319e-14 0
-3.4203e-09 -4.01921e-14 0
-3.42032e-09 -2.88045e-14 0
-3.42033e-09 -2.05485e-14 0
-3.42034e-09 -1.45658e-14 0
-3.42035e-09 -1.02538e-14 0
-3.42035e-09 -7.324e-15 0
-3.42035e-09 -6.1691e-15 0
-3.42036e-09 -7.19256e-15 0
0.00896737 3.39586e-09 0
0 -7.58967e-09 0
9.14539e-15 -2.46184e-10 0
-1.03451e-09 -6.15806e-10 0
-2.95254e-09 -6.1502e-10 0
-4.40168e-09 -3.35216e-10 0
-4.72247e-09 -2.23479e-10 0
-3.98496e-09 -4.70832e-10 0
-3.47592e-09 -1.17248e-09 0
-3.82786e-09 -8.65306e-10 0
-3.58993e-09 1.08423e-09 0
-4.22258e-09 2.48081e-09 0
-3.87645e-09 1.69114e-09 0
-2.04634e-09 -2.23703e-10 0
-1.1698e-09 -1.23893e-09 0
-2.37573e-09 -1.04658e-09 0
-3.67709e-09 -3.74997e-10 0
-4.04122e-09 8.25349e-11 0
-3.94348e-09 1.90527e-10 0
-3.82259e-09 1.3758e-10 0
-3.77254e-09 6.83279e-11 0
-3.76907e-09 2.43931e-11 0
-3.78336e-09 3.38785e-12 0
-3.80058e-09 -4.51134e-12 0
-3.81536e-09 -6.3605e-12 0
-3.8266e-09 -5.88556e-12 0
-3.8347e-09 -4.75576e-12 0
-3.84039e-09 -3.61776e-12 0
-3.84436e-09 -2.67145e-12 0
-3.84712e-09 -1.9433e-12 0
-3.84905e-09 -1.40319e-12 0
-3.8504e-09 -1.00977e-12 0
-3.85134e-09 -7.25751e-13 0
-3.85201e-09 -5.21535e-13 0
-3.85248e-09 -3.74925e-13 0
-3.85282e-09 -2.69693e-13 0
-3.85306e-09 -1.94126e-13 0
-3.85323e-09 -1.39819e-13 0
-3.85336e-09 -1.00756e-13 0
-3.85345e-09 -7.26332e-14 0
-3.85351e-09 -5.23659e-14 0
-3.85355e-09 -3.77457e-14 0
-3.85359e-09 -2.71872e-14 0
-3.85361e-09 -1.95534e-14 0
-3.85363e-09 -1.40279e-14 0
-3.85364e-09 -1.00285e-14 0
-3.85365e-09 -7.15099e-15 0
-3.85366e-09 -5.1216e-15 0
-3.85366e-09 -3.82014e-15 0
-3.85366e-09 -3.69514e-15 0
-3.85367e-09 -5.66451e-15 0
0.00662001 1.91069e-09 0
0 0 0
5.33629e-15 0 0
-5.50019e-10 0 0
-1.41992e-09 0 0
-2.01474e-09 0 0
-2.19624e-09 0 0
-2.1304e-09 0 0
-2.09502e-09 0 0
-2.43645e-09 0 0
-2.03388e-09 0 0
-9.51881e-10 0 0
-6.29918e-11 0 0
1.73981e-11 0 0
-6.39017e-10 0 0
-1.56396e-09 0 0
-2.10769e-09 0 0
-2.16919e-09 0 0
-2.03636e-09 0 0
-1.91133e-09 0 0
-1.84083e-09 0 0
-1.8111e-09 0 0
-1.80256e-09 0 0
-1.80283e-09 0 0
-1.80589e-09 0 0
-1.80927e-09 0 0
-1.81215e-09 0 0
-1.81437e-09 0 0
-1.81601e-09 0 0
-1.8172e-09 0 0
-1.81805e-09 0 0
-1.81866e-09 0 0
-1.8191e-09 0 0
-1.81941e-09 0 0
-1.81963e-09 0 0
-1.81979e-09 0 0
-1.8199e-09 0 0
-1.81998e-09 0 0
-1.82004e-09 0 0
-1.82008e-09 0 0
-1.82011e-09 0 0
-1.82014e-09 0 0
-1.82015e-09 0 0
-1.82016e-09 0 0
-1.82017e-09 0 0
-1.82018e-09 0 0
-1.82018e-09 0 0
-1.82019e-09 0 0
-1.82019e-09 0 0
-1.82019e-09 0 0
-1.82019e-09 0 0
0.00239886 0 0
0 0 8.51261e-09
2.10842e-14 0 4.78291e-10
-9.53128e-10 0 1.72777e-09
-4.53543e-09 0 2.30402e-09
-1.06756e-08 0 -1.49595e-09
-3.91254e-09 0 -4.3083e-09
-7.29677e-10 0 -3.18206e-09
1.25344e-09 0 -2.0952e-09
2.11806e-09 0 -7.10636e-10
1.61857e-09 0 1.54815e-10
2.81696e-10 0 3.16188e-10
-1.12344e-09 0 1.11418e-10
-2.13507e-09 0 -8.12703e-11
-2.70748e-09 0 -1.37055e-10
-3.00389e-09 0 -1.03519e-10
-3.19622e-09 0 -4.95104e-11
-3.36552e-09 0 -9.53384e-12
-3.52156e-09 0 1.04952e-11
-3.65312e-09 0 1.63848e-11
-3.75348e-09 0 1.5184e-11
-3.82388e-09 0 1.16103e-11
-3.86999e-09 0 7.98548e-12
-3.89839e-09 0 5.12775e-12
-3.91482e-09 0 3.13464e-12
-3.92366e-09 0 1.84445e-12
-3.92792e-09 0 1.051e-12
-3.92959e-09 0 5.81505e-13
-3.92989e-09 0 3.1233e-13
-3.92953e-09 0 1.62287e-13
-3.92893e-09 0 8.09221e-14
-3.92829e-09 0 3.80916e-14
-3.9277e-09 0 1.63313e-14
-3.9272e-09 0 5.78521e-15
-3.9268e-09 0 1.02533e-15
-3.92649e-09 0 -8.64318e-16
-3.92625e-09 0 -1.40786e-15
-3.92607e-09 0 -1.37543e-15
-3.92593e-09 0 -1.13957e-15
-3.92583e-09 0 -8.67185e-16
-3.92576e-09 0 -6.24534e-16
-3.92571e-09 0 -4.308e-16
-3.92567e-09 0 -2.82977e-16
-3.92564e-09 0 -1.6988e-16
-3.92562e-09 0 -7.83866e-17
-3.9256e-09 0 7.15839e-18
-3.92559e-09 0 1.15182e-16
-3.92559e-09 0 2.49174e-16
-3.92558e-09 0 3.34187e-16
-3.92558e-09 0 9.42519e-16
-3.92559e-09 0 4.33984e-15
0.00660282 0 -1.4828e-09
0.0036 -2.40568e-09 6.04738e-10
0.0036 -0.0012992 -3.12658e-05
0.00689462 -0.00410172 -0.000397538
0.0141348 -0.00736887 -0.00201908
0.0252526 -0.0140335 -0.00516561
0.0462162 -0.0111191 -0.00465762
0.0491792 -0.000968307 -0.00134887
0.0486874 0.00319117 0.000217953
0.0434483 0.00533342 0.000837354
0.0377845 0.00529513 0.000568888
0.0327517 0.00437058 6.25183e-05
0.0285755 0.00323801 -0.00029543
0.025336 0.00221631 -0.000399055
0.0230015 0.00144141 -0.000325684
0.021413 0.000920821 -0.000200897
0.0203694 0.000589646 -0.000100342
0.0197007 0.000377949 -4.09075e-05
0.0192819 0.000240005 -1.23278e-05
0.0190259 0.000149767 -9.773e-07
0.0188729 9.14754e-05 2.40002e-06
0.0187839 5.4596e-05 2.6853e-06
0.0187333 3.17992e-05 2.06109e-06
0.0187055 1.80341e-05 1.35658e-06
0.0186907 9.91572e-06 8.13162e-07
0.0186833 5.24353e-06 4.52794e-07
0.0186798 2.62626e-06 2.34129e-07
0.0186784 1.20623e-06 1.09963e-07
0.0186781 4.66937e-07 4.36594e-08
0.0186782 1.04204e-07 1.06808e-08
0.0186784 -5.70327e-08 -4.10094e-09
0.0186788 -1.15103e-07 -9.49155e-09
0.018679 -1.23709e-07 -1.03778e-08
0.0186793 -1.11172e-07 -9.34669e-09
0.0186795 -9.17345e-08 -7.69321e-09
0.0186796 -7.2049e-08 -6.01589e-09
0.0186797 -5.48252e-08 -4.55423e-09
0.0186798 -4.08289e-08 -3.37321e-09
0.0186798 -2.99449e-08 -2.46041e-09
0.0186799 -2.17203e-08 -1.77485e-09
0.0186799 -1.5627e-08 -1.27009e-09
0.0186799 -1.11765e-08 -9.04012e-10
0.0186799 -7.95972e-09 -6.42229e-10
0.01868 -5.65367e-09 -4.58608e-10
0.01868 -4.01215e-09 -3.34842e-10
0.01868 -2.85066e-09 -2.57341e-10
0.01868 -2.03614e-09 -2.17713e-10
0.01868 -1.48913e-09 -2.13572e-10
0.01868 -1.1301e-09 -1.48032e-10
0.01868 -1.36579e-09 -2.39623e-10
0.01868 -4.34162e-09 -2.39612e-09
0.01868 -6.93575e-09 -4.38877e-09
0.01 -1.36289e-09 -1.97439e-08
0.01 -0.00310518 -0.000505536
0.0149754 -0.010228 -0.00110968
0.0240108 -0.0181938 -0.00257412
0.0373469 -0.0304767 -0.00414714
0.0570277 -0.021691 -0.00114399
0.0549405 -0.0016244 0.00222959
0.0549601 0.00575305 0.0025363
0.0494301 0.0106441 0.00235008
0.0439385 0.0106258 0.00142391
0.0392909 0.00939454 0.000348818
0.035272 0.00772048 -0.000359465
0.0320453 0.00585589 -0.000601104
0.0297413 0.00411565 -0.000520579
0.028207 0.00273643 -0.000330766
0.0272234 0.00175737 -0.000168983
0.0266108 0.00110153 -7.0776e-05
0.0262405 0.000675998 -2.24567e-05
0.0260239 0.000406296 -2.64759e-06
0.0259017 0.000239002 3.66527e-06
0.0258355 0.000137395 4.55514e-06
0.0258012 7.69695e-05 3.71361e-06
0.0257847 4.18026e-05 2.59919e-06
0.0257775 2.18064e-05 1.67816e-06
0.0257751 1.07336e-05 1.02994e-06
0.0257749 4.79744e-06 6.10094e-07
0.0257756 1.74935e-06 3.51791e-07
0.0257766 2.81388e-07 1.98431e-07
0.0257775 -3.5097e-07 1.09777e-07
0.0257783 -5.61542e-07 5.96206e-08
0.025779 -5.7394e-07 3.17674e-08
0.0257795 -5.0472e-07 1.65652e-08
0.0257799 -4.1163e-07 8.41117e-09
0.0257802 -3.21042e-07 4.12018e-09
0.0257804 -2.43223e-07 1.91275e-09
0.0257805 -1.8062e-07 8.10153e-10
0.0257806 -1.3223e-07 2.82047e-10
0.0257807 -9.57982e-08 4.54203e-11
0.0257807 -6.88683e-08 -4.8207e-11
0.0257808 -4.92239e-08 -7.52303e-11
0.0257808 -3.50349e-08 -7.41452e-11
0.0257808 -2.48648e-08 -6.39725e-11
0.0257808 -1.76222e-08 -5.40632e-11
0.0257808 -1.24993e-08 -5.01356e-11
0.0257808 -8.91466e-09 -5.38438e-11
0.0257809 -6.45595e-09 -5.39207e-11
0.0257809 -4.94202e-09 -5.21224e-11
0.0257809 -4.69211e-09 -5.17981e-12
0.0257809 -6.05925e-09 -2.96485e-10
0.0257809 -8.9439e-09 -3.49607e-09
0.0257809 -1.07347e-08 -6.35577e-09
0.0148 -1.48212e-08 -2.47397e-08
0.0148 -0.0053131 -0.00104759
0.0199911 -0.0161916 -0.0026097
0.0263068 -0.0276235 -0.00461273
0.0307512 -0.0433615 -0.00531933
0.0292343 -0.0266167 -0.000851911
0.0262042 -1.7441e-07 0.0025577
0.026189 0.00742808 0.00259298
0.0305569 0.0154354 0.0025071
0.0309051 0.0151507 0.00158316
0.029751 0.0132735 0.00057332
0.0285932 0.0109346 -0.000143837
0.0277858 0.00817517 -0.000415795
0.0274859 0.00557919 -0.000387
0.0274473 0.00360547 -0.000241179
0.0274886 0.00226096 -0.000108433
0.0275403 0.00138661 -2.85204e-05
0.0275874 0.000831077 7.10766e-06
0.0276286 0.000485563 1.74661e-05
0.0276636 0.000275811 1.68272e-05
0.0276922 0.00015175 1.2852e-05
0.0277145 8.03235e-05 8.7792e-06
0.0277311 4.03601e-05 5.61127e-06
0.0277431 1.87125e-05 3.43034e-06
0.0277516 7.44899e-06 2.03044e-06
0.0277575 1.90898e-06 1.1721e-06
0.0277615 -5.78262e-07 6.62697e-07
0.0277642 -1.50478e-06 3.67805e-07
0.027766 -1.68118e-06 2.00498e-07
0.0277672 -1.53325e-06 1.07224e-07
0.0277681 -1.27473e-06 5.60707e-08
0.0277687 -1.00578e-06 2.84843e-08
0.027769 -7.67769e-07 1.38852e-08
0.0277693 -5.73148e-07 6.33621e-09
0.0277695 -4.21179e-07 2.55312e-09
0.0277696 -3.05987e-07 7.43559e-10
0.0277697 -2.20425e-07 -5.67968e-11
0.0277698 -1.57783e-07 -3.58542e-10
0.0277698 -1.12404e-07 -4.26734e-10
0.0277698 -7.97918e-08 -3.95422e-10
0.0277698 -5.64997e-08 -3.29978e-10
0.0277699 -3.99502e-08 -2.60629e-10
0.0277699 -2.82515e-08 -1.99817e-10
0.0277699 -2.00368e-08 -1.50257e-10
0.0277699 -1.43558e-08 -1.09175e-10
0.0277699 -1.06415e-08 -7.5263e-11
0.0277699 -8.56259e-09 -8.42315e-11
0.0277699 -7.7602e-09 -1.73025e-10
0.0277699 -7.93241e-09 -8.0836e-10
0.0277699 -8.5867e-09 -4.18929e-09
0.0277699 -8.93305e-09 -6.9998e-09
0.018 -3.06465e-08 -2.66686e-08
0.018 -0.00665727 -0.00187935
0.0203423 -0.0178259 -0.00503539
0.0201172 -0.0233321 -0.00664064
0.0159035 -0.0254563 -0.00710369
-2.09217e-08 -0.013293 -0.00361911
1.55345e-06 4.81142e-07 1.18101e-08
-5.76432e-07 6.04922e-07 0.000489279
0.00716947 0.0048539 0.00102063
0.0149964 0.0110414 0.000903614
0.0184206 0.0118068 0.000481702
0.020039 0.0100074 3.3889e-06
0.0217558 0.00729079 -0.000270866
0.0235329 0.00468871 -0.000287861
0.0250479 0.00286062 -0.000181086
0.0261646 0.00171347 -6.83478e-05
0.0269154 0.00101021 2.21689e-06
0.0273975 0.000578971 3.07531e-05
0.0277016 0.000318129 3.42708e-05
0.0278919 0.00016529 2.77553e-05
0.0280102 7.94479e-05 1.94438e-05
0.0280832 3.35557e-05 1.25217e-05
0.0281277 1.04572e-05 7.63121e-06
0.0281547 -2.13238e-07 4.4712e-06
0.0281709 -4.43603e-06 2.54127e-06
0.0281806 -5.51755e-06 1.40783e-06
0.0281864 -5.2094e-06 7.61449e-07
0.0281899 -4.39499e-06 4.01556e-07
0.0281919 -3.49092e-06 2.05436e-07
0.0281932 -2.67266e-06 1.00847e-07
0.0281939 -1.99729e-06 4.64219e-08
0.0281943 -1.46784e-06 1.89765e-08
0.0281946 -1.06595e-06 5.74938e-09
0.0281948 -7.67371e-07 -1.67643e-10
0.0281949 -5.48849e-07 -2.45034e-09
0.028195 -3.90637e-07 -3.01577e-09
0.028195 -2.76999e-07 -2.8383e-09
0.028195 -1.95863e-07 -2.39526e-09
0.028195 -1.38199e-07 -1.90728e-09
0.0281951 -9.73648e-08 -1.46598e-09
0.0281951 -6.85356e-08 -1.10088e-09
0.0281951 -4.82412e-08 -8.13368e-10
0.0281951 -3.40095e-08 -5.9422e-10
0.0281951 -2.41059e-08 -4.33201e-10
0.0281951 -1.73188e-08 -3.23353e-10
0.0281951 -1.27594e-08 -2.75105e-10
0.0281951 -9.74508e-09 -3.43769e-10
0.0281951 -7.72291e-09 -5.2974e-10
0.0281951 -6.3423e-09 -1.29043e-09
0.0281951 -5.22641e-09 -4.50135e-09
0.0281951 -4.66345e-09 -7.06341e-09
0.0196 -4.06163e-08 -4.10835e-08
0.0196 -0.00537546 -0.00272247
0.019112 -0.0121134 -0.00652689
0.0161808 -0.0147454 -0.00699611
0.0113419 -0.0134748 -0.00664984
0.0021719 -0.00546743 -0.00444226
1.17369e-06 -1.07997e-06 -0.000984079
5.03535e-07 -5.03535e-07 -6.62316e-10
-5.62047e-07 5.90816e-07 0.000150211
0.0048055 0.00365621 0.000309413
0.0109656 0.00820015 0.000247645
0.0137555 0.00773121 -2.18827e-05
0.0170344 0.00488546 -0.000294111
0.0203215 0.00246284 -0.000347079
0.0230843 0.00107702 -0.000259371
0.0250824 0.000430809 -0.000128041
0.0263747 0.000151798 -2.77602e-05
0.02716 2.77639e-05 2.02685e-05
0.0276245 -2.73505e-05 3.17334e-05
0.0278961 -4.74074e-05 2.72072e-05
0.0280534 -4.93915e-05 1.89907e-05
0.0281436 -4.33003e-05 1.1907e-05
0.0281948 -3.47553e-05 6.98502e-06
0.0282235 -2.649e-05 3.91019e-06
0.0282394 -1.95517e-05 2.10827e-06
0.0282481 -1.41386e-05 1.09751e-06
0.0282528 -1.00912e-05 5.49384e-07
0.0282553 -7.14245e-06 2.60951e-07
0.0282567 -5.02878e-06 1.13884e-07
0.0282573 -3.52903e-06 4.17854e-08
0.0282576 -2.47163e-06 8.42087e-09
0.0282578 -1.72902e-06 -5.52985e-09
0.0282578 -1.20873e-06 -1.01471e-08
0.0282579 -8.447e-07 -1.05644e-08
0.0282578 -5.90204e-07 -9.31553e-09
0.0282578 -4.1236e-07 -7.59486e-09
0.0282578 -2.88108e-07 -5.92292e-09
0.0282578 -2.01309e-07 -4.49251e-09
0.0282578 -1.4068e-07 -3.34521e-09
0.0282578 -9.83379e-08 -2.45928e-09
0.0282578 -6.8778e-08 -1.79195e-09
0.0282578 -4.81595e-08 -1.29878e-09
0.0282578 -3.38016e-08 -9.4222e-10
0.0282578 -2.38213e-08 -6.9685e-10
0.0282578 -1.68817e-08 -5.47934e-10
0.0282578 -1.20226e-08 -4.89974e-10
0.0282578 -8.53561e-09 -5.58832e-10
0.0282578 -5.83821e-09 -7.35798e-10
0.0282578 -3.46427e-09 -1.48202e-09
0.0282578 -1.0423e-09 -4.54203e-09
0.0282578 2.26519e-10 -6.95776e-09
0.0196 -1.98377e-08 -5.51903e-08
0.0196 -0.0033041 -0.00306948
0.0189989 -0.00701249 -0.00658533
0.0177259 -0.00667481 -0.00652015
0.0138604 -0.00296612 -0.00573166
0.00997765 0.00332597 -0.00459203
0.00644245 0.0033257 -0.00229177
1.17447e-06 -9.85467e-07 -0.000427161
4.23419e-07 -4.23419e-07 -2.01241e-09
-5.46111e-07 5.77983e-07 4.32078e-05
0.00364541 0.00282341 0.000338001
0.00827278 0.00401854 0.000375206
0.0136885 0.000931379 -3.03503e-05
0.0185462 -0.0011363 -0.000316694
0.0223478 -0.00173453 -0.000382359
0.0249291 -0.00149285 -0.000269854
0.0264619 -0.00104467 -0.000123815
0.027298 -0.000678236 -3.22095e-05
0.0277377 -0.000433427 4.17435e-06
0.027966 -0.000277283 1.18949e-05
0.0280834 -0.000177588 9.91903e-06
0.028143 -0.000113656 6.37321e-06
0.0281726 -7.27124e-05 3.6104e-06
0.0281868 -4.65894e-05 1.88004e-06
0.0281933 -2.99653e-05 9.07045e-07
0.028196 -1.93841e-05 3.97505e-07
0.0281969 -1.26282e-05 1.46566e-07
0.028197 -8.29072e-06 3.14182e-08
0.0281968 -5.48596e-06 -1.5945e-08
0.0281965 -3.65758e-06 -3.12618e-08
0.0281962 -2.45565e-06 -3.25346e-08
0.0281959 -1.65904e-06 -2.84485e-08
0.0281957 -1.12698e-06 -2.2967e-08
0.0281955 -7.69154e-07 -1.77434e-08
0.0281954 -5.27016e-07 -1.33468e-08
0.0281953 -3.62297e-07 -9.86913e-09
0.0281952 -2.49741e-07 -7.21482e-09
0.0281952 -1.72544e-07 -5.23348e-09
0.0281952 -1.19437e-07 -3.77588e-09
0.0281951 -8.28147e-08 -2.71452e-09
0.0281951 -5.75137e-08 -1.94825e-09
0.0281951 -4.00066e-08 -1.40092e-09
0.0281951 -2.78687e-08 -1.0177e-09
0.0281951 -1.94206e-08 -7.61103e-10
0.0281951 -1.34837e-08 -6.05245e-10
0.0281951 -9.21121e-09 -5.37141e-10
0.0281951 -5.96697e-09 -5.94092e-10
0.0281951 -3.18352e-09 -7.52263e-10
0.0281951 -2.67586e-10 -1.43483e-09
0.0281951 3.18874e-09 -4.39488e-09
0.0281951 5.07781e-09 -6.761e-09
0.018 -1.25585e-08 -5.4205e-08
0.018 -0.00166034 -0.00300742
0.0184736 -0.0028957 -0.0062494
0.0188034 -0.00133424 -0.00575838
0.0181703 0.00177956 -0.00462387
0.018101 0.00760964 -0.00367058
0.0186846 0.0126927 -0.00224494
0.0115353 0.00696145 -0.00100163
1.20151e-06 -7.69428e-07 -0.000319752
-4.38404e-07 -8.85038e-07 8.5529e-09
1.21022e-07 -0.000206418 0.00083156
0.00932957 -0.00243147 0.00134007
0.0170687 -0.0052677 0.000709644
0.021943 -0.00592172 0.000126503
0.0248248 -0.00502398 -0.000257793
0.0264597 -0.00349373 -0.0003284
0.0272918 -0.00212859 -0.000222067
0.0276568 -0.0012216 -0.000109258
0.0277914 -0.000694501 -4.43941e-05
0.0278275 -0.000398661 -1.61024e-05
0.0278271 -0.000231511 -5.55969e-06
0.0278162 -0.0001358 -1.98612e-06
0.0278045 -8.04331e-05 -8.30103e-07
0.0277947 -4.81453e-05 -4.45537e-07
0.0277873 -2.91592e-05 -2.93624e-07
0.0277821 -1.78859e-05 -2.12141e-07
0.0277783 -1.11164e-05 -1.56192e-07
0.0277758 -7.0005e-06 -1.14054e-07
0.027774 -4.46486e-06 -8.21413e-08
0.0277727 -2.8818e-06 -5.84491e-08
0.0277719 -1.88044e-06 -4.12386e-08
0.0277713 -1.23909e-06 -2.89487e-08
0.0277709 -8.23534e-07 -2.02745e-08
0.0277706 -5.51427e-07 -1.4195e-08
0.0277704 -3.71575e-07 -9.94867e-09
0.0277702 -2.51725e-07 -6.98532e-09
0.0277701 -1.71296e-07 -4.91562e-09
0.0277701 -1.16999e-07 -3.46747e-09
0.02777 -8.0162e-08 -2.45212e-09
0.02777 -5.50657e-08 -1.73917e-09
0.0277699 -3.79054e-08 -1.23894e-09
0.0277699 -2.61271e-08 -8.90068e-10
0.0277699 -1.80004e-08 -6.51163e-10
0.0277699 -1.23377e-08 -4.96009e-10
0.0277699 -8.3056e-09 -4.07341e-10
0.0277699 -5.29423e-09 -3.77174e-10
0.0277699 -2.82767e-09 -4.47608e-10
0.0277699 -4.37308e-10 -5.89677e-10
0.0277699 2.60309e-09 -1.14454e-09
0.0277699 6.81303e-09 -3.99135e-09
0.0277699 9.22256e-09 -6.35436e-09
0.0148 -7.36584e-09 -4.72571e-08
0.0148 -0.000750225 -0.0027971
0.0164675 -0.00081986 -0.00558195
0.0185425 0.00109295 -0.00480664
0.0204928 0.00410053 -0.00358185
0.0225844 0.00761235 -0.00288458
0.0262037 0.012733 -0.00205376
0.0293365 0.0198154 -0.00112593
0.0238975 0.0117568 -0.00014477
0.0242781 1.39805e-14 0.000596149
0.0277891 -0.00693199 0.00150169
0.0323516 -0.0136967 0.00229573
0.0335989 -0.0119233 0.00202899
0.0323898 -0.00879124 0.00121779
0.0303392 -0.00597703 0.000215611
0.0285749 -0.00370042 -0.000327296
0.0274093 -0.00208109 -0.000368169
0.0267192 -0.00110237 -0.0002313
0.0263236 -0.000575014 -0.000114518
0.0260976 -0.000303489 -5.06352e-05
0.0259677 -0.00016369 -2.12481e-05
0.0258925 -9.03646e-05 -8.73906e-06
0.0258485 -5.10039e-05 -3.59175e-06
0.0258224 -2.93849e-05 -1.49512e-06
0.0258068 -1.7252e-05 -6.36187e-07
0.0257973 -1.03061e-05 -2.77817e-07
0.0257914 -6.25624e-06 -1.24079e-07
0.0257877 -3.85463e-06 -5.59495e-08
0.0257854 -2.40783e-06 -2.48419e-08
0.0257839 -1.52325e-06 -1.03689e-08
0.0257829 -9.74854e-07 -3.6442e-09
0.0257822 -6.30437e-07 -6.22344e-10
0.0257818 -4.11508e-07 6.15753e-10
0.0257815 -2.70806e-07 1.00879e-09
0.0257813 -1.79479e-07 1.02251e-09
0.0257812 -1.19676e-07 8.86499e-10
0.0257811 -8.02134e-08 7.10189e-10
0.025781 -5.39986e-08 5.41909e-10
0.025781 -3.64837e-08 3.99494e-10
0.0257809 -2.47215e-08 2.86225e-10
0.0257809 -1.67824e-08 1.98934e-10
0.0257809 -1.13895e-08 1.31951e-10
0.0257809 -7.68692e-09 7.87151e-11
0.0257809 -5.08892e-09 3.16741e-11
0.0257809 -3.18011e-09 -1.57348e-11
0.0257809 -1.63964e-09 -7.00888e-11
0.0257809 -1.84636e-10 -1.72954e-10
0.0257809 1.48884e-09 -3.0427e-10
0.0257809 4.11226e-09 -7.22882e-10
0.0257809 8.31077e-09 -3.35129e-09
0.0257809 1.08189e-08 -5.61951e-09
0.01 -1.43209e-08 -4.21978e-08
0.01 -0.000464332 -0.00232324
0.0116978 -0.000258809 -0.00436942
0.0142928 0.00110455 -0.00339085
0.0174985 0.00292759 -0.00227705