# vtk DataFile Version 2.0
Tobias Weinzierl: CPU, Manycore and Cluster Computing
ASCII

DATASET STRUCTURED_POINTS
DIMENSIONS  51 11 6

ORIGIN 0 0 0 

SPACING 0.1 0.1 0.1 

POINT_DATA 3366

VECTORS velocity float
0 0 0
1.63059e-15 0 0
-2.86492e-09 0 0
-5.49953e-09 0 0
-5.81093e-09 0 0
-1.51324e-09 0 0
-1.03461e-10 0 0
-2.42031e-10 0 0
-1.30951e-09 0 0
-2.68368e-09 0 0
-3.51795e-09 0 0
-3.74202e-09 0 0
-3.66614e-09 0 0
-3.53667e-09 0 0
-3.45512e-09 0 0
-3.43425e-09 0 0
-3.45136e-09 0 0
-3.48244e-09 0 0
-3.51314e-09 0 0
-3.53769e-09 0 0
-3.55517e-09 0 0
-3.56666e-09 0 0
-3.57374e-09 0 0
-3.57786e-09 0 0
-3.58009e-09 0 0
-3.58119e-09 0 0
-3.58165e-09 0 0
-3.58177e-09 0 0
-3.58172e-09 0 0
-3.58159e-09 0 0
-3.58145e-09 0 0
-3.58132e-09 0 0
-3.58121e-09 0 0
-3.58111e-09 0 0
-3.58103e-09 0 0
-3.58097e-09 0 0
-3.58093e-09 0 0
-3.58089e-09 0 0
-3.58086e-09 0 0
-3.58084e-09 0 0
-3.58083e-09 0 0
-3.58082e-09 0 0
-3.58081e-09 0 0
-3.5808e-09 0 0
-3.5808e-09 0 0
-3.58079e-09 0 0
-3.58079e-09 0 0
-3.58079e-09 0 0
-3.58079e-09 0 0
-3.58079e-09 0 0
0.00278446 0 0
0 7.36126e-09 0
2.09986e-14 1.49132e-09 0
-5.37703e-09 2.60801e-09 0
-1.07051e-08 1.87387e-09 0
-1.0617e-08 1.08508e-09 0
-3.39617e-09 1.28571e-09 0
-1.14671e-09 2.12845e-09 0
-9.85833e-10 2.16747e-09 0
-1.76182e-09 1.9825e-09 0
-3.72164e-09 1.64317e-09 0
-5.20577e-09 9.43875e-10 0
-5.77341e-09 3.50896e-10 0
-5.88502e-09 4.65968e-11 0
-5.92655e-09 -4.00567e-11 0
-6.03786e-09 -2.26841e-11 0
-6.21373e-09 1.63138e-11 0
-6.40296e-09 4.0099e-11 0
-6.56741e-09 4.52436e-11 0
-6.69296e-09 3.94969e-11 0
-6.7809e-09 3.00133e-11 0
-6.83879e-09 2.07913e-11 0
-6.87507e-09 1.33979e-11 0
-6.89687e-09 8.08213e-12 0
-6.90944e-09 4.53928e-12 0
-6.91638e-09 2.3196e-12 0
-6.92001e-09 1.0078e-12 0
-6.92176e-09 2.81134e-13 0
-6.92249e-09 -8.80113e-14 0
-6.92269e-09 -2.4983e-13 0
-6.92264e-09 -2.98351e-13 0
-6.92249e-09 -2.89757e-13 0
-6.92231e-09 -2.56071e-13 0
-6.92213e-09 -2.14569e-13 0
-6.92198e-09 -1.73885e-13 0
-6.92186e-09 -1.37805e-13 0
-6.92176e-09 -1.07529e-13 0
-6.92169e-09 -8.29775e-14 0
-6.92163e-09 -6.35108e-14 0
-6.92158e-09 -4.83109e-14 0
-6.92155e-09 -3.65684e-14 0
-6.92152e-09 -2.75631e-14 0
-6.9215e-09 -2.06892e-14 0
-6.92149e-09 -1.5455e-14 0
-6.92148e-09 -1.14684e-14 0
-6.92147e-09 -8.41414e-15 0
-6.92146e-09 -6.03513e-15 0
-6.92146e-09 -4.15334e-15 0
-6.92146e-09 -2.47901e-15 0
-6.92146e-09 9.52157e-16 0
-6.92147e-09 1.0945e-14 0
0.00739887 -3.99059e-09 0
0 6.76707e-10 0
5.36412e-14 1.78595e-09 0
-3.64221e-09 2.12168e-09 0
-8.39222e-09 -3.4388e-10 0
-6.34464e-09 -3.21826e-10 0
-1.50321e-09 1.84478e-09 0
-2.22936e-09 2.84817e-09 0
-2.67181e-09 1.32082e-09 0
-2.49525e-09 1.0415e-11 0
-3.08774e-09 2.93639e-10 0
-3.95455e-09 7.33737e-10 0
-4.26498e-09 1.16724e-09 0
-4.35759e-09 1.32742e-09 0
-4.43273e-09 1.17088e-09 0
-4.59916e-09 9.06591e-10 0
-4.84246e-09 6.63906e-10 0
-5.09208e-09 4.6913e-10 0
-5.29941e-09 3.20549e-10 0
-5.45057e-09 2.11911e-10 0
-5.5517e-09 1.35672e-10 0
-5.61532e-09 8.41758e-11 0
-5.65348e-09 5.05944e-11 0
-5.67544e-09 2.94011e-11 0
-5.68761e-09 1.64372e-11 0
-5.69406e-09 8.74954e-12 0
-5.69731e-09 4.33738e-12 0
-5.69881e-09 1.89837e-12 0
-5.69941e-09 6.13213e-13 0
-5.69955e-09 -1.79726e-14 0
-5.69949e-09 -2.917e-13 0
-5.69936e-09 -3.79005e-13 0
-5.69921e-09 -3.75658e-13 0
-5.69907e-09 -3.33441e-13 0
-5.69895e-09 -2.79088e-13 0
-5.69885e-09 -2.25464e-13 0
-5.69878e-09 -1.78009e-13 0
-5.69872e-09 -1.38371e-13 0
-5.69867e-09 -1.06393e-13 0
-5.69864e-09 -8.11592e-14 0
-5.69861e-09 -6.15373e-14 0
-5.69859e-09 -4.64243e-14 0
-5.69858e-09 -3.48498e-14 0
-5.69857e-09 -2.60008e-14 0
-5.69856e-09 -1.9213e-14 0
-5.69856e-09 -1.39387e-14 0
-5.69855e-09 -9.63173e-15 0
-5.69855e-09 -5.49231e-15 0
-5.69855e-09 -4.66031e-16 0
-5.69855e-09 5.51874e-15 0
-5.69855e-09 1.21166e-14 0
0.0096339 -5.05322e-09 0
0 -9.01891e-09 0
6.89034e-14 7.62624e-10 0
-1.93815e-09 -6.81153e-10 0
-6.47562e-09 -4.5646e-09 0
-4.45867e-09 -4.74507e-09 0
3.79714e-10 -1.62427e-09 0
-1.18613e-09 -3.0743e-14 0
-1.92801e-09 -1.63931e-09 0
-4.72209e-09 -3.64283e-09 0
-5.20636e-09 -3.02805e-09 0
-5.53909e-09 -9.34246e-10 0
-5.51711e-09 9.8608e-10 0
-5.22888e-09 1.9038e-09 0
-4.76871e-09 1.82782e-09 0
-4.41102e-09 1.42502e-09 0
-4.25917e-09 1.03027e-09 0
-4.24554e-09 7.10759e-10 0
-4.28384e-09 4.7002e-10 0
-4.32643e-09 2.98943e-10 0
-4.3575e-09 1.8348e-10 0
-4.37608e-09 1.0888e-10 0
-4.38561e-09 6.24469e-11 0
-4.38971e-09 3.449e-11 0
-4.39094e-09 1.81782e-11 0
-4.39084e-09 8.96134e-12 0
-4.39024e-09 3.93816e-12 0
-4.38953e-09 1.32319e-12 0
-4.38888e-09 5.01809e-14 0
-4.38835e-09 -5.005e-13 0
-4.38794e-09 -6.7957e-13 0
-4.38762e-09 -6.8002e-13 0
-4.38739e-09 -6.04552e-13 0
-4.38721e-09 -5.05411e-13 0
-4.38709e-09 -4.07383e-13 0
-4.38699e-09 -3.20797e-13 0
-4.38692e-09 -2.48707e-13 0
-4.38687e-09 -1.90756e-13 0
-4.38684e-09 -1.452e-13 0
-4.38681e-09 -1.09911e-13 0
-4.38679e-09 -8.28386e-14 0
-4.38678e-09 -6.2196e-14 0
-4.38676e-09 -4.65003e-14 0
-4.38676e-09 -3.45529e-14 0
-4.38675e-09 -2.53793e-14 0
-4.38675e-09 -1.81711e-14 0
-4.38674e-09 -1.22996e-14 0
-4.38674e-09 -7.38941e-15 0
-4.38674e-09 -3.13856e-15 0
-4.38674e-09 1.14489e-15 0
-4.38674e-09 6.16503e-15 0
0.0101043 -3.67833e-09 0
0 -1.74623e-08 0
4.94304e-14 -5.74791e-10 0
-2.024e-09 -2.62003e-09 0
-6.83701e-09 -4.51929e-09 0
-6.7755e-09 -3.55249e-09 0
-2.45902e-14 -1.07847e-09 0
-2.57695e-13 -2.82507e-13 0
2.38701e-13 -2.71473e-13 0
-2.67915e-09 -2.35027e-09 0
-5.93539e-09 -3.94653e-09 0
-6.223e-09 -1.74394e-09 0
-6.46335e-09 6.35869e-10 0
-6.46052e-09 1.63719e-09 0
-5.88881e-09 1.51293e-09 0
-5.17417e-09 1.14741e-09 0
-4.65774e-09 8.37061e-10 0
-4.36558e-09 5.83164e-10 0
-4.21316e-09 3.81398e-10 0
-4.13109e-09 2.34299e-10 0
-4.08298e-09 1.35984e-10 0
-4.05255e-09 7.474e-11 0
-4.03254e-09 3.86798e-11 0
-4.01927e-09 1.84589e-11 0
-4.01054e-09 7.65319e-12 0
-4.00487e-09 2.19606e-12 0
-4.00123e-09 -3.44373e-13 0
-3.99893e-09 -1.36148e-12 0
-3.99747e-09 -1.62519e-12 0
-3.99655e-09 -1.54631e-12 0
-3.99598e-09 -1.33546e-12 0
-3.99561e-09 -1.09495e-12 0
-3.99537e-09 -8.70219e-13 0
-3.99522e-09 -6.78019e-13 0
-3.99512e-09 -5.21382e-13 0
-3.99506e-09 -3.97392e-13 0
-3.99501e-09 -3.01051e-13 0
-3.99498e-09 -2.27106e-13 0
-3.99496e-09 -1.70811e-13 0
-3.99494e-09 -1.28183e-13 0
-3.99493e-09 -9.60105e-14 0
-3.99492e-09 -7.17664e-14 0
-3.99492e-09 -5.34922e-14 0
-3.99491e-09 -3.96842e-14 0
-3.99491e-09 -2.92088e-14 0
-3.99491e-09 -2.12236e-14 0
-3.99491e-09 -1.50774e-14 0
-3.9949e-09 -1.02129e-14 0
-3.9949e-09 -6.12685e-15 0
-3.9949e-09 -2.22395e-15 0
-3.9949e-09 1.97246e-15 0
0.0101777 -1.69555e-09 0
0 -1.56142e-08 0
3.17533e-14 -1.08723e-09 0
-2.33233e-09 -2.66176e-09 0
-7.05591e-09 -3.65754e-09 0
-8.30397e-09 -3.88068e-09 0
-2.79717e-09 -1.79767e-09 0
-2.45701e-13 2.39672e-13 0
-9.66e-16 9.66e-16 0
2.20135e-13 -2.57274e-13 0
-2.77879e-09 -1.66949e-09 0
-4.74091e-09 -1.74039e-09 0
-5.73687e-09 1.02166e-09 0
-6.97015e-09 1.99945e-09 0
-6.94625e-09 1.4093e-09 0
-6.07009e-09 7.86088e-10 0
-5.2135e-09 4.53279e-10 0
-4.65891e-09 2.65359e-10 0
-4.34545e-09 1.42847e-10 0
-4.17127e-09 6.55673e-11 0
-4.07209e-09 2.21822e-11 0
-4.01426e-09 1.01575e-12 0
-3.98016e-09 -7.51256e-12 0
-3.96003e-09 -9.7133e-12 0
-3.94821e-09 -9.16511e-12 0
-3.94131e-09 -7.67668e-12 0
-3.93732e-09 -6.06409e-12 0
-3.93504e-09 -4.64124e-12 0
-3.93373e-09 -3.49084e-12 0
-3.933e-09 -2.60105e-12 0
-3.93258e-09 -1.92908e-12 0
-3.93236e-09 -1.42807e-12 0
-3.93223e-09 -1.05696e-12 0
-3.93216e-09 -7.82827e-13 0
-3.93213e-09 -5.80456e-13 0
-3.93211e-09 -4.30969e-13 0
-3.9321e-09 -3.20401e-13 0
-3.93209e-09 -2.38488e-13 0
-3.93209e-09 -1.77697e-13 0
-3.93209e-09 -1.325e-13 0
-3.93209e-09 -9.8833e-14 0
-3.93209e-09 -7.37047e-14 0
-3.93209e-09 -5.4909e-14 0
-3.93209e-09 -4.0814e-14 0
-3.93209e-09 -3.02023e-14 0
-3.93209e-09 -2.21605e-14 0
-3.93209e-09 -1.6021e-14 0
-3.93209e-09 -1.13028e-14 0
-3.93209e-09 -7.60334e-15 0
-3.93208e-09 -4.41634e-15 0
-3.93209e-09 -1.2511e-15 0
0.0101858 3.23701e-10 0
0 -1.1081e-08 0
2.9912e-14 -1.21665e-09 0
-2.27242e-09 -2.78666e-09 0
-6.89124e-09 -2.73053e-09 0
-8.65199e-09 -2.05991e-09 0
-6.20773e-09 -1.66508e-09 0
-1.99888e-09 -7.65679e-10 0
-2.44722e-13 2.34627e-13 0
-1.44882e-14 1.44882e-14 0
1.96155e-13 -2.4412e-13 0
-1.79028e-09 5.91964e-10 0
-3.58737e-09 2.73319e-09 0
-6.79617e-09 3.43439e-09 0
-8.02472e-09 1.62547e-09 0
-7.04162e-09 3.09839e-10 0
-5.70936e-09 -1.14748e-10 0
-4.8487e-09 -1.84653e-10 0
-4.40781e-09 -1.70243e-10 0
-4.19594e-09 -1.38186e-10 0
-4.0938e-09 -1.04015e-10 0
-4.04366e-09 -7.404e-11 0
-4.01873e-09 -5.07126e-11 0
-4.00626e-09 -3.39343e-11 0
-4.00005e-09 -2.24545e-11 0
-3.997e-09 -1.48281e-11 0
-3.99554e-09 -9.83693e-12 0
-3.99488e-09 -6.58523e-12 0
-3.99462e-09 -4.46073e-12 0
-3.99454e-09 -3.06149e-12 0
-3.99456e-09 -2.1293e-12 0
-3.9946e-09 -1.49989e-12 0
-3.99466e-09 -1.06883e-12 0
-3.99471e-09 -7.69457e-13 0
-3.99475e-09 -5.58773e-13 0
-3.99479e-09 -4.08726e-13 0
-3.99481e-09 -3.00743e-13 0
-3.99483e-09 -2.22334e-13 0
-3.99485e-09 -1.64971e-13 0
-3.99486e-09 -1.22742e-13 0
-3.99487e-09 -9.14931e-14 0
-3.99488e-09 -6.82675e-14 0
-3.99489e-09 -5.0937e-14 0
-3.99489e-09 -3.79541e-14 0
-3.99489e-09 -2.81887e-14 0
-3.99489e-09 -2.08158e-14 0
-3.9949e-09 -1.52463e-14 0
-3.9949e-09 -1.11046e-14 0
-3.9949e-09 -8.16024e-15 0
-3.9949e-09 -6.11272e-15 0
-3.9949e-09 -4.40094e-15 0
0.0101777 2.29409e-09 0
0 -7.94747e-09 0
2.66151e-14 -1.30348e-09 0
-2.46102e-09 -2.68055e-09 0
-6.75569e-09 -2.20031e-09 0
-8.33457e-09 -1.07707e-09 0
-6.71114e-09 -6.95991e-10 0
-4.5281e-09 -1.66782e-09 0
-2.54798e-09 -1.22565e-09 0
-2.5636e-13 2.12897e-13 0
1.76393e-13 2.09871e-13 0
-1.24484e-14 1.39104e-09 0
-1.10095e-09 5.03935e-09 0
-4.28056e-09 5.59177e-09 0
-6.96978e-09 2.02927e-09 0
-6.97385e-09 -3.28608e-10 0
-5.85893e-09 -7.77625e-10 0
-5.00244e-09 -6.12976e-10 0
-4.58566e-09 -4.13262e-10 0
-4.42518e-09 -2.67652e-10 0
-4.37519e-09 -1.69009e-10 0
-4.36543e-09 -1.04609e-10 0
-4.36788e-09 -6.40186e-11 0
-4.3727e-09 -3.91006e-11 0
-4.37694e-09 -2.40239e-11 0
-4.38006e-09 -1.49372e-11 0
-4.38221e-09 -9.43734e-12 0
-4.38366e-09 -6.07448e-12 0
-4.38462e-09 -3.98843e-12 0
-4.38526e-09 -2.67177e-12 0
-4.3857e-09 -1.82458e-12 0
-4.38599e-09 -1.26837e-12 0
-4.3862e-09 -8.95773e-13 0
-4.38635e-09 -6.41307e-13 0
-4.38645e-09 -4.64392e-13 0
-4.38653e-09 -3.39424e-13 0
-4.38658e-09 -2.49932e-13 0
-4.38662e-09 -1.85101e-13 0
-4.38665e-09 -1.37688e-13 0
-4.38667e-09 -1.02745e-13 0
-4.38669e-09 -7.6833e-14 0
-4.3867e-09 -5.75212e-14 0
-4.38671e-09 -4.30684e-14 0
-4.38671e-09 -3.22143e-14 0
-4.38672e-09 -2.40428e-14 0
-4.38672e-09 -1.78898e-14 0
-4.38672e-09 -1.32856e-14 0
-4.38673e-09 -9.9675e-15 0
-4.38673e-09 -7.96462e-15 0
-4.38673e-09 -7.49668e-15 0
-4.38673e-09 -8.16691e-15 0
0.0101043 4.10316e-09 0
0 -7.20703e-09 0
2.32389e-14 -1.21383e-09 0
-3.04981e-09 -2.42557e-09 0
-7.04724e-09 -1.82353e-09 0
-8.47587e-09 -7.55178e-10 0
-7.32254e-09 -2.25984e-10 0
-5.39967e-09 -8.64586e-10 0
-4.73614e-09 -2.84503e-09 0
-3.08767e-09 -2.06305e-09 0
-4.91808e-09 1.82281e-18 0
-6.98786e-09 1.55866e-09 0
-4.89751e-09 5.03489e-09 0
-2.46455e-09 5.73418e-09 0
-4.0298e-09 2.51026e-09 0
-5.71975e-09 -2.04942e-10 0
-5.90824e-09 -8.75127e-10 0
-5.67817e-09 -6.73679e-10 0
-5.56559e-09 -3.97002e-10 0
-5.5627e-09 -2.17949e-10 0
-5.59578e-09 -1.19165e-10 0
-5.62956e-09 -6.65443e-11 0
-5.65467e-09 -3.83103e-11 0
-5.67125e-09 -2.27873e-11 0
-5.68164e-09 -1.39839e-11 0
-5.688e-09 -8.82996e-12 0
-5.69187e-09 -5.7217e-12 0
-5.69424e-09 -3.79586e-12 0
-5.69571e-09 -2.57273e-12 0
-5.69663e-09 -1.77768e-12 0
-5.69723e-09 -1.24948e-12 0
-5.69762e-09 -8.91275e-13 0
-5.69788e-09 -6.43726e-13 0
-5.69807e-09 -4.69719e-13 0
-5.69819e-09 -3.45582e-13 0
-5.69828e-09 -2.55901e-13 0
-5.69835e-09 -1.90436e-13 0
-5.69839e-09 -1.42245e-13 0
-5.69843e-09 -1.06531e-13 0
-5.69846e-09 -7.99251e-14 0
-5.69848e-09 -6.00236e-14 0
-5.69849e-09 -4.50898e-14 0
-5.6985e-09 -3.3856e-14 0
-5.69851e-09 -2.53926e-14 0
-5.69852e-09 -1.90172e-14 0
-5.69852e-09 -1.42372e-14 0
-5.69852e-09 -1.07088e-14 0
-5.69853e-09 -8.24423e-15 0
-5.69853e-09 -7.08061e-15 0
-5.69853e-09 -8.37719e-15 0
-5.69853e-09 -1.28542e-14 0
0.00963389 5.12023e-09 0
0 -7.74565e-09 0
1.85578e-14 -7.32548e-10 0
-3.5549e-09 -1.45374e-09 0
-7.06145e-09 -1.05637e-09 0
-8.3551e-09 -5.31899e-10 0
-8.14906e-09 -6.93477e-10 0
-7.05139e-09 -1.40964e-09 0
-6.36166e-09 -2.07795e-09 0
-7.2007e-09 2.28325e-10 0
-7.41711e-09 3.94468e-09 0
-7.80546e-09 3.12895e-09 0
-5.66394e-09 -7.88485e-10 0
-3.69363e-09 -2.6405e-09 0
-5.16942e-09 -1.65004e-09 0
-7.00031e-09 -1.66201e-10 0
-7.35124e-09 5.05809e-10 0
-7.12749e-09 4.89614e-10 0
-6.94819e-09 2.88645e-10 0
-6.87959e-09 1.35026e-10 0
-6.86844e-09 5.35973e-11 0
-6.87678e-09 1.73604e-11 0
-6.88843e-09 3.13644e-12 0
-6.8983e-09 -1.671e-12 0
-6.90551e-09 -2.82156e-12 0
-6.9105e-09 -2.70464e-12 0
-6.91387e-09 -2.2396e-12 0
-6.91615e-09 -1.75026e-12 0
-6.9177e-09 -1.33308e-12 0
-6.91876e-09 -1.0035e-12 0
-6.9195e-09 -7.51553e-13 0
-6.92002e-09 -5.61778e-13 0
-6.9204e-09 -4.1975e-13 0
-6.92067e-09 -3.13708e-13 0
-6.92087e-09 -2.34569e-13 0
-6.92101e-09 -1.75483e-13 0
-6.92112e-09 -1.31333e-13 0
-6.9212e-09 -9.83161e-14 0
-6.92126e-09 -7.36056e-14 0
-6.92131e-09 -5.50988e-14 0
-6.92134e-09 -4.12306e-14 0
-6.92137e-09 -3.0833e-14 0
-6.92138e-09 -2.30352e-14 0
-6.9214e-09 -1.71881e-14 0
-6.92141e-09 -1.28114e-14 0
-6.92142e-09 -9.55845e-15 0
-6.92142e-09 -7.19395e-15 0
-6.92143e-09 -5.59016e-15 0
-6.92143e-09 -4.95651e-15 0
-6.92143e-09 -6.83516e-15 0
-6.92144e-09 -1.34978e-14 0
0.00739887 3.67748e-09 0
0 0 0
8.97525e-15 0 0
-1.81008e-09 0 0
-3.38655e-09 0 0
-4.01035e-09 0 0
-4.12708e-09 0 0
-4.18093e-09 0 0
-4.1735e-09 0 0
-4.11305e-09 0 0
-2.49905e-09 0 0
-8.17616e-10 0 0
-8.37044e-10 0 0
-2.31326e-09 0 0
-3.86798e-09 0 0
-4.50329e-09 0 0
-4.34453e-09 0 0
-4.00146e-09 0 0
-3.76215e-09 0 0
-3.642e-09 0 0
-3.59218e-09 0 0
-3.57507e-09 0 0
-3.57109e-09 0 0
-3.57163e-09 0 0
-3.57335e-09 0 0
-3.57509e-09 0 0
-3.57652e-09 0 0
-3.57763e-09 0 0
-3.57845e-09 0 0
-3.57906e-09 0 0
-3.57951e-09 0 0
-3.57983e-09 0 0
-3.58008e-09 0 0
-3.58026e-09 0 0
-3.58039e-09 0 0
-3.58049e-09 0 0
-3.58056e-09 0 0
-3.58062e-09 0 0
-3.58066e-09 0 0
-3.58069e-09 0 0
-3.58071e-09 0 0
-3.58073e-09 0 0
-3.58074e-09 0 0
-3.58075e-09 0 0
-3.58076e-09 0 0
-3.58076e-09 0 0
-3.58077e-09 0 0
-3.58077e-09 0 0
-3.58077e-09 0 0
-3.58078e-09 0 0
-3.58078e-09 0 0
0.00278446 0 0
0 0 8.38073e-09
3.39968e-14 0 1.3736e-09
-5.59141e-09 0 2.89152e-09
-1.22199e-08 0 1.07214e-09
-1.59805e-08 0 -5.07138e-09
-2.95747e-09 0 -6.99317e-09
2.02207e-09 0 -3.39966e-09
2.93945e-09 0 -9.61421e-10
1.52944e-09 0 4.59145e-10
-9.6526e-10 0 5.65272e-10
-3.02007e-09 0 1.14468e-10
-4.30031e-09 0 -2.02697e-10
-5.06097e-09 0 -2.5195e-10
-5.54143e-09 0 -1.7097e-10
-5.88473e-09 0 -7.97341e-11
-6.16582e-09 0 -2.00684e-11
-6.40117e-09 0 8.09312e-12
-6.58741e-09 0 1.65322e-11
-6.72477e-09 0 1.57561e-11
-6.82005e-09 0 1.2017e-11
-6.88289e-09 0 8.1743e-12
-6.92264e-09 0 5.17569e-12
-6.94687e-09 0 3.11648e-12
-6.96112e-09 0 1.80613e-12
-6.96921e-09 0 1.01441e-12
-6.97359e-09 0 5.54201e-13
-6.97584e-09 0 2.94937e-13
-6.97689e-09 0 1.52839e-13
-6.97729e-09 0 7.69713e-14
-6.97737e-09 0 3.75446e-14
-6.9773e-09 0 1.76633e-14
-6.97717e-09 0 7.99267e-15
-6.97703e-09 0 3.50031e-15
-6.9769e-09 0 1.54073e-15
-6.97679e-09 0 7.6151e-16
-6.9767e-09 0 4.95114e-16
-6.97663e-09 0 4.2614e-16
-6.97657e-09 0 4.15854e-16
-6.97653e-09 0 4.1102e-16
-6.9765e-09 0 3.95939e-16
-6.97647e-09 0 3.71414e-16
-6.97645e-09 0 3.44268e-16
-6.97644e-09 0 3.23018e-16
-6.97643e-09 0 3.19352e-16
-6.97642e-09 0 3.51671e-16
-6.97641e-09 0 4.35915e-16
-6.97641e-09 0 5.09766e-16
-6.97641e-09 0 5.60206e-16
-6.97641e-09 0 2.23396e-15
-6.97642e-09 0 1.04036e-14
0.00739138 0 -3.17104e-09
0.0036 1.45324e-09 2.83476e-09
0.00359999 -0.00166422 -0.000339269
0.00759554 -0.0050888 -0.00136022
0.0158238 -0.00851795 -0.00304634
0.0275785 -0.0130958 -0.0047716
0.0465361 -0.009125 -0.0034372
0.0487972 -0.000263252 -0.000592738
0.048144 0.003346 0.000572787
0.0428237 0.00510587 0.00072771
0.0372167 0.00482209 0.000212164
0.032263 0.00387832 -0.000220117
0.0282323 0.00285916 -0.000357398
0.0252524 0.0019726 -0.000299703
0.0232307 0.00129738 -0.000187379
0.0219299 0.000830708 -9.60968e-05
0.0211178 0.000523067 -4.16914e-05
0.0206225 0.000323913 -1.49662e-05
0.020327 0.00019694 -3.77026e-06
0.0201544 0.000117507 1.14136e-07
0.0200559 6.88301e-05 1.02824e-06
0.0200009 3.95953e-05 9.41122e-07
0.0199709 2.23681e-05 6.32126e-07
0.0199551 1.23986e-05 3.57544e-07
0.0199471 6.73054e-06 1.7116e-07
0.0199433 3.56598e-06 6.15938e-08
0.0199416 1.83331e-06 4.46913e-09
0.0199411 9.05476e-07 -2.11246e-08
0.019941 4.2179e-07 -2.95051e-08
0.0199411 1.78275e-07 -2.94045e-08
0.0199413 6.15531e-08 -2.5726e-08
0.0199415 9.77467e-09 -2.10151e-08
0.0199416 -1.00804e-08 -1.64688e-08
0.0199418 -1.51832e-08 -1.2561e-08
0.0199419 -1.41594e-08 -9.40452e-09
0.0199419 -1.11316e-08 -6.9499e-09
0.019942 -7.91911e-09 -5.08792e-09
0.019942 -5.20907e-09 -3.69938e-09
0.019942 -3.1658e-09 -2.67635e-09
0.0199421 -1.73677e-09 -1.92933e-09
0.0199421 -7.99141e-10 -1.3878e-09
0.0199421 -2.24863e-10 -9.98146e-10
0.0199421 9.45621e-11 -7.20897e-10
0.0199421 2.41788e-10 -5.28222e-10
0.0199421 2.75354e-10 -4.01552e-10
0.0199421 2.33217e-10 -3.29743e-10
0.0199421 1.25937e-10 -3.14027e-10
0.0199421 -5.50057e-11 -3.37307e-10
0.0199421 -2.88439e-10 -2.39482e-10
0.0199421 -1.55792e-09 -6.80672e-10
0.0199421 -7.43901e-09 -5.01265e-09
0.0199421 -1.2174e-08 -8.78979e-09
0.01 1.27452e-09 -1.38669e-08
0.01 -0.00363619 -0.000819029
0.0151328 -0.0112965 -0.00226979
0.0241689 -0.0186234 -0.0039019
0.0367668 -0.0283784 -0.00441679
0.0558505 -0.0191611 -0.00120827
0.0544807 -0.00102676 0.00175578
0.0549264 0.00594433 0.00214611
0.0492738 0.0108264 0.00180238
0.0433285 0.0106454 0.000697464
0.0382522 0.00919192 -0.000204608
0.0340548 0.00722191 -0.000522573
0.0310052 0.00515471 -0.000470507
0.0290451 0.00341124 -0.000303609
0.0278513 0.00215552 -0.00015827
0.0271438 0.00132416 -6.93796e-05
0.0267352 0.000795657 -2.50375e-05
0.0265059 0.000468385 -6.1503e-06
0.0263813 0.000270197 5.68098e-07
0.026316 0.000152647 2.22961e-06
0.0262834 8.43064e-05 2.11415e-06
0.0262682 4.53578e-05 1.55771e-06
0.0262619 2.3617e-05 1.02498e-06
0.02626 1.17581e-05 6.31356e-07
0.02626 5.46495e-06 3.71863e-07
0.0262608 2.24198e-06 2.11663e-07
0.0262618 6.72985e-07 1.17002e-07
0.0262627 -3.06142e-08 6.28685e-08
0.0262635 -2.98821e-07 3.27405e-08
0.0262641 -3.60405e-07 1.63902e-08
0.0262645 -3.33307e-07 7.74817e-09
0.0262649 -2.75726e-07 3.3214e-09
0.0262651 -2.14473e-07 1.14757e-09
0.0262653 -1.60432e-07 1.47281e-10
0.0262654 -1.16795e-07 -2.61301e-10
0.0262655 -8.33342e-08 -3.85085e-10
0.0262655 -5.85311e-08 -3.81815e-10
0.0262656 -4.05844e-08 -3.29822e-10
0.0262656 -2.78357e-08 -2.66115e-10
0.0262656 -1.89145e-08 -2.06863e-10
0.0262657 -1.27551e-08 -1.58301e-10
0.0262657 -8.56078e-09 -1.22466e-10
0.0262657 -5.75375e-09 -1.00331e-10
0.0262657 -3.93008e-09 -9.32145e-11
0.0262657 -2.82088e-09 -1.00048e-10
0.0262657 -2.27666e-09 -1.17954e-10
0.0262657 -2.44961e-09 -1.46759e-10
0.0262657 -4.09856e-09 -6.9089e-11
0.0262657 -7.67696e-09 -8.14648e-10
0.0262657 -1.28602e-08 -6.68231e-09
0.0262657 -1.57991e-08 -1.17094e-08
0.0148 -1.42057e-08 -1.83179e-08
0.0148 -0.00566046 -0.00132547
0.0195488 -0.016601 -0.00362703
0.0254955 -0.0267451 -0.00547607
0.0297824 -0.0407337 -0.00496577
0.0283056 -0.0249295 -0.000778294
0.0260484 -1.6483e-07 0.00185457
0.0263539 0.00779207 0.0019854
0.0311607 0.0162601 0.00187561
0.0311828 0.0158544 0.000952233
0.0297197 0.0134232 0.000114159
0.028432 0.0104078 -0.000289775
0.0276557 0.00720796 -0.000329543
0.0273883 0.00458552 -0.000226494
0.0273409 0.002798 -0.000112482
0.0273664 0.00166596 -3.88961e-05
0.0274128 0.000970042 -3.90918e-06
0.0274612 0.000551759 8.20149e-06
0.0275036 0.000306101 9.9321e-06
0.0275374 0.000165174 8.09836e-06
0.0275626 8.6215e-05 5.66833e-06
0.0275807 4.30585e-05 3.65129e-06
0.0275932 2.01236e-05 2.23118e-06
0.0276017 8.35475e-06 1.31399e-06
0.0276075 2.6033e-06 7.52496e-07
0.0276113 2.73654e-09 4.21134e-07
0.0276139 -1.00887e-06 2.30837e-07
0.0276156 -1.2622e-06 1.2391e-07
0.0276167 -1.1859e-06 6.49623e-08
0.0276175 -9.92238e-07 3.30564e-08
0.027618 -7.79834e-07 1.61252e-08
0.0276183 -5.89512e-07 7.35106e-09
0.0276185 -4.34042e-07 2.94557e-09
0.0276187 -3.1356e-07 8.34929e-10
0.0276188 -2.23295e-07 -9.94594e-11
0.0276189 -1.57229e-07 -4.51259e-10
0.0276189 -1.09695e-07 -5.29416e-10
0.027619 -7.59422e-08 -4.90599e-10
0.027619 -5.22296e-08 -4.11362e-10
0.027619 -3.57232e-08 -3.27029e-10
0.027619 -2.43337e-08 -2.5242e-10
0.027619 -1.65523e-08 -1.92715e-10
0.027619 -1.1311e-08 -1.48736e-10
0.027619 -7.87708e-09 -1.19102e-10
0.027619 -5.80486e-09 -1.03515e-10
0.027619 -4.92217e-09 -1.15333e-10
0.027619 -5.13457e-09 -1.90989e-10
0.027619 -6.21338e-09 -2.87472e-10
0.027619 -8.09655e-09 -1.37359e-09
0.027619 -1.06399e-08 -7.27708e-09
0.027619 -1.20175e-08 -1.21312e-08
0.018 -3.12125e-08 -2.3122e-08
0.018 -0.00657496 -0.00212774
0.0199322 -0.0173794 -0.00578439
0.0198042 -0.0223933 -0.00715099
0.0159724 -0.0240869 -0.00629659
-1.69267e-08 -0.0124983 -0.00280227
1.60975e-06 5.45986e-07 8.94773e-09
-6.28361e-07 6.63593e-07 0.000374654
0.00763683 0.0054147 0.000748799
0.0160016 0.0119421 0.000613018
0.019306 0.0120612 0.0002709
0.0208883 0.00948217 -6.59813e-05
0.0226143 0.00636434 -0.0002028
0.024268 0.00382945 -0.000163368
0.0255361 0.00222582 -7.55557e-05
0.0263976 0.00126739 -1.24594e-05
0.0269512 0.000700836 1.55605e-05
0.0272977 0.000372786 2.15414e-05
0.0275111 0.000188941 1.8326e-05
0.0276409 8.97366e-05 1.30116e-05
0.0277188 3.83954e-05 8.3816e-06
0.0277653 1.31397e-05 5.07836e-06
0.0277927 1.58649e-06 2.94844e-06
0.0278088 -3.05885e-06 1.65687e-06
0.0278182 -4.40387e-06 9.05539e-07
0.0278238 -4.29986e-06 4.81714e-07
0.027827 -3.65823e-06 2.48588e-07
0.0278289 -2.90176e-06 1.23313e-07
0.02783 -2.20739e-06 5.76412e-08
0.0278307 -1.63369e-06 2.42406e-08
0.0278311 -1.1861e-06 7.95412e-09
0.0278314 -8.49061e-07 5.28941e-10
0.0278315 -6.01263e-07 -2.44977e-09
0.0278316 -4.22142e-07 -3.29821e-09
0.0278316 -2.94291e-07 -3.20247e-09
0.0278317 -2.03926e-07 -2.74989e-09
0.0278317 -1.4056e-07 -2.21657e-09
0.0278317 -9.64225e-08 -1.72091e-09
0.0278317 -6.58604e-08 -1.30433e-09
0.0278317 -4.48193e-08 -9.72915e-10
0.0278317 -3.04228e-08 -7.18381e-10
0.0278317 -2.0652e-08 -5.28353e-10
0.0278317 -1.41103e-08 -3.91675e-10
0.0278317 -9.85116e-09 -3.01438e-10
0.0278317 -7.22654e-09 -2.59602e-10
0.0278317 -5.75362e-09 -2.96976e-10
0.0278317 -5.07132e-09 -4.57318e-10
0.0278317 -4.90297e-09 -6.32992e-10
0.0278317 -5.16434e-09 -1.76304e-09
0.0278317 -5.75671e-09 -7.41223e-09
0.0278317 -6.09962e-09 -1.19919e-08
0.0196 -3.85439e-08 -3.9041e-08
0.0196 -0.00511119 -0.0028953
0.0190661 -0.0116098 -0.00710859
0.0163721 -0.0138222 -0.00753911
0.0118675 -0.0121587 -0.00617758
0.00259696 -0.00483509 -0.00356336
1.22521e-06 -1.1305e-06 -0.000711566
5.02141e-07 -5.02141e-07 -7.79157e-10
-6.09642e-07 6.4708e-07 9.2185e-05
0.00538912 0.00404271 0.000196829
0.0118959 0.00851448 0.000157552
0.0147039 0.0071731 -4.96105e-05
0.0182262 0.0039372 -0.000240089
0.0215761 0.00174499 -0.000229719
0.0240639 0.000705899 -0.000127224
0.0256546 0.000257941 -3.65747e-05
0.0266013 6.34459e-05 8.53529e-06
0.0271487 -1.77388e-05 2.06822e-05
0.0274608 -4.52329e-05 1.85856e-05
0.0276371 -4.82826e-05 1.3041e-05
0.0277357 -4.18082e-05 8.12709e-06
0.0277904 -3.29347e-05 4.7188e-06
0.0278204 -2.46395e-05 2.60841e-06
0.0278368 -1.78775e-05 1.38516e-06
0.0278457 -1.27273e-05 7.07021e-07
0.0278504 -8.95175e-06 3.43943e-07
0.0278529 -6.24661e-06 1.55749e-07
0.0278542 -4.33575e-06 6.17103e-08
0.0278549 -2.99812e-06 1.70108e-08
0.0278552 -2.06728e-06 -2.568e-09
0.0278553 -1.42212e-06 -9.81688e-09
0.0278554 -9.76262e-07 -1.13367e-08
0.0278554 -6.68828e-07 -1.04404e-08
0.0278554 -4.57255e-07 -8.72739e-09
0.0278554 -3.11919e-07 -6.92312e-09
0.0278554 -2.12269e-07 -5.31979e-09
0.0278554 -1.44079e-07 -4.00396e-09
0.0278554 -9.75226e-08 -2.97152e-09
0.0278553 -6.58193e-08 -2.18395e-09
0.0278553 -4.43005e-08 -1.59472e-09
0.0278553 -2.97579e-08 -1.16085e-09
0.0278553 -1.99917e-08 -8.47423e-10
0.0278553 -1.34937e-08 -6.29626e-10
0.0278553 -9.22278e-09 -4.93905e-10
0.0278553 -6.4531e-09 -4.36748e-10
0.0278553 -4.66572e-09 -4.73573e-10
0.0278553 -3.45986e-09 -6.33041e-10
0.0278553 -2.47683e-09 -7.95097e-10
0.0278553 -1.48497e-09 -1.89542e-09
0.0278553 -4.02018e-10 -7.40066e-09
0.0278553 1.69359e-10 -1.18539e-08
0.0196 -1.96476e-08 -5.27782e-08
0.0196 -0.00300791 -0.0032076
0.0190601 -0.00626788 -0.00715696
0.0178913 -0.00578954 -0.00714227
0.0145651 -0.00220655 -0.00551422
0.0107859 0.00377622 -0.00368544
0.00671482 0.00345321 -0.00167419
1.22589e-06 -1.03511e-06 -0.00031012
4.25472e-07 -4.25472e-07 -2.00862e-09
-5.8706e-07 6.32223e-07 2.43524e-05
0.00403527 0.00271815 0.000317487
0.00872316 0.00320517 0.000326
0.0146647 -0.000373224 -0.000134509
0.0199776 -0.00188581 -0.000347573
0.0236206 -0.00178397 -0.000279143
0.0256823 -0.00124736 -0.000132234
0.0267475 -0.000794028 -3.77287e-05
0.0272864 -0.000494615 -9.27148e-07
0.0275597 -0.000307194 7.49349e-06
0.0276983 -0.000190674 6.7483e-06
0.0277682 -0.000118362 4.3839e-06
0.027803 -7.36117e-05 2.47583e-06
0.0278199 -4.5969e-05 1.27663e-06
0.0278279 -2.88806e-05 6.0443e-07
0.0278314 -1.82788e-05 2.5454e-07
0.0278328 -1.16622e-05 8.39817e-08
0.0278332 -7.50135e-06 7.26598e-09
0.0278331 -4.86241e-06 -2.28342e-08
0.0278329 -3.17395e-06 -3.10998e-08
0.0278327 -2.08436e-06 -2.99968e-08
0.0278324 -1.37564e-06 -2.55222e-08
0.0278323 -9.11396e-07 -2.0391e-08
0.0278321 -6.05481e-07 -1.57096e-08
0.027832 -4.02916e-07 -1.1831e-08
0.0278319 -2.6829e-07 -8.7779e-09
0.0278319 -1.78585e-07 -6.44702e-09
0.0278318 -1.18724e-07 -4.70196e-09
0.0278318 -7.87629e-08 -3.41254e-09
0.0278318 -5.21051e-08 -2.46875e-09
0.0278318 -3.43556e-08 -1.78337e-09
0.0278318 -2.25751e-08 -1.29021e-09
0.0278318 -1.47905e-08 -9.41231e-10
0.0278317 -9.6708e-09 -7.03524e-10
0.0278317 -6.30928e-09 -5.56455e-10
0.0278317 -4.07416e-09 -4.90514e-10
0.0278317 -2.50344e-09 -5.19498e-10
0.0278317 -1.2157e-09 -6.73795e-10
0.0278317 2.05117e-10 -8.1969e-10
0.0278317 2.20471e-09 -1.8647e-09
0.0278317 4.90733e-09 -7.32262e-09
0.0278317 6.41255e-09 -1.17693e-08
0.018 -1.20756e-08 -5.18818e-08
0.018 -0.00132061 -0.00315782
0.0185758 -0.00208632 -0.00679225
0.0192033 -0.000500807 -0.00637946
0.018928 0.00229539 -0.0046491
0.0189035 0.00776304 -0.00309648
0.0193005 0.0128174 -0.00168923
0.0119001 0.0070848 -0.000758921
1.25462e-06 -8.15604e-07 -0.000262056
-4.76162e-07 -9.33249e-07 7.67908e-09
1.26814e-07 -0.000321567 0.000900901
0.00948412 -0.00353418 0.00130576
0.0172413 -0.00718121 0.000368469
0.0223755 -0.00700361 -0.000234815
0.025339 -0.00484648 -0.000348315
0.0267666 -0.00279591 -0.000221384
0.0273552 -0.00151722 -9.8523e-05
0.0275715 -0.00082678 -3.60059e-05
0.0276408 -0.000459463 -1.17248e-05
0.0276561 -0.0002595 -3.56804e-06
0.0276536 -0.000148353 -1.07949e-06
0.0276466 -8.57322e-05 -3.82401e-07
0.0276397 -5.00895e-05 -2.00157e-07
0.027634 -2.96018e-05 -1.47586e-07
0.0276297 -1.77011e-05 -1.20985e-07
0.0276265 -1.07101e-05 -9.80893e-08
0.0276243 -6.55455e-06 -7.68097e-08
0.0276227 -4.05461e-06 -5.83051e-08
0.0276216 -2.53269e-06 -4.32598e-08
0.0276208 -1.59554e-06 -3.16047e-08
0.0276203 -1.01229e-06 -2.28624e-08
0.0276199 -6.45794e-07 -1.64399e-08
0.0276196 -4.13578e-07 -1.17826e-08
0.0276194 -2.65425e-07 -8.43144e-09
0.0276193 -1.70398e-07 -6.03045e-09
0.0276192 -1.09223e-07 -4.31392e-09
0.0276192 -6.97615e-08 -3.08776e-09
0.0276191 -4.4302e-08 -2.21213e-09
0.0276191 -2.7904e-08 -1.58713e-09
0.0276191 -1.73812e-08 -1.14197e-09
0.0276191 -1.06661e-08 -8.27001e-10
0.027619 -6.40885e-09 -6.08226e-10
0.027619 -3.71979e-09 -4.63706e-10
0.027619 -2.00118e-09 -3.81098e-10
0.027619 -8.33125e-10 -3.56277e-10
0.027619 1.0664e-10 -4.06489e-10
0.027619 1.11021e-09 -5.67973e-10
0.027619 2.59342e-09 -6.96471e-10
0.027619 5.32996e-09 -1.63451e-09
0.027619 9.69084e-09 -7.07849e-09
0.027619 1.22439e-08 -1.15996e-08
0.0148 -7.7038e-09 -4.48601e-08
0.0148 -0.000410749 -0.00297049
0.0167321 -3.49844e-05 -0.00611241
0.0192941 0.0018184 -0.00535904
0.0216077 0.00442476 -0.00369735
0.0236978 0.00756013 -0.00257936
0.0270484 0.0126472 -0.00169002
0.0300815 0.0201293 -0.000917768
0.0243773 0.0120601 -0.000133418
0.0250005 1.48509e-14 0.000499523
0.0292396 -0.00714499 0.00166768
0.0342143 -0.0145283 0.00248843
0.0343838 -0.013303 0.00156202
0.0319849 -0.00978638 0.000319558
0.0296227 -0.00596801 -0.000339637
0.028117 -0.00313833 -0.000365853
0.0272853 -0.0015428 -0.000207509
0.0268372 -0.000759309 -9.24266e-05
0.0265922 -0.000384919 -3.7091e-05
0.0264556 -0.000201484 -1.4236e-05
0.0263781 -0.000108327 -5.36923e-06
0.0263332 -5.94929e-05 -2.01553e-06
0.0263069 -3.32339e-05 -7.56079e-07
0.0262912 -1.88261e-05 -2.81337e-07
0.0262817 -1.07902e-05 -1.00639e-07
0.0262759 -6.2463e-06 -3.12984e-08
0.0262722 -3.64633e-06 -4.93315e-09
0.0262699 -2.14297e-06 4.48338e-09
0.0262685 -1.26555e-06 7.1287e-09
0.0262675 -7.4929e-07 7.11732e-09
0.0262669 -4.43477e-07 6.16248e-09
0.0262665 -2.61412e-07 4.98424e-09
0.0262662 -1.52704e-07 3.87415e-09
0.026266 -8.77802e-08 2.93384e-09
0.0262659 -4.91285e-08 2.1812e-09
0.0262658 -2.62928e-08 1.59951e-09
0.0262658 -1.29863e-08 1.1604e-09
0.0262658 -5.40795e-09 8.34299e-10
0.0262657 -1.25053e-09 5.94741e-10
0.0262657 8.89598e-10 4.19589e-10
0.0262657 1.86745e-09 2.90845e-10
0.0262657 2.20543e-09 1.93736e-10
0.0262657 2.22681e-09 1.15428e-10
0.0262657 2.14042e-09 4.38139e-11
0.0262657 2.09868e-09 -3.33963e-11
0.0262657 2.24511e-09 -1.40532e-10
0.0262657 2.74945e-09 -3.15639e-10
0.0262657 3.93135e-09 -4.34178e-10
0.0262657 6.86242e-09 -1.23856e-09
0.0262657 1.24213e-08 -6.50267e-09
0.0262657 1.58657e-08 -1.09714e-08
0.01 -1.46563e-08 -4.02116e-08
0.01 -0.000236506 -0.00251223
0.0122187 0.000213952 -0.0048214
0.0154776 0.00147912 -0.00378607
0.0190512 0.00307345 -0.00240287