# vtk DataFile Version 2.0
Tobias Weinzierl: CPU, Manycore and Cluster Computing
ASCII

DATASET STRUCTURED_POINTS
DIMENSIONS  51 11 6

ORIGIN 0 0 0 

SPACING 0.1 0.1 0.1 

POINT_DATA 3366

VECTORS velocity float
0 0 0
-9.48994e-15 0 0
-6.54824e-09 0 0
-8.88541e-09 0 0
-7.48819e-09 0 0
-2.66769e-09 0 0
-2.9794e-09 0 0
-4.92518e-09 0 0
-6.72977e-09 0 0
-7.63121e-09 0 0
-7.67859e-09 0 0
-7.47627e-09 0 0
-7.32844e-09 0 0
-7.28275e-09 0 0
-7.31372e-09 0 0
-7.38317e-09 0 0
-7.46084e-09 0 0
-7.53046e-09 0 0
-7.58635e-09 0 0
-7.62849e-09 0 0
-7.65908e-09 0 0
-7.6808e-09 0 0
-7.69604e-09 0 0
-7.70666e-09 0 0
-7.71405e-09 0 0
-7.71921e-09 0 0
-7.72282e-09 0 0
-7.72536e-09 0 0
-7.72715e-09 0 0
-7.72842e-09 0 0
-7.72932e-09 0 0
-7.72997e-09 0 0
-7.73043e-09 0 0
-7.73076e-09 0 0
-7.73099e-09 0 0
-7.73117e-09 0 0
-7.73129e-09 0 0
-7.73138e-09 0 0
-7.73144e-09 0 0
-7.73148e-09 0 0
-7.73152e-09 0 0
-7.73154e-09 0 0
-7.73156e-09 0 0
-7.73157e-09 0 0
-7.73158e-09 0 0
-7.73158e-09 0 0
-7.73159e-09 0 0
-7.73159e-09 0 0
-7.7316e-09 0 0
-7.73161e-09 0 0
0.00354423 0 0
0 7.79292e-09 0
6.48904e-15 4.09772e-09 0
-1.30044e-08 5.99838e-09 0
-1.71649e-08 2.82921e-09 0
-1.3227e-08 4.5334e-10 0
-4.21628e-09 1.0862e-09 0
-3.6292e-09 3.40053e-09 0
-6.11137e-09 3.08459e-09 0
-8.09311e-09 1.89906e-09 0
-9.74271e-09 7.79021e-10 0
-1.01473e-08 9.96836e-11 0
-1.03677e-08 -3.21201e-11 0
-1.07574e-08 2.72539e-11 0
-1.12128e-08 9.76102e-11 0
-1.16553e-08 1.41471e-10 0
-1.20406e-08 1.5306e-10 0
-1.23477e-08 1.40615e-10 0
-1.25771e-08 1.16883e-10 0
-1.2741e-08 9.11911e-11 0
-1.28547e-08 6.82924e-11 0
-1.29321e-08 4.98075e-11 0
-1.29845e-08 3.57259e-11 0
-1.30197e-08 2.53759e-11 0
-1.30435e-08 1.79355e-11 0
-1.30597e-08 1.26562e-11 0
-1.30708e-08 8.93604e-12 0
-1.30784e-08 6.32124e-12 0
-1.30838e-08 4.48291e-12 0
-1.30875e-08 3.18788e-12 0
-1.30901e-08 2.27291e-12 0
-1.3092e-08 1.62433e-12 0
-1.30933e-08 1.16311e-12 0
-1.30943e-08 8.34151e-13 0
-1.3095e-08 5.98934e-13 0
-1.30955e-08 4.30397e-13 0
-1.30958e-08 3.09444e-13 0
-1.30961e-08 2.22534e-13 0
-1.30963e-08 1.60033e-13 0
-1.30964e-08 1.15061e-13 0
-1.30965e-08 8.26917e-14 0
-1.30966e-08 5.9388e-14 0
-1.30966e-08 4.26087e-14 0
-1.30967e-08 3.05244e-14 0
-1.30967e-08 2.1821e-14 0
-1.30967e-08 1.55635e-14 0
-1.30967e-08 1.10864e-14 0
-1.30967e-08 7.97253e-15 0
-1.30967e-08 6.57173e-15 0
-1.30968e-08 1.11816e-14 0
-1.30968e-08 3.24034e-14 0
0.0087691 -8.37083e-09 0
0 1.10664e-09 0
7.31036e-14 5.37237e-09 0
-1.1731e-08 7.00722e-09 0
-1.47104e-08 2.55278e-09 0
-7.5287e-09 8.61595e-10 0
-3.88608e-09 1.17699e-09 0
-5.33527e-09 2.49279e-09 0
-7.64389e-09 7.61313e-10 0
-5.94865e-09 -9.73048e-11 0
-5.35597e-09 1.06319e-09 0
-5.15921e-09 1.67955e-09 0
-5.46832e-09 2.10159e-09 0
-6.23149e-09 1.96911e-09 0
-6.98787e-09 1.54336e-09 0
-7.63865e-09 1.13596e-09 0
-8.1567e-09 8.16849e-10 0
-8.53935e-09 5.76799e-10 0
-8.80634e-09 4.0066e-10 0
-8.98569e-09 2.74702e-10 0
-9.10351e-09 1.86702e-10 0
-9.18011e-09 1.26341e-10 0
-9.22987e-09 8.54604e-11 0
-9.26236e-09 5.79725e-11 0
-9.28381e-09 3.95327e-11 0
-9.29815e-09 2.71415e-11 0
-9.30787e-09 1.87749e-11 0
-9.31455e-09 1.30863e-11 0
-9.3192e-09 9.18712e-12 0
-9.32247e-09 6.49149e-12 0
-9.32478e-09 4.61239e-12 0
-9.32644e-09 3.29244e-12 0
-9.32763e-09 2.359e-12 0
-9.32849e-09 1.69512e-12 0
-9.32912e-09 1.22075e-12 0
-9.32957e-09 8.80535e-13 0
-9.32989e-09 6.3583e-13 0
-9.33013e-09 4.59443e-13 0
-9.33031e-09 3.32101e-13 0
-9.33043e-09 2.40066e-13 0
-9.33052e-09 1.735e-13 0
-9.33059e-09 1.25333e-13 0
-9.33064e-09 9.04728e-14 0
-9.33067e-09 6.52533e-14 0
-9.3307e-09 4.70497e-14 0
-9.33072e-09 3.40444e-14 0
-9.33073e-09 2.51554e-14 0
-9.33074e-09 2.00695e-14 0
-9.33075e-09 1.91294e-14 0
-9.33076e-09 2.19353e-14 0
-9.33077e-09 2.86767e-14 0
0.0106848 -8.3329e-09 0
0 -8.52716e-09 0
1.26173e-13 3.49235e-09 0
-1.0596e-08 2.55863e-09 0
-1.38989e-08 -2.62771e-09 0
-5.78121e-09 -5.72511e-10 0
-2.33749e-09 1.12148e-09 0
-4.68549e-09 -1.52506e-14 0
-6.4577e-09 -5.53371e-09 0
-1.17011e-08 -8.6883e-09 0
-9.60506e-09 -3.33925e-09 0
-8.03274e-09 1.28598e-09 0
-7.27355e-09 3.35982e-09 0
-7.03154e-09 3.39941e-09 0
-6.93515e-09 2.59312e-09 0
-7.00965e-09 1.83791e-09 0
-7.16573e-09 1.271e-09 0
-7.31868e-09 8.62936e-10 0
-7.43667e-09 5.77773e-10 0
-7.5185e-09 3.83702e-10 0
-7.57265e-09 2.54192e-10 0
-7.60799e-09 1.68798e-10 0
-7.63122e-09 1.12775e-10 0
-7.64674e-09 7.5994e-11 0
-7.65735e-09 5.17182e-11 0
-7.66475e-09 3.55604e-11 0
-7.67e-09 2.46935e-11 0
-7.67378e-09 1.73026e-11 0
-7.67652e-09 1.22193e-11 0
-7.67852e-09 8.68645e-12 0
-7.67999e-09 6.20816e-12 0
-7.68106e-09 4.45574e-12 0
-7.68185e-09 3.2084e-12 0
-7.68243e-09 2.31584e-12 0
-7.68285e-09 1.67449e-12 0
-7.68316e-09 1.2122e-12 0
-7.68339e-09 8.78198e-13 0
-7.68356e-09 6.36473e-13 0
-7.68368e-09 4.6133e-13 0
-7.68377e-09 3.34334e-13 0
-7.68383e-09 2.42206e-13 0
-7.68388e-09 1.75358e-13 0
-7.68392e-09 1.26854e-13 0
-7.68394e-09 9.1682e-14 0
-7.68396e-09 6.62271e-14 0
-7.68397e-09 4.7883e-14 0
-7.68398e-09 3.4758e-14 0
-7.68399e-09 2.55649e-14 0
-7.68399e-09 1.9654e-14 0
-7.68399e-09 1.7206e-14 0
-7.68399e-09 1.80848e-14 0
0.0109429 -5.54898e-09 0
0 -1.62718e-08 0
1.29432e-13 9.77695e-10 0
-1.1199e-08 -1.17498e-09 0
-1.57128e-08 -4.02361e-09 0
-9.81103e-09 -1.74441e-09 0
-3.11897e-14 1.26474e-10 0
-4.45607e-13 -4.8733e-13 0
4.16517e-13 -4.89848e-13 0
-7.1158e-09 -4.86131e-09 0
-1.15829e-08 -6.6592e-09 0
-9.95713e-09 -1.03702e-09 0
-9.68698e-09 2.34339e-09 0
-9.22824e-09 2.91249e-09 0
-8.47052e-09 2.33908e-09 0
-7.94755e-09 1.74232e-09 0
-7.67387e-09 1.24141e-09 0
-7.53935e-09 8.4924e-10 0
-7.47194e-09 5.66722e-10 0
-7.43697e-09 3.74738e-10 0
-7.41858e-09 2.48273e-10 0
-7.40922e-09 1.65923e-10 0
-7.40491e-09 1.12233e-10 0
-7.40342e-09 7.69103e-11 0
-7.4034e-09 5.33626e-11 0
-7.40409e-09 3.74323e-11 0
-7.40503e-09 2.64992e-11 0
-7.40599e-09 1.88979e-11 0
-7.40685e-09 1.35542e-11 0
-7.40759e-09 9.76356e-12 0
-7.40818e-09 7.05534e-12 0
-7.40865e-09 5.10984e-12 0
-7.40901e-09 3.70654e-12 0
-7.40929e-09 2.6913e-12 0
-7.4095e-09 1.95526e-12 0
-7.40965e-09 1.42088e-12 0
-7.40977e-09 1.03255e-12 0
-7.40985e-09 7.50211e-13 0
-7.40992e-09 5.44876e-13 0
-7.40996e-09 3.95537e-13 0
-7.41e-09 2.8693e-13 0
-7.41002e-09 2.07952e-13 0
-7.41004e-09 1.50516e-13 0
-7.41005e-09 1.08724e-13 0
-7.41006e-09 7.82682e-14 0
-7.41007e-09 5.60269e-14 0
-7.41007e-09 3.97853e-14 0
-7.41008e-09 2.80009e-14 0
-7.41007e-09 1.96292e-14 0
-7.41007e-09 1.41647e-14 0
-7.41008e-09 1.08859e-14 0
0.0109675 -2.60255e-09 0
0 -1.43779e-08 0
1.28946e-13 -5.35254e-10 0
-1.14139e-08 -2.18299e-09 0
-1.66409e-08 -3.55568e-09 0
-1.26049e-08 -3.50677e-09 0
-4.04439e-09 -1.59884e-09 0
-4.41722e-13 4.22908e-13 0
-6.39722e-15 6.39722e-15 0
3.91823e-13 -4.41206e-13 0
-5.22229e-09 -2.6585e-09 0
-7.36733e-09 -1.61747e-09 0
-1.02816e-08 2.82936e-09 0
-1.11424e-08 2.92914e-09 0
-1.00909e-08 1.89774e-09 0
-8.98461e-09 1.28085e-09 0
-8.2797e-09 8.78177e-10 0
-7.88178e-09 5.90354e-10 0
-7.66193e-09 3.94139e-10 0
-7.53981e-09 2.65677e-10 0
-7.47142e-09 1.82286e-10 0
-7.4329e-09 1.27443e-10 0
-7.41117e-09 9.05384e-11 0
-7.39892e-09 6.50952e-11 0
-7.39203e-09 4.71842e-11 0
-7.38817e-09 3.43758e-11 0
-7.38601e-09 2.51172e-11 0
-7.38482e-09 1.83787e-11 0
-7.38416e-09 1.34547e-11 0
-7.3838e-09 9.8492e-12 0
-7.3836e-09 7.20683e-12 0
-7.38349e-09 5.2701e-12 0
-7.38343e-09 3.85106e-12 0
-7.3834e-09 2.81193e-12 0
-7.38339e-09 2.05155e-12 0
-7.38338e-09 1.49558e-12 0
-7.38338e-09 1.0894e-12 0
-7.38337e-09 7.92879e-13 0
-7.38337e-09 5.76584e-13 0
-7.38337e-09 4.18918e-13 0
-7.38337e-09 3.04055e-13 0
-7.38337e-09 2.20407e-13 0
-7.38337e-09 1.59489e-13 0
-7.38337e-09 1.15098e-13 0
-7.38337e-09 8.26938e-14 0
-7.38337e-09 5.89461e-14 0
-7.38337e-09 4.13904e-14 0
-7.38337e-09 2.82035e-14 0
-7.38337e-09 1.80963e-14 0
-7.38336e-09 1.02484e-14 0
-7.38337e-09 3.8891e-15 0
0.0109692 2.40282e-10 0
0 -1.02111e-08 0
1.24421e-13 -1.60438e-09 0
-1.083e-08 -3.37866e-09 0
-1.64563e-08 -2.79665e-09 0
-1.33646e-08 -2.02295e-09 0
-8.7794e-09 -3.25913e-09 0
-4.18795e-09 -2.25854e-09 0
-4.46312e-13 3.99501e-13 0
-7.68296e-15 7.68296e-15 0
3.76126e-13 -4.07516e-13 0
-2.75247e-09 3.40305e-09 0
-1.05155e-08 6.23505e-09 0
-1.39469e-08 3.68176e-09 0
-1.21142e-08 1.08944e-09 0
-9.86043e-09 3.66725e-10 0
-8.60079e-09 2.22529e-10 0
-8.00653e-09 1.72725e-10 0
-7.72541e-09 1.41276e-10 0
-7.58594e-09 1.1725e-10 0
-7.51311e-09 9.69258e-11 0
-7.47319e-09 7.8931e-11 0
-7.45026e-09 6.30926e-11 0
-7.4365e-09 4.95423e-11 0
-7.42791e-09 3.83109e-11 0
-7.42236e-09 2.92566e-11 0
-7.41867e-09 2.21191e-11 0
-7.41616e-09 1.65903e-11 0
-7.41443e-09 1.23652e-11 0
-7.41321e-09 9.16986e-12 0
-7.41234e-09 6.77295e-12 0
-7.41173e-09 4.98629e-12 0
-7.41128e-09 3.66118e-12 0
-7.41096e-09 2.68228e-12 0
-7.41072e-09 1.96145e-12 0
-7.41055e-09 1.43205e-12 0
-7.41043e-09 1.04407e-12 0
-7.41033e-09 7.60239e-13 0
-7.41027e-09 5.52915e-13 0
-7.41022e-09 4.01662e-13 0
-7.41018e-09 2.91424e-13 0
-7.41016e-09 2.11132e-13 0
-7.41014e-09 1.5266e-13 0
-7.41013e-09 1.10047e-13 0
-7.41012e-09 7.89108e-14 0
-7.41011e-09 5.60035e-14 0
-7.4101e-09 3.88698e-14 0
-7.4101e-09 2.55925e-14 0
-7.41009e-09 1.46898e-14 0
-7.41009e-09 5.12087e-15 0
-7.41009e-09 -3.64555e-15 0
0.0109675 3.05175e-09 0
0 -7.4149e-09 0
9.96897e-14 -2.43043e-09 0
-1.03496e-08 -4.16791e-09 0
-1.55213e-08 -2.55218e-09 0
-1.31527e-08 -1.39196e-09 0
-9.7006e-09 -1.79559e-09 0
-8.42856e-09 -4.75374e-09 0
-5.74461e-09 -3.53542e-09 0
-4.63618e-13 3.35381e-13 0
3.53352e-13 2.71871e-13 0
4.67282e-14 7.42325e-09 0
-8.41239e-09 1.23087e-08 0
-1.40219e-08 5.01835e-09 0
-1.27131e-08 -5.84763e-10 0
-1.00709e-08 -1.10643e-09 0
-8.63517e-09 -5.38388e-10 0
-8.06822e-09 -1.93296e-10 0
-7.86341e-09 -4.18788e-11 0
-7.78709e-09 2.18595e-11 0
-7.75423e-09 4.54306e-11 0
-7.73631e-09 4.9884e-11 0
-7.72419e-09 4.58221e-11 0
-7.715e-09 3.87029e-11 0
-7.70776e-09 3.11744e-11 0
-7.70207e-09 2.43784e-11 0
-7.69764e-09 1.86936e-11 0
-7.69422e-09 1.41408e-11 0
-7.69163e-09 1.0593e-11 0
-7.68967e-09 7.87837e-12 0
-7.68819e-09 5.82766e-12 0
-7.6871e-09 4.29271e-12 0
-7.68628e-09 3.15164e-12 0
-7.68568e-09 2.30775e-12 0
-7.68523e-09 1.68616e-12 0
-7.68491e-09 1.22975e-12 0
-7.68467e-09 8.95484e-13 0
-7.68449e-09 6.51173e-13 0
-7.68436e-09 4.72913e-13 0
-7.68426e-09 3.43028e-13 0
-7.6842e-09 2.48492e-13 0
-7.68414e-09 1.79733e-13 0
-7.68411e-09 1.29727e-13 0
-7.68408e-09 9.33222e-14 0
-7.68406e-09 6.67219e-14 0
-7.68405e-09 4.71031e-14 0
-7.68404e-09 3.22894e-14 0
-7.68403e-09 2.0452e-14 0
-7.68402e-09 9.89635e-15 0
-7.68402e-09 -8.87997e-16 0
-7.68402e-09 -1.22692e-14 0
0.0109429 5.88972e-09 0
0 -6.99041e-09 0
6.65351e-14 -2.7729e-09 0
-1.02567e-08 -4.48514e-09 0
-1.47537e-08 -2.27899e-09 0
-1.34016e-08 -9.04613e-10 0
-1.10259e-08 -1.09995e-09 0
-9.16981e-09 -2.53618e-09 0
-1.05482e-08 -6.68181e-09 0
-9.16603e-09 -4.9077e-09 0
-1.15885e-08 -6.80418e-18 0
-1.12579e-08 7.9298e-09 0
-7.29984e-09 1.41917e-08 0
-7.17211e-09 6.23314e-09 0
-8.73669e-09 -1.40953e-09 0
-9.16737e-09 -2.10434e-09 0
-9.2317e-09 -9.67129e-10 0
-9.29235e-09 -2.96401e-10 0
-9.3473e-09 -4.3197e-11 0
-9.37893e-09 3.58573e-11 0
-9.38997e-09 5.32778e-11 0
-9.38863e-09 5.05142e-11 0
-9.38155e-09 4.22102e-11 0
-9.37272e-09 3.34111e-11 0
-9.36416e-09 2.57093e-11 0
-9.3567e-09 1.94534e-11 0
-9.35057e-09 1.45594e-11 0
-9.34571e-09 1.08137e-11 0
-9.34195e-09 7.98694e-12 0
-9.33909e-09 5.87419e-12 0
-9.33692e-09 4.30607e-12 0
-9.33531e-09 3.14823e-12 0
-9.33411e-09 2.29674e-12 0
-9.33322e-09 1.6725e-12 0
-9.33256e-09 1.21603e-12 0
-9.33208e-09 8.82933e-13 0
-9.33173e-09 6.40284e-13 0
-9.33147e-09 4.63787e-13 0
-9.33128e-09 3.35571e-13 0
-9.33114e-09 2.42528e-13 0
-9.33104e-09 1.75066e-13 0
-9.33096e-09 1.26176e-13 0
-9.33091e-09 9.07399e-14 0
-9.33087e-09 6.50155e-14 0
-9.33084e-09 4.62498e-14 0
-9.33082e-09 3.2389e-14 0
-9.33081e-09 2.18299e-14 0
-9.3308e-09 1.31102e-14 0
-9.33079e-09 4.3951e-15 0
-9.33079e-09 -7.23023e-15 0
-9.3308e-09 -2.37473e-14 0
0.0106848 8.43395e-09 0
0 -7.84475e-09 0
3.64285e-14 -1.94221e-09 0
-1.03972e-08 -3.08472e-09 0
-1.47485e-08 -1.5767e-09 0
-1.48425e-08 -7.85994e-10 0
-1.41778e-08 -1.05775e-09 0
-1.30015e-08 -1.68243e-09 0
-1.21079e-08 -1.28568e-09 0
-1.52215e-08 2.44686e-09 0
-1.58351e-08 2.80815e-09 0
-1.65319e-08 -2.72435e-09 0
-1.24469e-08 -4.25995e-09 0
-1.12064e-08 -1.05586e-09 0
-1.28702e-08 1.38536e-09 0
-1.35969e-08 1.68343e-09 0
-1.35718e-08 1.13329e-09 0
-1.34325e-08 6.14677e-10 0
-1.33317e-08 3.127e-10 0
-1.32675e-08 1.62626e-10 0
-1.32243e-08 9.02837e-11 0
-1.31929e-08 5.40026e-11 0
-1.31692e-08 3.43976e-11 0
-1.31511e-08 2.29135e-11 0
-1.31373e-08 1.5714e-11 0
-1.31268e-08 1.09742e-11 0
-1.3119e-08 7.75094e-12 0
-1.31131e-08 5.51309e-12 0
-1.31087e-08 3.93878e-12 0
-1.31055e-08 2.82185e-12 0
-1.31032e-08 2.02506e-12 0
-1.31014e-08 1.45462e-12 0
-1.31001e-08 1.04531e-12 0
-1.30992e-08 7.51205e-13 0
-1.30985e-08 5.39724e-13 0
-1.30981e-08 3.87609e-13 0
-1.30977e-08 2.78197e-13 0
-1.30974e-08 1.99521e-13 0
-1.30973e-08 1.42968e-13 0
-1.30971e-08 1.02338e-13 0
-1.3097e-08 7.31601e-14 0
-1.30969e-08 5.22106e-14 0
-1.30969e-08 3.71605e-14 0
-1.30969e-08 2.63221e-14 0
-1.30968e-08 1.84599e-14 0
-1.30968e-08 1.2643e-14 0
-1.30968e-08 8.12136e-15 0
-1.30968e-08 4.13723e-15 0
-1.30968e-08 -7.06878e-16 0
-1.30968e-08 -1.09873e-14 0
-1.30968e-08 -3.41332e-14 0
0.0087691 8.11987e-09 0
0 0 0
1.37247e-14 0 0
-5.19622e-09 0 0
-7.45575e-09 0 0
-8.01414e-09 0 0
-8.11747e-09 0 0
-8.07234e-09 0 0
-7.30437e-09 0 0
-6.05555e-09 0 0
-4.24668e-09 0 0
-5.274e-09 0 0
-8.33519e-09 0 0
-1.02524e-08 0 0
-1.02301e-08 0 0
-9.38969e-09 0 0
-8.64677e-09 0 0
-8.21052e-09 0 0
-7.98937e-09 0 0
-7.88006e-09 0 0
-7.82358e-09 0 0
-7.792e-09 0 0
-7.77285e-09 0 0
-7.76044e-09 0 0
-7.75204e-09 0 0
-7.74619e-09 0 0
-7.74206e-09 0 0
-7.73912e-09 0 0
-7.73701e-09 0 0
-7.73549e-09 0 0
-7.7344e-09 0 0
-7.73362e-09 0 0
-7.73305e-09 0 0
-7.73264e-09 0 0
-7.73235e-09 0 0
-7.73214e-09 0 0
-7.73198e-09 0 0
-7.73188e-09 0 0
-7.7318e-09 0 0
-7.73174e-09 0 0
-7.7317e-09 0 0
-7.73167e-09 0 0
-7.73165e-09 0 0
-7.73164e-09 0 0
-7.73163e-09 0 0
-7.73162e-09 0 0
-7.73162e-09 0 0
-7.73161e-09 0 0
-7.73161e-09 0 0
-7.73161e-09 0 0
-7.73163e-09 0 0
0.00354424 0 0
0 0 7.46102e-09
2.95014e-14 0 2.45053e-09
-1.39956e-08 0 2.88702e-09
-1.95431e-08 0 -1.88927e-09
-1.68465e-08 0 -6.67105e-09
-6.81859e-10 0 -5.59498e-09
9.03484e-10 0 -1.14304e-09
-1.80123e-09 0 6.6578e-10
-4.92577e-09 0 8.06962e-10
-7.08769e-09 0 1.69795e-10
-8.29904e-09 0 -2.54623e-10
-9.25537e-09 0 -3.18028e-10
-1.01258e-08 0 -2.20766e-10
-1.08603e-08 0 -1.12333e-10
-1.14553e-08 0 -4.10577e-11
-1.19249e-08 0 -5.93909e-12
-1.22813e-08 0 6.67633e-12
-1.25413e-08 0 8.63103e-12
-1.2725e-08 0 6.83844e-12
-1.28519e-08 0 4.43779e-12
-1.29384e-08 0 2.50792e-12
-1.29968e-08 0 1.22869e-12
-1.30362e-08 0 4.77725e-13
-1.30629e-08 0 8.16311e-14
-1.3081e-08 0 -1.01256e-13
-1.30934e-08 0 -1.66917e-13
-1.31019e-08 0 -1.73887e-13
-1.31078e-08 0 -1.55195e-13
-1.3112e-08 0 -1.28162e-13
-1.31149e-08 0 -1.01091e-13
-1.3117e-08 0 -7.7412e-14
-1.31184e-08 0 -5.80981e-14
-1.31195e-08 0 -4.29886e-14
-1.31203e-08 0 -3.14841e-14
-1.31208e-08 0 -2.28848e-14
-1.31212e-08 0 -1.65402e-14
-1.31215e-08 0 -1.19025e-14
-1.31217e-08 0 -8.53571e-15
-1.31219e-08 0 -6.10295e-15
-1.3122e-08 0 -4.35062e-15
-1.3122e-08 0 -3.08912e-15
-1.31221e-08 0 -2.17675e-15
-1.31221e-08 0 -1.50913e-15
-1.31222e-08 0 -1.00624e-15
-1.31222e-08 0 -6.13395e-16
-1.31222e-08 0 -3.29778e-16
-1.31222e-08 0 -1.98086e-16
-1.31222e-08 0 2.60936e-16
-1.31222e-08 0 5.40111e-15
-1.31223e-08 0 2.63683e-14
0.00876745 0 -7.09249e-09
0.0036 6.10071e-09 4.61892e-09
0.00359999 -0.00279128 -0.00113196
0.00970367 -0.00688384 -0.00274895
0.019208 -0.00909807 -0.00332558
0.0306715 -0.0110681 -0.00319841
0.0464208 -0.00674894 -0.00173615
0.0477717 2.77719e-05 -0.00012466
0.0470799 0.00286511 0.000326183
0.0417101 0.00441533 0.000194537
0.036317 0.00421894 -0.00012707
0.0316731 0.0034611 -0.000232146
0.0280961 0.00256643 -0.000192754
0.0256322 0.00175771 -0.000120777
0.0240578 0.0011381 -6.3829e-05
0.0230937 0.000709608 -2.96703e-05
0.0225209 0.000429483 -1.23411e-05
0.02219 0.000253055 -4.59014e-06
0.0220041 0.000145331 -1.49734e-06
0.0219029 8.13524e-05 -4.16387e-07
0.0218498 4.43065e-05 -1.09381e-07
0.0218232 2.33709e-05 -5.78664e-08
0.0218107 1.183e-05 -6.87611e-08
0.0218057 5.64104e-06 -8.16066e-08
0.0218042 2.43192e-06 -8.39155e-08
0.0218043 8.42006e-07 -7.74946e-08
0.0218051 1.07451e-07 -6.65832e-08
0.021806 -1.91281e-07 -5.44819e-08
0.0218069 -2.79082e-07 -4.30996e-08
0.0218076 -2.72997e-07 -3.32929e-08
0.0218081 -2.31576e-07 -2.52827e-08
0.0218085 -1.82425e-07 -1.89643e-08
0.0218088 -1.37281e-07 -1.40975e-08
0.0218091 -1.00103e-07 -1.04106e-08
0.0218092 -7.12909e-08 -7.6507e-09
0.0218094 -4.98165e-08 -5.60234e-09
0.0218094 -3.42458e-08 -4.0916e-09
0.0218095 -2.31905e-08 -2.9826e-09
0.0218095 -1.54749e-08 -2.17148e-09
0.0218096 -1.01712e-08 -1.58022e-09
0.0218096 -6.5781e-09 -1.15098e-09
0.0218096 -4.18085e-09 -8.41701e-10
0.0218096 -2.61037e-09 -6.2261e-10
0.0218096 -1.6073e-09 -4.73902e-10
0.0218096 -9.94141e-10 -3.84238e-10
0.0218096 -6.57526e-10 -3.50434e-10
0.0218096 -5.4131e-10 -3.72888e-10
0.0218096 -6.17977e-10 -3.96862e-10
0.0218096 -9.77173e-10 -3.22135e-10
0.0218096 -3.69513e-09 -1.85107e-09
0.0218096 -1.45136e-08 -1.06571e-08
0.0218097 -2.28902e-08 -1.78608e-08
0.01 6.54776e-09 -4.59083e-09
0.01 -0.00513502 -0.00196208
0.0158176 -0.0133681 -0.00445012
0.0249689 -0.0185098 -0.0047697
0.0362363 -0.0249758 -0.00363303
0.0545911 -0.0157238 -0.000895349
0.0538998 -0.000233788 0.00106153
0.0545255 0.00618782 0.00118946
0.0478726 0.0108499 0.000692095
0.0411276 0.0101688 -6.57885e-05
0.0358879 0.0083505 -0.000360055
0.032073 0.00613562 -0.000310883
0.0296653 0.00409542 -0.000192913
0.028275 0.00256836 -0.000100083
0.027499 0.00155073 -4.49164e-05
0.0270781 0.000909393 -1.73988e-05
0.0268578 0.000518803 -5.40454e-06
0.0267478 0.000287657 -8.53718e-07
0.0266964 0.000154494 5.34365e-07
0.0266751 7.97849e-05 7.44222e-07
0.0266684 3.90242e-05 6.00972e-07
0.0266683 1.74902e-05 4.0692e-07
0.0266708 6.57483e-06 2.51089e-07
0.0266739 1.36576e-06 1.45568e-07
0.0266769 -8.76321e-07 8.01886e-08
0.0266795 -1.6429e-06 4.19638e-08
0.0266815 -1.72421e-06 2.06035e-08
0.026683 -1.52473e-06 9.16027e-09
0.0266842 -1.24164e-06 3.31426e-09
0.026685 -9.63703e-07 5.15396e-10
0.0266856 -7.25083e-07 -6.85814e-10
0.0266861 -5.33909e-07 -1.08747e-09
0.0266864 -3.87e-07 -1.11557e-09
0.0266866 -2.77175e-07 -9.89538e-10
0.0266868 -1.96648e-07 -8.17157e-10
0.0266869 -1.38441e-07 -6.47565e-10
0.026687 -9.68282e-08 -5.00185e-10
0.026687 -6.73388e-08 -3.8017e-10
0.0266871 -4.65954e-08 -2.86446e-10
0.0266871 -3.21006e-08 -2.1583e-10
0.0266871 -2.20385e-08 -1.65118e-10
0.0266871 -1.51068e-08 -1.32198e-10
0.0266871 -1.03854e-08 -1.16709e-10
0.0266871 -7.24042e-09 -1.20181e-10
0.0266872 -5.26234e-09 -1.45117e-10
0.0266872 -4.27783e-09 -1.92072e-10
0.0266872 -4.59134e-09 -2.21482e-10
0.0266872 -7.20201e-09 -1.56212e-10
0.0266872 -1.24278e-08 -2.12273e-09
0.0266872 -1.98196e-08 -1.28193e-08
0.0266872 -2.40341e-08 -2.14835e-08
0.0148 -1.27205e-08 -5.20392e-09
0.0148 -0.00669499 -0.00260006
0.0191412 -0.0174401 -0.00599953
0.0248932 -0.0248543 -0.00621452
0.0283852 -0.0369963 -0.00409215
0.02738 -0.0228873 -0.000732994
0.0261658 -1.58114e-07 0.00103432
0.0268186 0.00873395 0.00109238
0.0320754 0.0177852 0.000868962
0.0311922 0.0163394 0.00024738
0.0292448 0.0126894 -0.000130816
0.0278699 0.00892087 -0.000205289
0.0271969 0.00563605 -0.000148923
0.0269919 0.00334639 -7.90599e-05
0.0269817 0.00192554 -3.11852e-05
0.027041 0.00107813 -7.34958e-06
0.0271146 0.000585724 1.7252e-06
0.0271802 0.000307123 3.9069e-06
0.0272313 0.000153835 3.54567e-06
0.0272685 7.20221e-05 2.57075e-06
0.0272944 2.99112e-05 1.67479e-06
0.0273121 9.27159e-06 1.02384e-06
0.0273241 -9.66672e-08 5.99507e-07
0.0273321 -3.76502e-06 3.39809e-07
0.0273375 -4.70138e-06 1.87373e-07
0.0273411 -4.44063e-06 1.006e-07
0.0273436 -3.74569e-06 5.2427e-08
0.0273453 -2.97359e-06 2.62932e-08
0.0273464 -2.27437e-06 1.24558e-08
0.0273472 -1.69694e-06 5.34061e-09
0.0273477 -1.24419e-06 1.82605e-09
0.0273481 -9.00598e-07 1.95875e-10
0.0273483 -6.45552e-07 -4.77136e-10
0.0273485 -4.59193e-07 -6.84497e-10
0.0273486 -3.24604e-07 -6.80827e-10
0.0273487 -2.28273e-07 -5.93977e-10
0.0273488 -1.59813e-07 -4.85218e-10
0.0273488 -1.11447e-07 -3.81701e-10
0.0273489 -7.7449e-08 -2.93737e-10
0.0273489 -5.36649e-08 -2.23871e-10
0.0273489 -3.71091e-08 -1.71608e-10
0.0273489 -2.56582e-08 -1.35867e-10
0.0273489 -1.78224e-08 -1.16267e-10
0.0273489 -1.25875e-08 -1.14191e-10
0.0273489 -9.32462e-09 -1.35592e-10
0.0273489 -7.72011e-09 -1.93423e-10
0.0273489 -7.55919e-09 -2.74496e-10
0.0273489 -8.60787e-09 -3.48329e-10
0.0273489 -1.09954e-08 -2.48744e-09
0.0273489 -1.47032e-08 -1.28461e-08
0.0273489 -1.68232e-08 -2.10985e-08
0.018 -3.02827e-08 -1.15916e-08
0.018 -0.00684388 -0.00335757
0.0195477 -0.0170285 -0.00782247
0.0200024 -0.0205525 -0.00750014
0.0162616 -0.0218286 -0.00482454
-1.09223e-08 -0.0114608 -0.00178931
1.7092e-06 6.57164e-07 5.25821e-09
-7.18752e-07 7.68885e-07 0.000181394
0.00867345 0.00630303 0.000366307
0.0176784 0.0130005 0.000295789
0.0204794 0.0117568 0.000103253
0.0218971 0.00827235 -6.374e-05
0.0234618 0.00503581 -9.64615e-05
0.0247934 0.00281735 -5.55052e-05
0.0257481 0.00151578 -1.59329e-05
0.0263838 0.000780473 3.48651e-06
0.0267891 0.000379449 8.96272e-06
0.0270397 0.000169653 8.35704e-06
0.0271913 6.49358e-05 6.09442e-06
0.0272817 1.57332e-05 3.94912e-06
0.0273351 -5.26139e-06 2.3847e-06
0.0273665 -1.25596e-05 1.37243e-06
0.027385 -1.36278e-05 7.61055e-07
0.0273959 -1.21753e-05 4.08239e-07
0.0274023 -9.96058e-06 2.11403e-07
0.0274062 -7.75734e-06 1.047e-07
0.0274085 -5.85849e-06 4.84898e-08
0.0274099 -4.33416e-06 1.98585e-08
0.0274108 -3.16019e-06 5.9346e-09
0.0274113 -2.27979e-06 -3.50355e-10
0.0274116 -1.63142e-06 -2.79977e-09
0.0274119 -1.16008e-06 -3.41695e-09
0.027412 -8.20712e-07 -3.23019e-09
0.0274121 -5.78152e-07 -2.74896e-09
0.0274122 -4.05788e-07 -2.21215e-09
0.0274122 -2.83885e-07 -1.72125e-09
0.0274122 -1.98014e-07 -1.3106e-09
0.0274122 -1.37739e-07 -9.83733e-10
0.0274123 -9.55693e-08 -7.31732e-10
0.0274123 -6.61657e-08 -5.42117e-10
0.0274123 -4.57425e-08 -4.03065e-10
0.0274123 -3.16325e-08 -3.05397e-10
0.0274123 -2.1972e-08 -2.43859e-10
0.0274123 -1.54708e-08 -2.18846e-10
0.0274123 -1.12307e-08 -2.40865e-10
0.0274123 -8.60829e-09 -3.33738e-10
0.0274123 -7.15844e-09 -4.7367e-10
0.0274123 -6.57608e-09 -5.69612e-10
0.0274123 -6.82552e-09 -2.65042e-09
0.0274123 -7.78664e-09 -1.26584e-08
0.0274123 -8.39118e-09 -2.06095e-08
0.0196 -3.53884e-08 -2.82007e-08
0.0196 -0.00491876 -0.00395567
0.0191258 -0.0110325 -0.0088958
0.017198 -0.0123384 -0.00794543
0.0130058 -0.0102155 -0.00488317
0.00325619 -0.00399088 -0.00230708
1.31819e-06 -1.22148e-06 -0.00042917
5.02731e-07 -5.02731e-07 -9.06145e-10
-6.93663e-07 7.43842e-07 3.32059e-05
0.00629259 0.004468 8.71424e-05
0.0129788 0.0084625 6.7416e-05
0.0161927 0.00597423 -5.38288e-05
0.0199364 0.00278273 -0.00012485
0.0228947 0.00108595 -8.16948e-05
0.0248089 0.000344558 -2.74333e-05
0.0259479 3.77793e-05 8.7934e-07
0.0266009 -7.25806e-05 9.16976e-06
0.0269678 -9.78223e-05 8.82326e-06
0.0271716 -9.0321e-05 6.26547e-06
0.0272838 -7.32316e-05 3.89113e-06
0.0273451 -5.58093e-05 2.23547e-06
0.0273785 -4.11272e-05 1.21571e-06
0.0273965 -2.97248e-05 6.30346e-07
0.0274062 -2.12349e-05 3.10038e-07
0.0274113 -1.50613e-05 1.41524e-07
0.027414 -1.0634e-05 5.63663e-08
0.0274154 -7.48547e-06 1.54978e-08
0.0274162 -5.25803e-06 -2.57324e-09
0.0274165 -3.68743e-06 -9.34377e-09
0.0274167 -2.58245e-06 -1.08087e-08
0.0274167 -1.8063e-06 -1.0006e-08
0.0274167 -1.26185e-06 -8.41745e-09
0.0274167 -8.80363e-07 -6.72375e-09
0.0274167 -6.13362e-07 -5.20475e-09
0.0274167 -4.26703e-07 -3.94766e-09
0.0274167 -2.96371e-07 -2.95324e-09
0.0274167 -2.05493e-07 -2.18844e-09
0.0274167 -1.42221e-07 -1.61126e-09
0.0274167 -9.8246e-08 -1.18175e-09
0.0274167 -6.77479e-08 -8.66224e-10
0.0274167 -4.66532e-08 -6.38436e-10
0.0274167 -3.21153e-08 -4.79735e-10
0.0274167 -2.21449e-08 -3.79234e-10
0.0274167 -1.53468e-08 -3.34378e-10
0.0274167 -1.07335e-08 -3.51752e-10
0.0274167 -7.58463e-09 -4.45646e-10
0.0274167 -5.34321e-09 -5.83717e-10
0.0274167 -3.55813e-09 -6.64708e-10
0.0274167 -1.99902e-09 -2.70543e-09
0.0274167 -5.81746e-10 -1.2578e-08
0.0274167 1.05597e-10 -2.04211e-08
0.0196 -1.94435e-08 -4.22325e-08
0.0196 -0.00257196 -0.00414153
0.0192932 -0.00524226 -0.00888013
0.0186723 -0.00462767 -0.00771279
0.0158868 -0.00124364 -0.00458187
0.0119498 0.00450655 -0.00244344
0.00724055 0.00379284 -0.00104378
1.32054e-06 -1.12243e-06 -0.00020807
4.28764e-07 -4.28764e-07 -1.78896e-09
-6.64365e-07 7.2296e-07 8.82127e-06
0.00446534 0.00184561 0.000176504
0.0102012 0.00134399 0.000106923
0.017104 -0.00161208 -0.000182217
0.0220501 -0.00201803 -0.000191286
0.0247503 -0.00152215 -9.34735e-05
0.0260943 -0.00100873 -2.773e-05
0.0267592 -0.000642329 -2.79241e-06
0.0270911 -0.000403719 3.15181e-06
0.0272573 -0.000253093 3.18745e-06
0.0273401 -0.000159159 2.09972e-06
0.0273808 -0.000100766 1.17266e-06
0.0274004 -6.43764e-05 5.86776e-07
0.0274093 -4.15513e-05 2.61293e-07
0.0274131 -2.71034e-05 9.52113e-08
0.0274144 -1.78603e-05 1.71575e-08
0.0274147 -1.18802e-05 -1.54599e-08
0.0274144 -7.96806e-06 -2.60178e-08
0.027414 -5.38189e-06 -2.66647e-08
0.0274137 -3.65618e-06 -2.34232e-08
0.0274133 -2.49521e-06 -1.91203e-08
0.0274131 -1.70883e-06 -1.49761e-08
0.0274129 -1.17319e-06 -1.14354e-08
0.0274127 -8.06768e-07 -8.58812e-09
0.0274126 -5.55275e-07 -6.37795e-09
0.0274125 -3.82264e-07 -4.69999e-09
0.0274124 -2.63069e-07 -3.44472e-09
0.0274124 -1.8089e-07 -2.51522e-09
0.0274124 -1.24227e-07 -1.83218e-09
0.0274123 -8.51783e-08 -1.33359e-09
0.0274123 -5.82979e-08 -9.72598e-10
0.0274123 -3.98237e-08 -7.15051e-10
0.0274123 -2.71503e-08 -5.37506e-10
0.0274123 -1.84661e-08 -4.25847e-10
0.0274123 -1.24998e-08 -3.74775e-10
0.0274123 -8.33922e-09 -3.89133e-10
0.0274123 -5.2958e-09 -4.82861e-10
0.0274123 -2.78523e-09 -6.21404e-10
0.0274123 -2.23817e-10 -6.91128e-10
0.0274123 2.89644e-09 -2.70725e-09
0.0274123 6.61778e-09 -1.25965e-08
0.0274123 8.58799e-09 -2.04697e-08
0.018 -1.19349e-08 -4.31146e-08
0.018 -0.000682642 -0.00402289
0.0189159 -0.000835066 -0.00835672
0.0201794 0.000466501 -0.00699458
0.0201613 0.00280538 -0.00408528
0.0199505 0.00796345 -0.00220171
0.0202518 0.013265 -0.00112329
0.0125445 0.00748802 -0.000514195
1.35238e-06 -8.9247e-07 -0.000168039
-5.43982e-07 -1.00019e-06 9.55328e-09
1.22864e-07 -0.00178751 0.000632596
0.00999387 -0.00667755 0.000691461
0.0186258 -0.00898448 -8.83747e-05
0.0237805 -0.0064825 -0.0002558
0.0260687 -0.00365906 -0.000154765
0.0269336 -0.00195642 -6.17629e-05
0.0272436 -0.00106592 -2.01401e-05
0.02735 -0.000596075 -5.79554e-06
0.0273814 -0.000340108 -1.48143e-06
0.0273858 -0.000197377 -3.34013e-07
0.0273812 -0.000116428 -8.48914e-08
0.0273747 -6.9816e-05 -5.36788e-08
0.0273685 -4.25623e-05 -5.77243e-08
0.0273634 -2.63728e-05 -5.81496e-08
0.0273595 -1.6598e-05 -5.21768e-08
0.0273566 -1.05989e-05 -4.3216e-08
0.0273544 -6.85748e-06 -3.40189e-08
0.0273528 -4.48816e-06 -2.5934e-08
0.0273517 -2.96638e-06 -1.93744e-08
0.0273509 -1.97648e-06 -1.42903e-08
0.0273503 -1.32541e-06 -1.04562e-08
0.0273499 -8.93168e-07 -7.61273e-09
0.0273496 -6.04011e-07 -5.52557e-09
0.0273494 -4.09401e-07 -4.00326e-09
0.0273493 -2.77825e-07 -2.89731e-09
0.0273492 -1.88577e-07 -2.09583e-09
0.0273491 -1.27916e-07 -1.51606e-09
0.027349 -8.66436e-08 -1.09745e-09
0.027349 -5.85607e-08 -7.96233e-10
0.027349 -3.94653e-08 -5.81202e-10
0.027349 -2.64951e-08 -4.30801e-10
0.0273489 -1.769e-08 -3.31241e-10
0.0273489 -1.1697e-08 -2.75556e-10
0.0273489 -7.5656e-09 -2.63577e-10
0.0273489 -4.60325e-09 -3.03786e-10
0.0273489 -2.26275e-09 -4.14015e-10
0.0273489 -2.57738e-11 -5.64336e-10
0.0273489 2.79503e-09 -6.31875e-10
0.0273489 7.20098e-09 -2.62557e-09
0.0273489 1.34593e-08 -1.26885e-08
0.0273489 1.69727e-08 -2.07504e-08
0.0148 -8.85917e-09 -3.83025e-08
0.0148 0.000323288 -0.00374605
0.0174046 0.00129342 -0.00744785
0.0206971 0.00261566 -0.00589231
0.0231343 0.00458809 -0.00339379
0.0249808 0.00746339 -0.00199833
0.028031 0.0126921 -0.00123819
0.0312611 0.0208195 -0.00066784
0.0256439 0.0126482 -3.70619e-05
0.0272093 1.51251e-14 0.000631845
0.0320966 -0.00834534 0.00154237
0.0352174 -0.0174802 0.0014713
0.0330566 -0.0153388 0.000273636
0.0303339 -0.00935431 -0.000250916
0.0286638 -0.00460848 -0.000231769
0.0277852 -0.00215401 -0.000112529
0.0273191 -0.00104763 -4.36525e-05
0.0270615 -0.000537742 -1.5443e-05
0.0269141 -0.000287709 -5.20321e-06
0.0268274 -0.000158638 -1.66986e-06
0.0267754 -8.95577e-05 -4.86594e-07
0.0267436 -5.15904e-05 -1.03488e-07
0.0267238 -3.0272e-05 1.22455e-08
0.0267112 -1.80741e-05 4.0617e-08
0.0267032 -1.09702e-05 4.17491e-08
0.0266979 -6.762e-06 3.54624e-08
0.0266944 -4.22745e-06 2.81135e-08
0.0266921 -2.67647e-06 2.15831e-08
0.0266906 -1.71306e-06 1.62786e-08
0.0266895 -1.10636e-06 1.21412e-08
0.0266888 -7.19629e-07 8.98513e-09
0.0266883 -4.70516e-07 6.61113e-09
0.0266879 -3.08662e-07 4.84277e-09
0.0266877 -2.02791e-07 3.53503e-09
0.0266875 -1.33198e-07 2.57322e-09
0.0266874 -8.73083e-08 1.86878e-09
0.0266873 -5.70058e-08 1.35439e-09
0.0266873 -3.70003e-08 9.79406e-10
0.0266872 -2.38161e-08 7.05898e-10
0.0266872 -1.5154e-08 5.0538e-10
0.0266872 -9.4833e-09 3.56065e-10
0.0266872 -5.77686e-09 2.40497e-10
0.0266872 -3.33572e-09 1.43388e-10
0.0266872 -1.66866e-09 4.94349e-11
0.0266872 -4.04122e-10 -5.98773e-11
0.0266872 7.82458e-10 -2.08742e-10
0.0266872 2.25143e-09 -3.7817e-10
0.0266872 4.66465e-09 -4.59414e-10
0.0266872 9.72308e-09 -2.40128e-09
0.0266872 1.86584e-08 -1.26177e-08
0.0266872 2.40931e-08 -2.08919e-08
0.01 -1.54352e-08 -3.62288e-08
0.01 0.000302216 -0.00315784
0.0134919 0.00110916 -0.00583898
0.0176726 0.00195689 -0.00418273
0.0214076 0.00318737 -0.00232966
0.0255441 0.00571766 -0.00152166
0.0308073 0.00839648 -0.0013912
0.039438 0.0104631 -0.00103116
0.0522163 0.00407613 -4.01794e-06