# vtk DataFile Version 2.0
Tobias Weinzierl: CPU, Manycore and Cluster Computing
ASCII

DATASET STRUCTURED_POINTS
DIMENSIONS  51 11 6

ORIGIN 0 0 0 

SPACING 0.1 0.1 0.1 

POINT_DATA 3366

VECTORS velocity float
0 0 0
-1.03329e-14 0 0
-6.82644e-09 0 0
-9.14583e-09 0 0
-7.71593e-09 0 0
-2.94174e-09 0 0
-3.4479e-09 0 0
-5.47392e-09 0 0
-7.24703e-09 0 0
-8.05933e-09 0 0
-8.04912e-09 0 0
-7.83304e-09 0 0
-7.69172e-09 0 0
-7.65737e-09 0 0
-7.69873e-09 0 0
-7.77612e-09 0 0
-7.85953e-09 0 0
-7.93332e-09 0 0
-7.99232e-09 0 0
-8.03683e-09 0 0
-8.06926e-09 0 0
-8.09242e-09 0 0
-8.10876e-09 0 0
-8.12025e-09 0 0
-8.12831e-09 0 0
-8.13397e-09 0 0
-8.13796e-09 0 0
-8.14079e-09 0 0
-8.1428e-09 0 0
-8.14423e-09 0 0
-8.14526e-09 0 0
-8.14599e-09 0 0
-8.14652e-09 0 0
-8.1469e-09 0 0
-8.14717e-09 0 0
-8.14737e-09 0 0
-8.14751e-09 0 0
-8.14762e-09 0 0
-8.14769e-09 0 0
-8.14774e-09 0 0
-8.14778e-09 0 0
-8.14781e-09 0 0
-8.14783e-09 0 0
-8.14784e-09 0 0
-8.14785e-09 0 0
-8.14786e-09 0 0
-8.14787e-09 0 0
-8.14787e-09 0 0
-8.14788e-09 0 0
-8.14789e-09 0 0
0.00361417 0 0
0 7.79742e-09 0
4.89872e-15 4.31387e-09 0
-1.35631e-08 6.2926e-09 0
-1.75523e-08 2.92723e-09 0
-1.34973e-08 3.88985e-10 0
-4.44574e-09 1.08617e-09 0
-4.12069e-09 3.51028e-09 0
-6.75098e-09 3.07757e-09 0
-8.67799e-09 1.79798e-09 0
-1.02e-08 6.6343e-10 0
-1.05334e-08 3.88828e-11 0
-1.07751e-08 -4.26753e-11 0
-1.12092e-08 3.92258e-11 0
-1.1701e-08 1.15573e-10 0
-1.21684e-08 1.58507e-10 0
-1.25696e-08 1.66974e-10 0
-1.28869e-08 1.51381e-10 0
-1.31232e-08 1.25096e-10 0
-1.3292e-08 9.74568e-11 0
-1.34095e-08 7.30846e-11 0
-1.34899e-08 5.34777e-11 0
-1.35445e-08 3.85353e-11 0
-1.35816e-08 2.75216e-11 0
-1.36069e-08 1.95687e-11 0
-1.36242e-08 1.38945e-11 0
-1.36362e-08 9.87112e-12 0
-1.36445e-08 7.02466e-12 0
-1.36503e-08 5.0102e-12 0
-1.36545e-08 3.58194e-12 0
-1.36574e-08 2.56662e-12 0
-1.36595e-08 1.84277e-12 0
-1.3661e-08 1.32526e-12 0
-1.36621e-08 9.5434e-13 0
-1.36628e-08 6.87907e-13 0
-1.36634e-08 4.96193e-13 0
-1.36638e-08 3.58056e-13 0
-1.36641e-08 2.58424e-13 0
-1.36643e-08 1.86513e-13 0
-1.36645e-08 1.34584e-13 0
-1.36646e-08 9.7076e-14 0
-1.36647e-08 6.99771e-14 0
-1.36647e-08 5.03934e-14 0
-1.36648e-08 3.62354e-14 0
-1.36648e-08 2.59976e-14 0
-1.36648e-08 1.86011e-14 0
-1.36648e-08 1.32776e-14 0
-1.36648e-08 9.54809e-15 0
-1.36649e-08 7.76906e-15 0
-1.36649e-08 1.24639e-14 0
-1.36649e-08 3.48132e-14 0
0.00888698 -8.81587e-09 0
0 1.09629e-09 0
7.31807e-14 5.67523e-09 0
-1.23824e-08 7.44119e-09 0
-1.49966e-08 2.80105e-09 0
-7.60361e-09 7.84599e-10 0
-4.27466e-09 1.01912e-09 0
-5.80429e-09 2.54971e-09 0
-8.25035e-09 7.46132e-10 0
-6.15102e-09 -1.31668e-10 0
-5.36839e-09 1.07651e-09 0
-5.13728e-09 1.72355e-09 0
-5.52741e-09 2.15878e-09 0
-6.37586e-09 2.01057e-09 0
-7.18886e-09 1.57236e-09 0
-7.87281e-09 1.15866e-09 0
-8.40861e-09 8.35033e-10 0
-8.80061e-09 5.91292e-10 0
-9.0729e-09 4.12182e-10 0
-9.25569e-09 2.83862e-10 0
-9.37606e-09 1.9398e-10 0
-9.45471e-09 1.32104e-10 0
-9.50613e-09 8.99984e-11 0
-9.54e-09 6.15192e-11 0
-9.56255e-09 4.22825e-11 0
-9.57776e-09 2.92568e-11 0
-9.58817e-09 2.03903e-11 0
-9.59537e-09 1.43123e-11 0
-9.60042e-09 1.01125e-11 0
-9.604e-09 7.18693e-12 0
-9.60655e-09 5.13309e-12 0
-9.60838e-09 3.68115e-12 0
-9.6097e-09 2.64848e-12 0
-9.61066e-09 1.91029e-12 0
-9.61135e-09 1.38044e-12 0
-9.61186e-09 9.98892e-13 0
-9.61222e-09 7.23465e-13 0
-9.61249e-09 5.24273e-13 0
-9.61269e-09 3.80024e-13 0
-9.61283e-09 2.75465e-13 0
-9.61293e-09 1.99627e-13 0
-9.61301e-09 1.44597e-13 0
-9.61306e-09 1.04659e-13 0
-9.6131e-09 7.56794e-14 0
-9.61313e-09 5.46914e-14 0
-9.61315e-09 3.96289e-14 0
-9.61317e-09 2.92305e-14 0
-9.61318e-09 2.305e-14 0
-9.61319e-09 2.13431e-14 0
-9.6132e-09 2.36968e-14 0
-9.61321e-09 3.03699e-14 0
0.0107683 -8.63361e-09 0
0 -8.51805e-09 0
1.2947e-13 3.75238e-09 0
-1.14101e-08 2.93407e-09 0
-1.42913e-08 -2.31083e-09 0
-5.83142e-09 -1.22251e-10 0
-2.77066e-09 1.37026e-09 0
-5.13152e-09 -1.43802e-14 0
-6.97328e-09 -6.0064e-09 0
-1.23104e-08 -9.21625e-09 0
-9.85174e-09 -3.28777e-09 0
-8.13216e-09 1.50684e-09 0
-7.3689e-09 3.5386e-09 0
-7.16585e-09 3.49656e-09 0
-7.1164e-09 2.64596e-09 0
-7.22764e-09 1.87258e-09 0
-7.405e-09 1.29603e-09 0
-7.56887e-09 8.82001e-10 0
-7.69262e-09 5.92819e-10 0
-7.77793e-09 3.95786e-10 0
-7.83453e-09 2.63928e-10 0
-7.87176e-09 1.76597e-10 0
-7.89648e-09 1.18959e-10 0
-7.91319e-09 8.08422e-11 0
-7.92473e-09 5.54788e-11 0
-7.93285e-09 3.84499e-11 0
-7.93866e-09 2.6896e-11 0
-7.94285e-09 1.89704e-11 0
-7.9459e-09 1.34756e-11 0
-7.94814e-09 9.62874e-12 0
-7.94978e-09 6.91258e-12 0
-7.95098e-09 4.98096e-12 0
-7.95187e-09 3.59918e-12 0
-7.95251e-09 2.60611e-12 0
-7.95299e-09 1.88982e-12 0
-7.95334e-09 1.37177e-12 0
-7.9536e-09 9.96338e-13 0
-7.95379e-09 7.23875e-13 0
-7.95392e-09 5.25948e-13 0
-7.95403e-09 3.82075e-13 0
-7.9541e-09 2.77452e-13 0
-7.95415e-09 2.01354e-13 0
-7.95419e-09 1.46001e-13 0
-7.95422e-09 1.05752e-13 0
-7.95424e-09 7.65274e-14 0
-7.95426e-09 5.53709e-14 0
-7.95427e-09 4.01345e-14 0
-7.95427e-09 2.93636e-14 0
-7.95428e-09 2.23048e-14 0
-7.95427e-09 1.90678e-14 0
-7.95428e-09 1.9409e-14 0
0.0110118 -5.72326e-09 0
0 -1.62052e-08 0
1.35521e-13 1.14525e-09 0
-1.21385e-08 -9.60981e-10 0
-1.62865e-08 -3.83056e-09 0
-9.92585e-09 -1.44632e-09 0
-3.22943e-14 2.77975e-10 0
-4.83511e-13 -5.22912e-13 0
4.48253e-13 -5.26357e-13 0
-7.59033e-09 -5.12675e-09 0
-1.21e-08 -6.93544e-09 0
-1.02394e-08 -9.72553e-10 0
-9.91192e-09 2.47739e-09 0
-9.42162e-09 3.01424e-09 0
-8.67681e-09 2.4154e-09 0
-8.18146e-09 1.79886e-09 0
-7.92692e-09 1.28083e-09 0
-7.80281e-09 8.77331e-10 0
-7.74111e-09 5.87829e-10 0
-7.70963e-09 3.91178e-10 0
-7.69363e-09 2.61231e-10 0
-7.68599e-09 1.76107e-10 0
-7.68297e-09 1.20167e-10 0
-7.68242e-09 8.303e-11 0
-7.68309e-09 5.80401e-11 0
-7.68428e-09 4.09807e-11 0
-7.68559e-09 2.9175e-11 0
-7.68681e-09 2.09062e-11 0
-7.68787e-09 1.50561e-11 0
-7.68875e-09 1.08837e-11 0
-7.68944e-09 7.88897e-12 0
-7.68999e-09 5.72924e-12 0
-7.6904e-09 4.16617e-12 0
-7.69072e-09 3.03203e-12 0
-7.69096e-09 2.20764e-12 0
-7.69113e-09 1.60769e-12 0
-7.69127e-09 1.17075e-12 0
-7.69136e-09 8.52395e-13 0
-7.69143e-09 6.20393e-13 0
-7.69149e-09 4.51316e-13 0
-7.69153e-09 3.28103e-13 0
-7.69155e-09 2.38314e-13 0
-7.69157e-09 1.72873e-13 0
-7.69159e-09 1.25144e-13 0
-7.6916e-09 9.02748e-14 0
-7.69161e-09 6.4743e-14 0
-7.69161e-09 4.60385e-14 0
-7.69161e-09 3.2399e-14 0
-7.69161e-09 2.26186e-14 0
-7.69161e-09 1.60705e-14 0
-7.69162e-09 1.18983e-14 0
0.011034 -2.69003e-09 0
0 -1.42903e-08 0
1.37551e-13 -4.45357e-10 0
-1.24049e-08 -2.05097e-09 0
-1.7342e-08 -3.45403e-09 0
-1.28387e-08 -3.40383e-09 0
-4.1568e-09 -1.55542e-09 0
-4.78398e-13 4.56819e-13 0
-8.56204e-15 8.56204e-15 0
4.23067e-13 -4.73444e-13 0
-5.47597e-09 -2.7796e-09 0
-7.63138e-09 -1.66653e-09 0
-1.06483e-08 2.93775e-09 0
-1.14182e-08 2.99734e-09 0
-1.03234e-08 1.9637e-09 0
-9.22935e-09 1.34163e-09 0
-8.54063e-09 9.24573e-10 0
-8.15237e-09 6.25168e-10 0
-7.93779e-09 4.20974e-10 0
-7.81871e-09 2.86576e-10 0
-7.75215e-09 1.9848e-10 0
-7.71477e-09 1.39861e-10 0
-7.69375e-09 9.99666e-11 0
-7.68194e-09 7.21964e-11 0
-7.67532e-09 5.25019e-11 0
-7.67163e-09 3.8342e-11 0
-7.66958e-09 2.80674e-11 0
-7.66844e-09 2.05691e-11 0
-7.66782e-09 1.5079e-11 0
-7.66748e-09 1.10527e-11 0
-7.6673e-09 8.09798e-12 0
-7.6672e-09 5.92968e-12 0
-7.66715e-09 4.33905e-12 0
-7.66713e-09 3.17287e-12 0
-7.66711e-09 2.31845e-12 0
-7.66711e-09 1.69289e-12 0
-7.6671e-09 1.23522e-12 0
-7.6671e-09 9.00627e-13 0
-7.6671e-09 6.56171e-13 0
-7.6671e-09 4.77679e-13 0
-7.6671e-09 3.47416e-13 0
-7.6671e-09 2.52375e-13 0
-7.6671e-09 1.83024e-13 0
-7.6671e-09 1.32381e-13 0
-7.6671e-09 9.53291e-14 0
-7.6671e-09 6.81088e-14 0
-7.6671e-09 4.79366e-14 0
-7.6671e-09 3.27511e-14 0
-7.66709e-09 2.10832e-14 0
-7.66709e-09 1.19653e-14 0
-7.66709e-09 4.49028e-15 0
0.0110355 2.31494e-10 0
0 -1.01353e-08 0
1.33751e-13 -1.60776e-09 0
-1.17883e-08 -3.3571e-09 0
-1.71741e-08 -2.74658e-09 0
-1.36491e-08 -1.99369e-09 0
-8.98868e-09 -3.41132e-09 0
-4.41904e-09 -2.41487e-09 0
-4.82805e-13 4.30837e-13 0
-7.76637e-15 7.76637e-15 0
4.08699e-13 -4.37438e-13 0
-2.87113e-09 3.58854e-09 0
-1.11514e-08 6.40416e-09 0
-1.43963e-08 3.65086e-09 0
-1.23549e-08 1.09703e-09 0
-1.00879e-08 4.15012e-10 0
-8.85677e-09 2.70771e-10 0
-8.27977e-09 2.12456e-10 0
-8.00586e-09 1.7275e-10 0
-7.86899e-09 1.41554e-10 0
-7.79688e-09 1.15286e-10 0
-7.75693e-09 9.2595e-11 0
-7.73371e-09 7.31759e-11 0
-7.7196e-09 5.69546e-11 0
-7.71068e-09 4.37534e-11 0
-7.70485e-09 3.32537e-11 0
-7.70094e-09 2.50571e-11 0
-7.69826e-09 1.87519e-11 0
-7.69639e-09 1.39571e-11 0
-7.69506e-09 1.03432e-11 0
-7.69412e-09 7.63831e-12 0
-7.69344e-09 5.62486e-12 0
-7.69295e-09 4.13255e-12 0
-7.6926e-09 3.03032e-12 0
-7.69234e-09 2.21847e-12 0
-7.69215e-09 1.62185e-12 0
-7.69201e-09 1.18423e-12 0
-7.69191e-09 8.63738e-13 0
-7.69183e-09 6.29324e-13 0
-7.69178e-09 4.58055e-13 0
-7.69174e-09 3.33024e-13 0
-7.69171e-09 2.41793e-13 0
-7.69169e-09 1.75227e-13 0
-7.69167e-09 1.26614e-13 0
-7.69166e-09 9.10144e-14 0
-7.69165e-09 6.47662e-14 0
-7.69165e-09 4.50999e-14 0
-7.69164e-09 2.98594e-14 0
-7.69164e-09 1.73803e-14 0
-7.69163e-09 6.47341e-15 0
-7.69163e-09 -3.51681e-15 0
0.011034 3.12303e-09 0
0 -7.35801e-09 0
1.06902e-13 -2.51308e-09 0
-1.12169e-08 -4.24952e-09 0
-1.6186e-08 -2.54653e-09 0
-1.34589e-08 -1.42661e-09 0
-9.94564e-09 -1.89123e-09 0
-8.80605e-09 -5.0487e-09 0
-6.05263e-09 -3.774e-09 0
-4.9936e-13 3.62316e-13 0
3.87319e-13 2.94548e-13 0
5.18306e-14 7.98085e-09 0
-9.23359e-09 1.28004e-08 0
-1.47191e-08 4.81294e-09 0
-1.30081e-08 -7.31467e-10 0
-1.02815e-08 -1.08555e-09 0
-8.87792e-09 -4.84511e-10 0
-8.33681e-09 -1.47845e-10 0
-8.14159e-09 -7.70801e-12 0
-8.06691e-09 4.68929e-11 0
-8.03295e-09 6.35218e-11 0
-8.01333e-09 6.2885e-11 0
-7.99962e-09 5.51697e-11 0
-7.98914e-09 4.54476e-11 0
-7.98092e-09 3.60624e-11 0
-7.97449e-09 2.79356e-11 0
-7.96951e-09 2.12915e-11 0
-7.96569e-09 1.60434e-11 0
-7.96278e-09 1.19894e-11 0
-7.9606e-09 8.905e-12 0
-7.95896e-09 6.58338e-12 0
-7.95774e-09 4.84952e-12 0
-7.95683e-09 3.56216e-12 0
-7.95616e-09 2.61057e-12 0
-7.95567e-09 1.90959e-12 0
-7.9553e-09 1.39464e-12 0
-7.95503e-09 1.01717e-12 0
-7.95484e-09 7.40978e-13 0
-7.95469e-09 5.3918e-13 0
-7.95459e-09 3.91913e-13 0
-7.95451e-09 2.84537e-13 0
-7.95445e-09 2.06289e-13 0
-7.95441e-09 1.49265e-13 0
-7.95438e-09 1.07657e-13 0
-7.95436e-09 7.7189e-14 0
-7.95434e-09 5.46707e-14 0
-7.95433e-09 3.76456e-14 0
-7.95432e-09 2.40654e-14 0
-7.95432e-09 1.20607e-14 0
-7.95431e-09 -2.0578e-17 0
-7.95431e-09 -1.26438e-14 0
0.0110118 6.05291e-09 0
0 -6.95643e-09 0
7.0564e-14 -2.90643e-09 0
-1.09961e-08 -4.63744e-09 0
-1.53267e-08 -2.29122e-09 0
-1.3725e-08 -9.15134e-10 0
-1.13285e-08 -1.18356e-09 0
-9.53162e-09 -2.68712e-09 0
-1.11579e-08 -7.06075e-09 0
-9.80839e-09 -5.20226e-09 0
-1.21297e-08 1.46844e-18 0
-1.16421e-08 8.73226e-09 0
-7.53357e-09 1.50141e-08 0
-7.43774e-09 5.97141e-09 0
-8.95187e-09 -1.76002e-09 0
-9.40437e-09 -2.14984e-09 0
-9.51307e-09 -9.15395e-10 0
-9.59351e-09 -2.48549e-10 0
-9.65134e-09 -1.09025e-11 0
-9.6799e-09 5.71383e-11 0
-9.68681e-09 6.76748e-11 0
-9.68185e-09 6.0528e-11 0
-9.67196e-09 4.9316e-11 0
-9.66103e-09 3.85186e-11 0
-9.65091e-09 2.941e-11 0
-9.64232e-09 2.21487e-11 0
-9.63536e-09 1.65294e-11 0
-9.62989e-09 1.22572e-11 0
-9.62567e-09 9.04657e-12 0
-9.62247e-09 6.65312e-12 0
-9.62007e-09 4.87925e-12 0
-9.61827e-09 3.57032e-12 0
-9.61693e-09 2.60774e-12 0
-9.61594e-09 1.90174e-12 0
-9.61521e-09 1.38504e-12 0
-9.61468e-09 1.00755e-12 0
-9.61428e-09 7.32175e-13 0
-9.61399e-09 5.31542e-13 0
-9.61378e-09 3.85521e-13 0
-9.61363e-09 2.79341e-13 0
-9.61351e-09 2.02185e-13 0
-9.61343e-09 1.46139e-13 0
-9.61337e-09 1.05413e-13 0
-9.61333e-09 7.57729e-14 0
-9.6133e-09 5.40973e-14 0
-9.61327e-09 3.80542e-14 0
-9.61326e-09 2.58259e-14 0
-9.61325e-09 1.57699e-14 0
-9.61324e-09 5.88476e-15 0
-9.61324e-09 -6.91513e-15 0
-9.61324e-09 -2.47502e-14 0
0.0107683 8.73454e-09 0
0 -7.84309e-09 0
3.78824e-14 -2.05823e-09 0
-1.10704e-08 -3.22488e-09 0
-1.53854e-08 -1.60777e-09 0
-1.53811e-08 -7.91686e-10 0
-1.47015e-08 -1.02693e-09 0
-1.35448e-08 -1.60915e-09 0
-1.26534e-08 -1.16481e-09 0
-1.6044e-08 2.40944e-09 0
-1.67319e-08 2.24743e-09 0
-1.76911e-08 -3.29794e-09 0
-1.31847e-08 -4.1716e-09 0
-1.18038e-08 -6.43547e-10 0
-1.34521e-08 1.6602e-09 0
-1.41818e-08 1.77994e-09 0
-1.41701e-08 1.15507e-09 0
-1.40351e-08 6.2097e-10 0
-1.39308e-08 3.18647e-10 0
-1.38606e-08 1.69075e-10 0
-1.38115e-08 9.61717e-11 0
-1.37752e-08 5.88144e-11 0
-1.37478e-08 3.81071e-11 0
-1.37269e-08 2.56914e-11 0
-1.37111e-08 1.77662e-11 0
-1.36991e-08 1.24816e-11 0
-1.36901e-08 8.85599e-12 0
-1.36835e-08 6.32303e-12 0
-1.36785e-08 4.53272e-12 0
-1.36748e-08 3.25769e-12 0
-1.36722e-08 2.3451e-12 0
-1.36702e-08 1.68976e-12 0
-1.36687e-08 1.21814e-12 0
-1.36677e-08 8.78284e-13 0
-1.36669e-08 6.3318e-13 0
-1.36664e-08 4.56345e-13 0
-1.3666e-08 3.28753e-13 0
-1.36657e-08 2.36703e-13 0
-1.36654e-08 1.70311e-13 0
-1.36653e-08 1.2244e-13 0
-1.36652e-08 8.79319e-14 0
-1.36651e-08 6.30569e-14 0
-1.3665e-08 4.5114e-14 0
-1.3665e-08 3.21398e-14 0
-1.3665e-08 2.26931e-14 0
-1.36649e-08 1.56899e-14 0
-1.36649e-08 1.02604e-14 0
-1.36649e-08 5.53878e-15 0
-1.36649e-08 5.07442e-19 0
-1.36649e-08 -1.12432e-14 0
-1.36649e-08 -3.62663e-14 0
0.00888698 8.57418e-09 0
0 0 0
1.40196e-14 0 0
-5.53373e-09 0 0
-7.82726e-09 0 0
-8.38795e-09 0 0
-8.48669e-09 0 0
-8.4002e-09 0 0
-7.54819e-09 0 0
-6.23571e-09 0 0
-4.6022e-09 0 0
-6.04895e-09 0 0
-9.25317e-09 0 0
-1.0993e-08 0 0
-1.07712e-08 0 0
-9.84352e-09 0 0
-9.08174e-09 0 0
-8.64383e-09 0 0
-8.42149e-09 0 0
-8.3097e-09 0 0
-8.25036e-09 0 0
-8.21622e-09 0 0
-8.19502e-09 0 0
-8.18105e-09 0 0
-8.17149e-09 0 0
-8.1648e-09 0 0
-8.16005e-09 0 0
-8.15665e-09 0 0
-8.15421e-09 0 0
-8.15245e-09 0 0
-8.15118e-09 0 0
-8.15026e-09 0 0
-8.1496e-09 0 0
-8.14912e-09 0 0
-8.14877e-09 0 0
-8.14852e-09 0 0
-8.14834e-09 0 0
-8.14821e-09 0 0
-8.14812e-09 0 0
-8.14805e-09 0 0
-8.148e-09 0 0
-8.14797e-09 0 0
-8.14795e-09 0 0
-8.14793e-09 0 0
-8.14791e-09 0 0
-8.14791e-09 0 0
-8.1479e-09 0 0
-8.1479e-09 0 0
-8.1479e-09 0 0
-8.1479e-09 0 0
-8.14791e-09 0 0
0.00361417 0 0
0 0 7.36934e-09
2.86045e-14 0 2.51257e-09
-1.46016e-08 0 2.85322e-09
-1.99349e-08 0 -2.03774e-09
-1.68875e-08 0 -6.59308e-09
-7.54595e-10 0 -5.3542e-09
4.18067e-10 0 -9.78101e-10
-2.44361e-09 0 7.21553e-10
-5.52963e-09 0 7.87437e-10
-7.56771e-09 0 1.38659e-10
-8.72113e-09 0 -2.65178e-10
-9.68495e-09 0 -3.1472e-10
-1.05827e-08 0 -2.14896e-10
-1.13445e-08 0 -1.08564e-10
-1.1962e-08 0 -3.97522e-11
-1.24479e-08 0 -6.17434e-12
-1.28155e-08 0 5.8149e-12
-1.30833e-08 0 7.69291e-12
-1.32727e-08 0 6.05516e-12
-1.34038e-08 0 3.86011e-12
-1.34935e-08 0 2.1104e-12
-1.35545e-08 0 9.65915e-13
-1.35959e-08 0 3.07754e-13
-1.36241e-08 0 -2.73666e-14
-1.36434e-08 0 -1.71234e-13
-1.36567e-08 0 -2.12226e-13
-1.36659e-08 0 -2.03625e-13
-1.36723e-08 0 -1.75043e-13
-1.36769e-08 0 -1.41647e-13
-1.36801e-08 0 -1.10412e-13
-1.36824e-08 0 -8.39566e-14
-1.36841e-08 0 -6.27555e-14
-1.36853e-08 0 -4.63396e-14
-1.36861e-08 0 -3.39159e-14
-1.36867e-08 0 -2.46607e-14
-1.36872e-08 0 -1.78429e-14
-1.36875e-08 0 -1.28615e-14
-1.36877e-08 0 -9.24301e-15
-1.36879e-08 0 -6.62516e-15
-1.3688e-08 0 -4.73587e-15
-1.36881e-08 0 -3.3726e-15
-1.36882e-08 0 -2.38514e-15
-1.36882e-08 0 -1.66174e-15
-1.36883e-08 0 -1.11893e-15
-1.36883e-08 0 -7.00236e-16
-1.36883e-08 0 -4.05466e-16
-1.36883e-08 0 -2.68498e-16
-1.36883e-08 0 2.50975e-16
-1.36884e-08 0 5.77692e-15
-1.36884e-08 0 2.80874e-14
0.00888554 0 -7.48002e-09
0.0036 6.37732e-09 4.67975e-09
0.00359999 -0.00289448 -0.00120034
0.0099022 -0.00701783 -0.00283826
0.0194672 -0.00909963 -0.00330268
0.0308687 -0.0109093 -0.00307633
0.0463757 -0.00661013 -0.00164286
0.0476779 1.36144e-05 -0.000120958
0.0469937 0.00281632 0.000293057
0.0416256 0.00437193 0.000162319
0.0362555 0.00418995 -0.000134866
0.0316418 0.00344071 -0.000222431
0.0281047 0.00254861 -0.000179643
0.0256801 0.00174228 -0.000111045
0.0241366 0.00112565 -5.82845e-05
0.0231945 0.000699874 -2.70349e-05
0.022637 0.000422059 -1.12798e-05
0.0223164 0.00024757 -4.24712e-06
0.0221374 0.0001414 -1.43374e-06
0.0220406 7.86009e-05 -4.39255e-07
0.0219903 4.24118e-05 -1.45806e-07
0.0219656 2.20787e-05 -8.61255e-08
0.0219544 1.09524e-05 -8.59908e-08
0.0219501 5.04494e-06 -9.03761e-08
0.0219491 2.02564e-06 -8.73878e-08
0.0219496 5.6354e-07 -7.80751e-08
0.0219506 -8.47419e-08 -6.58002e-08
0.0219517 -3.24923e-07 -5.32017e-08
0.0219526 -3.727e-07 -4.17644e-08
0.0219534 -3.39028e-07 -3.20988e-08
0.021954 -2.78435e-07 -2.42948e-08
0.0219544 -2.15849e-07 -1.81838e-08
0.0219548 -1.61225e-07 -1.34988e-08
0.021955 -1.17314e-07 -9.96071e-09
0.0219552 -8.36948e-08 -7.31733e-09
0.0219553 -5.87735e-08 -5.35784e-09
0.0219554 -4.07229e-08 -3.91364e-09
0.0219555 -2.78787e-08 -2.8538e-09
0.0219555 -1.88702e-08 -2.07868e-09
0.0219555 -1.26308e-08 -1.51361e-09
0.0219556 -8.35975e-09 -1.10337e-09
0.0219556 -5.47096e-09 -8.07867e-10
0.0219556 -3.54391e-09 -5.98826e-10
0.0219556 -2.28211e-09 -4.57575e-10
0.0219556 -1.48137e-09 -3.7366e-10
0.0219556 -1.00938e-09 -3.4447e-10
0.0219556 -7.96539e-10 -3.69815e-10
0.0219556 -8.07215e-10 -3.93695e-10
0.0219556 -1.14316e-09 -3.3022e-10
0.0219556 -3.97159e-09 -1.97521e-09
0.0219556 -1.52045e-08 -1.11889e-08
0.0219557 -2.38877e-08 -1.86964e-08
0.01 6.91526e-09 -3.95064e-09
0.01 -0.00527324 -0.00207345
0.0158968 -0.0135254 -0.00461097
0.0250381 -0.0184635 -0.00477726
0.0361971 -0.0247033 -0.00354485
0.0545052 -0.0154732 -0.000876335
0.0538413 -0.000192197 0.000997015
0.0544642 0.00619069 0.00110722
0.0477019 0.0108332 0.000619671
0.0409116 0.0101145 -9.34055e-05
0.0356887 0.00827428 -0.000349546
0.031924 0.00605023 -0.000290331
0.0295703 0.00402103 -0.000176835
0.0282201 0.00251316 -9.07346e-05
0.0274711 0.0015124 -4.04146e-05
0.0270678 0.000883471 -1.55555e-05
0.0268586 0.000501575 -4.79235e-06
0.0267555 0.000276366 -7.34038e-07
0.0267084 0.000147168 4.92484e-07
0.0266897 7.50575e-05 6.70691e-07
0.0266845 3.59769e-05 5.37925e-07
0.0266854 1.55194e-05 3.62583e-07
0.0266885 5.29137e-06 2.22808e-07
0.0266921 5.21614e-07 1.28582e-07
0.0266953 -1.43813e-06 7.04194e-08
0.026698 -2.02162e-06 3.65414e-08
0.0267002 -1.98281e-06 1.76938e-08
0.0267018 -1.70349e-06 7.65612e-09
0.026703 -1.36658e-06 2.57341e-09
0.0267039 -1.05187e-06 1.76436e-10
0.0267045 -7.87795e-07 -8.20891e-10
0.026705 -5.78808e-07 -1.12433e-09
0.0267053 -4.19311e-07 -1.10894e-09
0.0267056 -3.00518e-07 -9.66697e-10
0.0267057 -2.13562e-07 -7.90951e-10
0.0267058 -1.50722e-07 -6.23473e-10
0.0267059 -1.05758e-07 -4.80083e-10
0.026706 -7.3838e-08 -3.64282e-10
0.026706 -5.13277e-08 -2.74332e-10
0.0267061 -3.55466e-08 -2.06863e-10
0.0267061 -2.45472e-08 -1.58702e-10
0.0267061 -1.69322e-08 -1.27867e-10
0.0267061 -1.17127e-08 -1.14155e-10
0.0267061 -8.20581e-09 -1.1929e-10
0.0267061 -5.96826e-09 -1.46004e-10
0.0267061 -4.80811e-09 -1.94406e-10
0.0267061 -5.02542e-09 -2.22915e-10
0.0267061 -7.62116e-09 -1.6877e-10
0.0267061 -1.29005e-08 -2.25903e-09
0.0267061 -2.04193e-08 -1.33609e-08
0.0267061 -2.47203e-08 -2.23192e-08
0.0148 -1.258e-08 -4.15437e-09
0.0148 -0.00679332 -0.0027363
0.0191366 -0.0175027 -0.0061968
0.0248669 -0.024695 -0.00622696
0.0282774 -0.0367416 -0.00401177
0.0273454 -0.0227562 -0.000732969
0.0261952 -1.57831e-07 0.000975438
0.0268622 0.00883261 0.0010232
0.0321393 0.017916 0.000799396
0.0311678 0.0163405 0.000212619
0.0291863 0.0125937 -0.000133448
0.0278116 0.0087898 -0.000194145
0.0271494 0.00552013 -0.000137739
0.0269518 0.00326323 -7.20153e-05
0.0269472 0.00186958 -2.79809e-05
0.0270106 0.00104134 -6.38018e-06
0.0270869 0.000561972 1.7247e-06
0.0271541 0.000291993 3.61084e-06
0.027206 0.00014427 3.23487e-06
0.0272436 6.59829e-05 2.33066e-06
0.0272699 2.60819e-05 1.5121e-06
0.0272877 6.82139e-06 9.21469e-07
0.0272998 -1.68431e-06 5.38104e-07
0.0273079 -4.80912e-06 3.04211e-07
0.0273134 -5.39895e-06 1.67272e-07
0.0273171 -4.91402e-06 8.95014e-08
0.0273196 -4.07167e-06 4.64279e-08
0.0273213 -3.20099e-06 2.31235e-08
0.0273224 -2.43477e-06 1.08265e-08
0.0273232 -1.81113e-06 4.53394e-09
0.0273238 -1.32606e-06 1.44902e-09
0.0273242 -9.5964e-07 3.69081e-11
0.0273245 -6.8831e-07 -5.29859e-10
0.0273246 -4.90256e-07 -6.88765e-10
0.0273248 -3.47223e-07 -6.6561e-10
0.0273249 -2.44767e-07 -5.73154e-10
0.0273249 -1.71852e-07 -4.64949e-10
0.027325 -1.20238e-07 -3.64335e-10
0.027325 -8.38701e-08 -2.79836e-10
0.027325 -5.83537e-08 -2.13245e-10
0.027325 -4.0531e-08 -1.6383e-10
0.027325 -2.81535e-08 -1.30524e-10
0.027325 -1.96404e-08 -1.13112e-10
0.0273251 -1.39114e-08 -1.13255e-10
0.0273251 -1.02899e-08 -1.37075e-10
0.0273251 -8.42603e-09 -1.96505e-10
0.0273251 -8.08088e-09 -2.75163e-10
0.0273251 -9.0123e-09 -3.53507e-10
0.0273251 -1.13545e-08 -2.59662e-09
0.0273251 -1.50822e-08 -1.33259e-08
0.0273251 -1.72256e-08 -2.18523e-08
0.018 -3.01667e-08 -1.05027e-08
0.018 -0.00688092 -0.00349658
0.0195452 -0.0170023 -0.00800629
0.0200452 -0.0203931 -0.00749343
0.0162761 -0.0216707 -0.00471093
-1.04965e-08 -0.0113991 -0.00172722
1.71745e-06 6.66391e-07 5.0164e-09
-7.26357e-07 7.77931e-07 0.000167441
0.00877757 0.00637638 0.000340844
0.0178182 0.0130751 0.000276838
0.0205583 0.0117117 9.44729e-05
0.0219566 0.00817045 -6.19098e-05
0.0235025 0.00493853 -8.9931e-05
0.0248108 0.00274644 -5.04682e-05
0.025748 0.00146653 -1.39132e-05
0.0263723 0.000747395 3.58543e-06
0.0267702 0.000358029 8.33823e-06
0.0270161 0.000156107 7.65242e-06
0.0271648 5.64394e-05 5.53759e-06
0.0272534 1.03807e-05 3.57037e-06
0.0273058 -8.6772e-06 2.14787e-06
0.0273366 -1.4779e-05 1.23212e-06
0.0273548 -1.50989e-05 6.81056e-07
0.0273655 -1.31697e-05 3.63983e-07
0.0273719 -1.06449e-05 1.8757e-07
0.0273757 -8.23563e-06 9.22184e-08
0.027378 -6.19698e-06 4.21693e-08
0.0273794 -4.5761e-06 1.68046e-08
0.0273803 -3.33445e-06 4.56749e-09
0.0273808 -2.406e-06 -8.76216e-10
0.0273812 -1.72321e-06 -2.92718e-09
0.0273814 -1.22703e-06 -3.37174e-09
0.0273815 -8.6964e-07 -3.12333e-09
0.0273816 -6.13953e-07 -2.6319e-09
0.0273817 -4.32003e-07 -2.10632e-09
0.0273817 -3.03087e-07 -1.63357e-09
0.0273818 -2.12079e-07 -1.24141e-09
0.0273818 -1.48038e-07 -9.30806e-10
0.0273818 -1.03108e-07 -6.92099e-10
0.0273818 -7.16801e-08 -5.12949e-10
0.0273818 -4.9772e-08 -3.81988e-10
0.0273818 -3.45727e-08 -2.90579e-10
0.0273818 -2.41122e-08 -2.33995e-10
0.0273818 -1.70222e-08 -2.1309e-10
0.0273818 -1.23474e-08 -2.38438e-10
0.0273818 -9.4044e-09 -3.32053e-10
0.0273818 -7.72048e-09 -4.66333e-10
0.0273818 -6.97205e-09 -5.62872e-10
0.0273818 -7.11367e-09 -2.7414e-09
0.0273818 -8.00871e-09 -1.31142e-08
0.0273818 -8.5872e-09 -2.13381e-08
0.0196 -3.51072e-08 -2.70361e-08
0.0196 -0.00491433 -0.00408405
0.0191519 -0.0109917 -0.00906577
0.017292 -0.0122184 -0.00794244
0.0130964 -0.0100775 -0.00477321
0.00330652 -0.00393663 -0.00222614
1.32616e-06 -1.22919e-06 -0.000413626
5.02831e-07 -5.02831e-07 -9.09961e-10
-7.00824e-07 7.51889e-07 3.0076e-05
0.00636684 0.00449946 8.09559e-05
0.0130551 0.00844865 6.1994e-05
0.0163087 0.00587966 -5.26993e-05
0.0200489 0.00270583 -0.000116382
0.0229655 0.00104147 -7.38563e-05
0.0248411 0.000316666 -2.3757e-05
0.0259544 1.96828e-05 1.54312e-06
0.0265916 -8.40654e-05 8.63707e-06
0.0269492 -0.000105056 8.09663e-06
0.0271475 -9.49561e-05 5.68852e-06
0.0272566 -7.62968e-05 3.51032e-06
0.0273162 -5.79063e-05 2.007e-06
0.0273486 -4.26039e-05 1.08656e-06
0.0273661 -3.0787e-05 5.60433e-07
0.0273755 -2.20097e-05 2.73601e-07
0.0273804 -1.56312e-05 1.23295e-07
0.0273831 -1.1055e-05 4.77292e-08
0.0273844 -7.79716e-06 1.17538e-08
0.0273851 -5.48888e-06 -3.91882e-09
0.0273854 -3.85835e-06 -9.58128e-09
0.0273856 -2.70889e-06 -1.05856e-08
0.0273857 -1.89976e-06 -9.63379e-09
0.0273857 -1.33085e-06 -8.03632e-09
0.0273857 -9.31244e-07 -6.38912e-09
0.0273857 -6.50844e-07 -4.93195e-09
0.0273856 -4.54285e-07 -3.73451e-09
0.0273856 -3.16648e-07 -2.79111e-09
0.0273856 -2.20384e-07 -2.06731e-09
0.0273856 -1.53146e-07 -1.5219e-09
0.0273856 -1.06253e-07 -1.11646e-09
0.0273856 -7.36096e-08 -8.18929e-10
0.0273856 -5.09379e-08 -6.04488e-10
0.0273856 -3.52407e-08 -4.55681e-10
0.0273856 -2.44174e-08 -3.62534e-10
0.0273856 -1.69903e-08 -3.2312e-10
0.0273856 -1.19109e-08 -3.44274e-10
0.0273856 -8.41329e-09 -4.38995e-10
0.0273856 -5.90637e-09 -5.71499e-10
0.0273856 -3.91555e-09 -6.53214e-10
0.0273856 -2.19557e-09 -2.79126e-09
0.0273856 -6.47245e-10 -1.30299e-08
0.0273856 1.0046e-10 -2.11474e-08
0.0196 -1.942e-08 -4.10648e-08
0.0196 -0.00253984 -0.00425858
0.0193305 -0.00516866 -0.0090467
0.0187594 -0.00454618 -0.00772377
0.0159903 -0.00117946 -0.00449395
0.0120329 0.00456442 -0.00236468
0.00728844 0.00382654 -0.00100869
1.32872e-06 -1.12966e-06 -0.000202354
4.28834e-07 -4.28834e-07 -1.75098e-09
-6.71289e-07 7.30359e-07 8.00353e-06
0.0044971 0.00176012 0.000163374
0.0103613 0.0012043 9.20324e-05
0.0173014 -0.00166845 -0.000177358
0.0221735 -0.00201221 -0.000177103
0.0248014 -0.0015088 -8.37911e-05
0.0261052 -0.00100068 -2.40461e-05
0.02675 -0.000638447 -2.04586e-06
0.0270719 -0.000402179 3.00468e-06
0.0272329 -0.000252807 2.91323e-06
0.027313 -0.000159497 1.89257e-06
0.0273522 -0.000101365 1.04704e-06
0.027371 -6.50328e-05 5.18565e-07
0.0273795 -4.21648e-05 2.27147e-07
0.027383 -2.76322e-05 7.95383e-08
0.0273842 -1.82947e-05 1.08718e-08
0.0273844 -1.22261e-05 -1.72727e-08
0.0273841 -8.23759e-06 -2.58791e-08
0.0273837 -5.5888e-06 -2.58053e-08
0.0273833 -3.81326e-06 -2.2408e-08
0.0273829 -2.6135e-06 -1.81834e-08
0.0273826 -1.79734e-06 -1.41952e-08
0.0273824 -1.23912e-06 -1.08184e-08
0.0273823 -8.55681e-07 -8.1161e-09
0.0273821 -5.91456e-07 -6.02411e-09
0.0273821 -4.08963e-07 -4.43833e-09
0.027382 -2.82731e-07 -3.25305e-09
0.0273819 -1.95344e-07 -2.37577e-09
0.0273819 -1.34836e-07 -1.73124e-09
0.0273819 -9.29539e-08 -1.26083e-09
0.0273819 -6.39883e-08 -9.20355e-10
0.0273819 -4.39808e-08 -6.77712e-10
0.0273818 -3.01803e-08 -5.10996e-10
0.0273818 -2.06666e-08 -4.07238e-10
0.0273818 -1.40877e-08 -3.61999e-10
0.0273818 -9.47115e-09 -3.80534e-10
0.0273818 -6.08163e-09 -4.7546e-10
0.0273818 -3.29782e-09 -6.08649e-10
0.0273818 -5.07884e-10 -6.79811e-10
0.0273818 2.81419e-09 -2.79611e-09
0.0273818 6.71783e-09 -1.30554e-08
0.0273818 8.77451e-09 -2.12048e-08
0.018 -1.19445e-08 -4.21629e-08
0.018 -0.000628511 -0.00412872
0.018961 -0.000741158 -0.00850691
0.0202714 0.000525701 -0.00701256
0.0202515 0.00283576 -0.00402247
0.020021 0.00797761 -0.00214106
0.0203279 0.0133102 -0.00109113
0.0126009 0.00752996 -0.00049881
1.3608e-06 -8.98512e-07 -0.000160604
-5.50328e-07 -1.00477e-06 9.84744e-09
1.21682e-07 -0.001957 0.000597442
0.0100917 -0.00693484 0.000637794
0.0187898 -0.00903 -0.000102493
0.0238862 -0.00638771 -0.000242424
0.0261025 -0.00357867 -0.000140782
0.0269313 -0.00191598 -5.48391e-05
0.0272278 -0.00104777 -1.75947e-05
0.0273294 -0.000588026 -4.99025e-06
0.0273592 -0.000336714 -1.2525e-06
0.0273629 -0.000196179 -2.76404e-07
0.0273581 -0.000116239 -7.22474e-08
0.0273513 -7.00517e-05 -5.03313e-08
0.027345 -4.29394e-05 -5.52418e-08
0.0273399 -2.67614e-05 -5.53629e-08
0.0273359 -1.69448e-05 -4.93801e-08
0.0273329 -1.08873e-05 -4.07333e-08
0.0273307 -7.08797e-06 -3.19865e-08
0.0273291 -4.66771e-06 -2.43529e-08
0.0273279 -3.10389e-06 -1.81833e-08
0.0273271 -2.08056e-06 -1.3411e-08
0.0273265 -1.40351e-06 -9.81512e-09
0.0273261 -9.51407e-07 -7.14893e-09
0.0273258 -6.47233e-07 -5.19156e-09
0.0273256 -4.4136e-07 -3.76334e-09
0.0273254 -3.01386e-07 -2.72521e-09
0.0273253 -2.05907e-07 -1.97247e-09
0.0273252 -1.40637e-07 -1.42766e-09
0.0273252 -9.59664e-08 -1.03412e-09
0.0273251 -6.53822e-08 -7.50888e-10
0.0273251 -4.44488e-08 -5.48781e-10
0.0273251 -3.01293e-08 -4.07704e-10
0.0273251 -2.03339e-08 -3.14931e-10
0.0273251 -1.36129e-08 -2.64283e-10
0.0273251 -8.9441e-09 -2.56202e-10
0.0273251 -5.58057e-09 -2.99463e-10
0.0273251 -2.9324e-09 -4.10527e-10
0.0273251 -4.44303e-10 -5.55752e-10
0.0273251 2.60537e-09 -6.26481e-10
0.0273251 7.24365e-09 -2.7285e-09
0.0273251 1.3738e-08 -1.31752e-08
0.0273251 1.73682e-08 -2.15202e-08
0.0148 -8.96645e-09 -3.76433e-08
0.0148 0.000389425 -0.00383548
0.0174741 0.00139788 -0.00757107
0.0208108 0.0026609 -0.00590978
0.023235 0.00458901 -0.00335429
0.0250609 0.00745673 -0.00195415
0.0280991 0.0127006 -0.00120665
0.0313693 0.0208829 -0.000647636
0.0257848 0.0127024 -2.45124e-05
0.0274146 1.51614e-14 0.000636869
0.0322847 -0.00851405 0.00148711
0.0351661 -0.0177657 0.00135997
0.0328856 -0.0154033 0.000210218
0.0302142 -0.00922645 -0.000249125
0.0286114 -0.00449391 -0.000211484
0.0277712 -0.00209973 -9.9321e-05
0.0273233 -0.00102672 -3.78255e-05
0.0270741 -0.000530213 -1.32062e-05
0.0269306 -0.000285244 -4.3896e-06
0.0268457 -0.000158094 -1.38e-06
0.0267945 -8.972e-05 -3.83986e-07
0.0267629 -5.19759e-05 -6.72107e-08
0.0267432 -3.06875e-05 2.49802e-08
0.0267306 -1.84473e-05 4.49194e-08
0.0267225 -1.128e-05 4.30025e-08
0.0267172 -7.00842e-06 3.56205e-08
0.0267136 -4.41847e-06 2.79031e-08
0.0267113 -2.82207e-06 2.12794e-08
0.0267097 -1.82276e-06 1.59843e-08
0.0267086 -1.18835e-06 1.18907e-08
0.0267078 -7.80524e-07 8.78492e-09
0.0267073 -5.15542e-07 6.45708e-09
0.0267069 -3.41839e-07 4.72724e-09
0.0267067 -2.27169e-07 3.44997e-09
0.0267065 -1.51072e-07 2.51149e-09
0.0267064 -1.00389e-07 1.82448e-09
0.0267063 -6.6564e-08 1.3229e-09
0.0267063 -4.39748e-08 9.57182e-10
0.0267062 -2.88987e-08 6.90294e-10
0.0267062 -1.88528e-08 4.94437e-10
0.0267062 -1.21706e-08 3.48327e-10
0.0267062 -7.72471e-09 2.34864e-10
0.0267061 -4.74199e-09 1.3898e-10
0.0267061 -2.67603e-09 4.5467e-11
0.0267061 -1.11358e-09 -6.40729e-11
0.0267061 3.03021e-10 -2.12514e-10
0.0267061 1.965e-09 -3.77427e-10
0.0267061 4.57359e-09 -4.63924e-10
0.0267061 9.88255e-09 -2.52556e-09
0.0267061 1.91536e-08 -1.31632e-08
0.0267061 2.47778e-08 -2.17479e-08
0.01 -1.55049e-08 -3.58674e-08
0.01 0.0003537 -0.00322737
0.0136151 0.00118595 -0.00593154
0.0178541 0.00198862 -0.00420118
0.0215845 0.00319067 -0.00231612
0.0256996 0.00570597 -0.0014954
0.0309476 0.00837991 -0.00135005
0.0395771 0.0104213 -0.000991407
0.0524094 0.00398299 6.14898e-06
0.0522609 -0.00676753 0.000903051