# vtk DataFile Version 2.0
Tobias Weinzierl: CPU, Manycore and Cluster Computing
ASCII

DATASET STRUCTURED_POINTS
DIMENSIONS  51 11 6

ORIGIN 0 0 0 

SPACING 0.1 0.1 0.1 

POINT_DATA 3366

VECTORS velocity float
0 0 0
-1.19563e-14 0 0
-7.57169e-09 0 0
-9.89525e-09 0 0
-8.45015e-09 0 0
-3.83556e-09 0 0
-4.87243e-09 0 0
-7.05096e-09 0 0
-8.68706e-09 0 0
-9.24364e-09 0 0
-9.09024e-09 0 0
-8.84835e-09 0 0
-8.72951e-09 0 0
-8.72761e-09 0 0
-8.79799e-09 0 0
-8.89768e-09 0 0
-8.9975e-09 0 0
-9.08344e-09 0 0
-9.15162e-09 0 0
-9.20318e-09 0 0
-9.24108e-09 0 0
-9.26847e-09 0 0
-9.2881e-09 0 0
-9.30211e-09 0 0
-9.3121e-09 0 0
-9.31923e-09 0 0
-9.32434e-09 0 0
-9.32801e-09 0 0
-9.33065e-09 0 0
-9.33255e-09 0 0
-9.33392e-09 0 0
-9.33492e-09 0 0
-9.33564e-09 0 0
-9.33617e-09 0 0
-9.33655e-09 0 0
-9.33682e-09 0 0
-9.33702e-09 0 0
-9.33717e-09 0 0
-9.33728e-09 0 0
-9.33735e-09 0 0
-9.33741e-09 0 0
-9.33745e-09 0 0
-9.33748e-09 0 0
-9.3375e-09 0 0
-9.33752e-09 0 0
-9.33753e-09 0 0
-9.33754e-09 0 0
-9.33754e-09 0 0
-9.33755e-09 0 0
-9.33757e-09 0 0
0.00380989 0 0
0 7.7958e-09 0
1.60199e-15 4.90252e-09 0
-1.50213e-08 7.11996e-09 0
-1.8588e-08 3.22328e-09 0
-1.43553e-08 2.17479e-10 0
-5.20016e-09 1.10532e-09 0
-5.64539e-09 3.79171e-09 0
-8.58003e-09 2.98614e-09 0
-1.02658e-08 1.46992e-09 0
-1.1415e-08 3.38902e-10 0
-1.15915e-08 -1.11471e-10 0
-1.19178e-08 -5.84136e-11 0
-1.24768e-08 7.84596e-11 0
-1.30655e-08 1.67931e-10 0
-1.35991e-08 2.07188e-10 0
-1.40435e-08 2.06791e-10 0
-1.43894e-08 1.82416e-10 0
-1.46455e-08 1.48935e-10 0
-1.48289e-08 1.15711e-10 0
-1.49574e-08 8.7058e-11 0
-1.50465e-08 6.41675e-11 0
-1.5108e-08 4.66992e-11 0
-1.51505e-08 3.37397e-11 0
-1.518e-08 2.42892e-11 0
-1.52006e-08 1.74654e-11 0
-1.52151e-08 1.25627e-11 0
-1.52253e-08 9.04678e-12 0
-1.52326e-08 6.52483e-12 0
-1.52378e-08 4.71349e-12 0
-1.52416e-08 3.41011e-12 0
-1.52443e-08 2.47036e-12 0
-1.52463e-08 1.79149e-12 0
-1.52477e-08 1.30024e-12 0
-1.52487e-08 9.44267e-13 0
-1.52495e-08 6.86021e-13 0
-1.525e-08 4.98513e-13 0
-1.52504e-08 3.62281e-13 0
-1.52507e-08 2.6326e-13 0
-1.52509e-08 1.91263e-13 0
-1.52511e-08 1.38903e-13 0
-1.52512e-08 1.00815e-13 0
-1.52513e-08 7.30983e-14 0
-1.52513e-08 5.29164e-14 0
-1.52514e-08 3.82099e-14 0
-1.52514e-08 2.74914e-14 0
-1.52514e-08 1.96975e-14 0
-1.52514e-08 1.41759e-14 0
-1.52515e-08 1.13096e-14 0
-1.52515e-08 1.62591e-14 0
-1.52515e-08 4.18558e-14 0
0.00921086 -1.00917e-08 0
0 1.03789e-09 0
7.35469e-14 6.49269e-09 0
-1.40981e-08 8.64466e-09 0
-1.56543e-08 3.47584e-09 0
-7.8815e-09 4.44814e-10 0
-5.49704e-09 5.81123e-10 0
-7.20818e-09 2.79567e-09 0
-9.97219e-09 6.84262e-10 0
-6.54967e-09 -2.79166e-10 0
-5.2643e-09 1.06869e-09 0
-5.02204e-09 1.8317e-09 0
-5.67892e-09 2.31048e-09 0
-6.76275e-09 2.12153e-09 0
-7.72318e-09 1.65332e-09 0
-8.49183e-09 1.22411e-09 0
-9.07331e-09 8.88299e-10 0
-9.49013e-09 6.34028e-10 0
-9.77711e-09 4.46185e-10 0
-9.9698e-09 3.10816e-10 0
-1.00976e-08 2.15283e-10 0
-1.01822e-08 1.4887e-10 0
-1.02385e-08 1.03116e-10 0
-1.02762e-08 7.17122e-11 0
-1.03019e-08 5.01463e-11 0
-1.03196e-08 3.5282e-11 0
-1.03319e-08 2.49781e-11 0
-1.03406e-08 1.77866e-11 0
-1.03467e-08 1.27316e-11 0
-1.03512e-08 9.15367e-12 0
-1.03544e-08 6.60539e-12 0
-1.03567e-08 4.78051e-12 0
-1.03584e-08 3.46768e-12 0
-1.03596e-08 2.51972e-12 0
-1.03605e-08 1.83321e-12 0
-1.03611e-08 1.33491e-12 0
-1.03616e-08 9.72606e-13 0
-1.0362e-08 7.08858e-13 0
-1.03622e-08 5.16684e-13 0
-1.03624e-08 3.76573e-13 0
-1.03625e-08 2.74373e-13 0
-1.03626e-08 1.99801e-13 0
-1.03627e-08 1.45374e-13 0
-1.03628e-08 1.05648e-13 0
-1.03628e-08 7.66883e-14 0
-1.03628e-08 5.57229e-14 0
-1.03628e-08 4.09839e-14 0
-1.03629e-08 3.16386e-14 0
-1.03629e-08 2.76877e-14 0
-1.03629e-08 2.87087e-14 0
-1.03629e-08 3.51742e-14 0
0.0109922 -9.47389e-09 0
0 -8.5189e-09 0
1.38462e-13 4.47599e-09 0
-1.36416e-08 4.03576e-09 0
-1.51911e-08 -1.34862e-09 0
-5.99231e-09 1.13942e-09 0
-4.13243e-09 2.04781e-09 0
-6.43524e-09 -9.73449e-15 0
-8.44312e-09 -7.42093e-09 0
-1.39465e-08 -1.07378e-08 0
-1.04255e-08 -3.08186e-09 0
-8.34771e-09 2.12661e-09 0
-7.61156e-09 4.0112e-09 0
-7.52989e-09 3.7474e-09 0
-7.61214e-09 2.78695e-09 0
-7.82051e-09 1.96932e-09 0
-8.05267e-09 1.36811e-09 0
-8.24477e-09 9.3782e-10 0
-8.38385e-09 6.37051e-10 0
-8.47873e-09 4.31183e-10 0
-8.54218e-09 2.92246e-10 0
-8.58471e-09 1.99101e-10 0
-8.61363e-09 1.36675e-10 0
-8.63365e-09 9.46486e-11 0
-8.64778e-09 6.61373e-11 0
-8.65789e-09 4.66105e-11 0
-8.66521e-09 3.3101e-11 0
-8.67055e-09 2.36618e-11 0
-8.67447e-09 1.70065e-11 0
-8.67735e-09 1.22765e-11 0
-8.67947e-09 8.89246e-12 0
-8.68103e-09 6.45802e-12 0
-8.68218e-09 4.69913e-12 0
-8.68303e-09 3.42406e-12 0
-8.68365e-09 2.49737e-12 0
-8.68411e-09 1.82262e-12 0
-8.68445e-09 1.33064e-12 0
-8.6847e-09 9.71589e-13 0
-8.68488e-09 7.09387e-13 0
-8.68501e-09 5.1783e-13 0
-8.68511e-09 3.77844e-13 0
-8.68518e-09 2.75523e-13 0
-8.68524e-09 2.00716e-13 0
-8.68527e-09 1.46024e-13 0
-8.6853e-09 1.06051e-13 0
-8.68532e-09 7.68595e-14 0
-8.68534e-09 5.55834e-14 0
-8.68535e-09 4.02958e-14 0
-8.68535e-09 2.99507e-14 0
-8.68535e-09 2.44503e-14 0
-8.68536e-09 2.32286e-14 0
0.0111982 -6.2137e-09 0
0 -1.6051e-08 0
1.52618e-13 1.61957e-09 0
-1.4776e-08 -3.13114e-10 0
-1.76875e-08 -3.20266e-09 0
-1.01612e-08 -5.51538e-10 0
-3.28036e-14 7.18397e-10 0
-5.19209e-13 -5.60853e-13 0
4.81217e-13 -5.69426e-13 0
-8.97561e-09 -5.90685e-09 0
-1.35552e-08 -7.73721e-09 0
-1.099e-08 -7.86932e-10 0
-1.04958e-08 2.84382e-09 0
-9.93126e-09 3.29377e-09 0
-9.23727e-09 2.62834e-09 0
-8.81913e-09 1.95615e-09 0
-8.6144e-09 1.39129e-09 0
-8.51698e-09 9.57046e-10 0
-8.4701e-09 6.48156e-10 0
-8.44785e-09 4.38159e-10 0
-8.43821e-09 2.98107e-10 0
-8.43519e-09 2.0494e-10 0
-8.43558e-09 1.42524e-10 0
-8.43755e-09 1.00211e-10 0
-8.44008e-09 7.11394e-11 0
-8.44262e-09 5.09024e-11 0
-8.44492e-09 3.6651e-11 0
-8.44686e-09 2.65166e-11 0
-8.44845e-09 1.92535e-11 0
-8.4497e-09 1.40164e-11 0
-8.45068e-09 1.02227e-11 0
-8.45143e-09 7.46534e-12 0
-8.452e-09 5.45621e-12 0
-8.45242e-09 3.98976e-12 0
-8.45274e-09 2.91816e-12 0
-8.45298e-09 2.13448e-12 0
-8.45315e-09 1.56112e-12 0
-8.45328e-09 1.14152e-12 0
-8.45338e-09 8.3444e-13 0
-8.45345e-09 6.09694e-13 0
-8.4535e-09 4.45211e-13 0
-8.45354e-09 3.24823e-13 0
-8.45357e-09 2.3668e-13 0
-8.45359e-09 1.72084e-13 0
-8.4536e-09 1.24655e-13 0
-8.45361e-09 8.97408e-14 0
-8.45362e-09 6.39981e-14 0
-8.45362e-09 4.50477e-14 0
-8.45362e-09 3.12289e-14 0
-8.45362e-09 2.15638e-14 0
-8.45363e-09 1.48077e-14 0
0.0112149 -2.9379e-09 0
0 -1.40688e-08 0
1.62082e-13 -1.7591e-10 0
-1.52399e-08 -1.62987e-09 0
-1.91379e-08 -3.1177e-09 0
-1.34141e-08 -3.08989e-09 0
-4.47973e-09 -1.42616e-09 0
-5.17434e-13 4.91565e-13 0
-1.03476e-14 1.03476e-14 0
4.55712e-13 -5.06722e-13 0
-6.22263e-09 -3.15145e-09 0
-8.39913e-09 -1.85694e-09 0
-1.16241e-08 3.21437e-09 0
-1.2131e-08 3.19038e-09 0
-1.09505e-08 2.16029e-09 0
-9.89838e-09 1.51561e-09 0
-9.25152e-09 1.0555e-09 0
-8.88719e-09 7.2335e-10 0
-8.68567e-09 4.96497e-10 0
-8.57411e-09 3.4512e-10 0
-8.51209e-09 2.43622e-10 0
-8.47753e-09 1.74354e-10 0
-8.45825e-09 1.26098e-10 0
-8.44753e-09 9.18612e-11 0
-8.44159e-09 6.7229e-11 0
-8.43831e-09 4.93345e-11 0
-8.43652e-09 3.62536e-11 0
-8.43554e-09 2.6656e-11 0
-8.43502e-09 1.96002e-11 0
-8.43475e-09 1.44083e-11 0
-8.4346e-09 1.05872e-11 0
-8.43453e-09 7.77542e-12 0
-8.4345e-09 5.70718e-12 0
-8.43448e-09 4.18668e-12 0
-8.43448e-09 3.0695e-12 0
-8.43448e-09 2.24914e-12 0
-8.43448e-09 1.64709e-12 0
-8.43448e-09 1.20551e-12 0
-8.43448e-09 8.81779e-13 0
-8.43448e-09 6.44557e-13 0
-8.43448e-09 4.70779e-13 0
-8.43448e-09 3.43487e-13 0
-8.43448e-09 2.50216e-13 0
-8.43448e-09 1.81806e-13 0
-8.43448e-09 1.3152e-13 0
-8.43448e-09 9.43929e-14 0
-8.43448e-09 6.67406e-14 0
-8.43448e-09 4.58286e-14 0
-8.43447e-09 2.96785e-14 0
-8.43447e-09 1.69021e-14 0
-8.43447e-09 6.20468e-15 0
0.0112159 2.06535e-10 0
0 -9.92957e-09 0
1.60906e-13 -1.59646e-09 0
-1.45532e-08 -3.24924e-09 0
-1.90203e-08 -2.5789e-09 0
-1.43753e-08 -1.90135e-09 0
-9.5707e-09 -3.84054e-09 0
-5.08572e-09 -2.8653e-09 0
-5.23329e-13 4.59799e-13 0
-4.08727e-15 4.08727e-15 0
4.45535e-13 -4.65888e-13 0
-3.23606e-09 4.03216e-09 0
-1.28815e-08 6.77585e-09 0
-1.55174e-08 3.5651e-09 0
-1.29796e-08 1.15733e-09 0
-1.07152e-08 5.65287e-10 0
-9.56139e-09 4.09186e-10 0
-9.02577e-09 3.23983e-10 0
-8.76814e-09 2.60082e-10 0
-8.63673e-09 2.08445e-10 0
-8.56576e-09 1.65588e-10 0
-8.52533e-09 1.29973e-10 0
-8.50111e-09 1.00776e-10 0
-8.48595e-09 7.7282e-11 0
-8.47609e-09 5.87167e-11 0
-8.46949e-09 4.42737e-11 0
-8.46496e-09 3.31799e-11 0
-8.46179e-09 2.47448e-11 0
-8.45955e-09 1.83821e-11 0
-8.45794e-09 1.36129e-11 0
-8.45678e-09 1.00556e-11 0
-8.45594e-09 7.41265e-12 0
-8.45533e-09 5.45514e-12 0
-8.45488e-09 4.00892e-12 0
-8.45455e-09 2.9426e-12 0
-8.45431e-09 2.15769e-12 0
-8.45413e-09 1.58071e-12 0
-8.454e-09 1.15706e-12 0
-8.45391e-09 8.46283e-13 0
-8.45384e-09 6.18478e-13 0
-8.45379e-09 4.5158e-13 0
-8.45375e-09 3.29334e-13 0
-8.45372e-09 2.3977e-13 0
-8.4537e-09 1.74076e-13 0
-8.45369e-09 1.25747e-13 0
-8.45367e-09 8.99473e-14 0
-8.45367e-09 6.30239e-14 0
-8.45366e-09 4.21461e-14 0
-8.45365e-09 2.51307e-14 0
-8.45365e-09 1.03609e-14 0
-8.45365e-09 -3.16795e-15 0
0.0112149 3.3247e-09 0
0 -7.19436e-09 0
1.28156e-13 -2.72661e-09 0
-1.37122e-08 -4.44096e-09 0
-1.79042e-08 -2.51325e-09 0
-1.42466e-08 -1.53152e-09 0
-1.0625e-08 -2.14955e-09 0
-9.86914e-09 -5.87677e-09 0
-6.91616e-09 -4.45984e-09 0
-5.39073e-13 3.80524e-13 0
4.30715e-13 3.00695e-13 0
6.56776e-14 9.49545e-09 0
-1.15615e-08 1.40338e-08 0
-1.64896e-08 4.18954e-09 0
-1.37332e-08 -1.06047e-09 0
-1.0856e-08 -9.87355e-10 0
-9.55076e-09 -3.27679e-10 0
-9.07287e-09 -2.25216e-11 0
-8.89822e-09 8.51389e-11 0
-8.8254e-09 1.14583e-10 0
-8.78742e-09 1.12431e-10 0
-8.76281e-09 9.8127e-11 0
-8.74469e-09 8.06135e-11 0
-8.73071e-09 6.38909e-11 0
-8.71982e-09 4.9489e-11 0
-8.71138e-09 3.77475e-11 0
-8.7049e-09 2.84842e-11 0
-8.69997e-09 2.1329e-11 0
-8.69625e-09 1.58809e-11 0
-8.69345e-09 1.17741e-11 0
-8.69136e-09 8.7009e-12 0
-8.6898e-09 6.41351e-12 0
-8.68864e-09 4.71793e-12 0
-8.68778e-09 3.46496e-12 0
-8.68715e-09 2.54133e-12 0
-8.68668e-09 1.8618e-12 0
-8.68634e-09 1.36263e-12 0
-8.68608e-09 9.96419e-13 0
-8.6859e-09 7.28028e-13 0
-8.68576e-09 5.31486e-13 0
-8.68566e-09 3.87641e-13 0
-8.68558e-09 2.8239e-13 0
-8.68553e-09 2.05352e-13 0
-8.68549e-09 1.48884e-13 0
-8.68546e-09 1.07338e-13 0
-8.68544e-09 7.64956e-14 0
-8.68542e-09 5.31098e-14 0
-8.68541e-09 3.45065e-14 0
-8.6854e-09 1.8316e-14 0
-8.6854e-09 2.48469e-15 0
-8.6854e-09 -1.37354e-14 0
0.0111982 6.51077e-09 0
0 -6.85269e-09 0
8.27023e-14 -3.268e-09 0
-1.30902e-08 -5.0369e-09 0
-1.68078e-08 -2.31322e-09 0
-1.45553e-08 -9.43053e-10 0
-1.21626e-08 -1.41971e-09 0
-1.0564e-08 -3.11281e-09 0
-1.29182e-08 -8.14223e-09 0
-1.16646e-08 -6.0504e-09 0
-1.3602e-08 -2.32832e-19 0
-1.26898e-08 1.11133e-08 0
-8.01778e-09 1.72521e-08 0
-7.99249e-09 5.05433e-09 0
-9.4825e-09 -2.66705e-09 0
-1.00576e-08 -2.20087e-09 0
-1.02816e-08 -7.54473e-10 0
-1.04031e-08 -1.1721e-10 0
-1.04624e-08 7.54729e-11 0
-1.04803e-08 1.14089e-10 0
-1.04754e-08 1.0652e-10 0
-1.04606e-08 8.77875e-11 0
-1.04432e-08 6.88061e-11 0
-1.04266e-08 5.26126e-11 0
-1.04123e-08 3.96723e-11 0
-1.04007e-08 2.96539e-11 0
-1.03915e-08 2.20344e-11 0
-1.03843e-08 1.63036e-11 0
-1.03789e-08 1.20256e-11 0
-1.03748e-08 8.84877e-12 0
-1.03717e-08 6.49893e-12 0
-1.03694e-08 4.76587e-12 0
-1.03677e-08 3.49059e-12 0
-1.03664e-08 2.55387e-12 0
-1.03655e-08 1.86682e-12 0
-1.03648e-08 1.3635e-12 0
-1.03643e-08 9.95162e-13 0
-1.03639e-08 7.25825e-13 0
-1.03637e-08 5.29023e-13 0
-1.03635e-08 3.85304e-13 0
-1.03633e-08 2.8039e-13 0
-1.03632e-08 2.03809e-13 0
-1.03631e-08 1.47882e-13 0
-1.03631e-08 1.06963e-13 0
-1.0363e-08 7.68865e-14 0
-1.0363e-08 5.45318e-14 0
-1.0363e-08 3.74643e-14 0
-1.0363e-08 2.35239e-14 0
-1.03629e-08 1.02351e-14 0
-1.03629e-08 -5.96216e-15 0
-1.0363e-08 -2.75797e-14 0
0.0109922 9.57206e-09 0
0 -7.83223e-09 0
4.27645e-14 -2.38474e-09 0
-1.29644e-08 -3.61065e-09 0
-1.71101e-08 -1.68464e-09 0
-1.68567e-08 -7.90604e-10 0
-1.61498e-08 -8.86558e-10 0
-1.50749e-08 -1.34658e-09 0
-1.42197e-08 -8.46981e-10 0
-1.84428e-08 2.05366e-09 0
-1.9399e-08 3.85303e-10 0
-2.11874e-08 -4.76631e-09 0
-1.51232e-08 -3.59219e-09 0
-1.33394e-08 5.97897e-10 0
-1.50605e-08 2.36849e-09 0
-1.58432e-08 2.00541e-09 0
-1.58614e-08 1.2052e-09 0
-1.5727e-08 6.39983e-10 0
-1.56074e-08 3.38059e-10 0
-1.55181e-08 1.88918e-10 0
-1.54518e-08 1.13601e-10 0
-1.54018e-08 7.27762e-11 0
-1.53639e-08 4.87709e-11 0
-1.53352e-08 3.36492e-11 0
-1.53136e-08 2.36425e-11 0
-1.52975e-08 1.68026e-11 0
-1.52854e-08 1.20296e-11 0
-1.52764e-08 8.65414e-12 0
-1.52698e-08 6.24599e-12 0
-1.52649e-08 4.51774e-12 0
-1.52613e-08 3.2724e-12 0
-1.52587e-08 2.37254e-12 0
-1.52568e-08 1.72107e-12 0
-1.52553e-08 1.24883e-12 0
-1.52543e-08 9.06232e-13 0
-1.52535e-08 6.57573e-13 0
-1.5253e-08 4.7705e-13 0
-1.52526e-08 3.45983e-13 0
-1.52523e-08 2.50827e-13 0
-1.52521e-08 1.81747e-13 0
-1.52519e-08 1.31598e-13 0
-1.52518e-08 9.51821e-14 0
-1.52517e-08 6.87157e-14 0
-1.52517e-08 4.9435e-14 0
-1.52516e-08 3.53029e-14 0
-1.52516e-08 2.47854e-14 0
-1.52516e-08 1.66608e-14 0
-1.52515e-08 9.74986e-15 0
-1.52515e-08 2.16238e-15 0
-1.52515e-08 -1.18804e-14 0
-1.52516e-08 -4.23983e-14 0
0.00921086 9.87646e-09 0
0 0 0
1.5251e-14 0 0
-6.49028e-09 0 0
-8.86629e-09 0 0
-9.44163e-09 0 0
-9.5212e-09 0 0
-9.29432e-09 0 0
-8.21761e-09 0 0
-6.77831e-09 0 0
-5.797e-09 0 0
-8.49752e-09 0 0
-1.19158e-08 0 0
-1.30332e-08 0 0
-1.22717e-08 0 0
-1.11354e-08 0 0
-1.03315e-08 0 0
-9.88778e-09 0 0
-9.65945e-09 0 0
-9.53891e-09 0 0
-9.47066e-09 0 0
-9.4289e-09 0 0
-9.40172e-09 0 0
-9.38325e-09 0 0
-9.37036e-09 0 0
-9.36122e-09 0 0
-9.35468e-09 0 0
-9.34997e-09 0 0
-9.34656e-09 0 0
-9.34409e-09 0 0
-9.3423e-09 0 0
-9.341e-09 0 0
-9.34006e-09 0 0
-9.33938e-09 0 0
-9.33888e-09 0 0
-9.33852e-09 0 0
-9.33825e-09 0 0
-9.33806e-09 0 0
-9.33792e-09 0 0
-9.33782e-09 0 0
-9.33775e-09 0 0
-9.3377e-09 0 0
-9.33766e-09 0 0
-9.33763e-09 0 0
-9.33761e-09 0 0
-9.3376e-09 0 0
-9.33759e-09 0 0
-9.33758e-09 0 0
-9.33758e-09 0 0
-9.33758e-09 0 0
-9.3376e-09 0 0
0.00380989 0 0
0 0 7.12075e-09
2.70398e-14 0 2.66917e-09
-1.61722e-08 0 2.77527e-09
-2.09452e-08 0 -2.34481e-09
-1.71026e-08 0 -6.27717e-09
-1.1803e-09 0 -4.68304e-09
-1.13133e-09 0 -5.7631e-10
-4.27946e-09 0 8.28485e-10
-7.16648e-09 0 7.2276e-10
-8.85222e-09 0 6.42794e-11
-9.87686e-09 0 -2.83815e-10
-1.08799e-08 0 -3.02313e-10
-1.18579e-08 0 -1.99205e-10
-1.26961e-08 0 -9.94521e-11
-1.33752e-08 0 -3.71101e-11
-1.39059e-08 0 -7.27942e-12
-1.4305e-08 0 3.33992e-12
-1.45952e-08 0 5.18345e-12
-1.48009e-08 0 4.0294e-12
-1.49445e-08 0 2.39852e-12
-1.50437e-08 0 1.12142e-12
-1.5112e-08 0 3.21452e-13
-1.51592e-08 0 -1.03772e-13
-1.51918e-08 0 -2.88136e-13
-1.52144e-08 0 -3.36812e-13
-1.52303e-08 0 -3.1837e-13
-1.52416e-08 0 -2.72699e-13
-1.52495e-08 0 -2.20826e-13
-1.52552e-08 0 -1.72597e-13
-1.52593e-08 0 -1.31742e-13
-1.52622e-08 0 -9.8916e-14
-1.52644e-08 0 -7.34048e-14
-1.52659e-08 0 -5.40134e-14
-1.5267e-08 0 -3.94983e-14
-1.52678e-08 0 -2.87509e-14
-1.52684e-08 0 -2.08556e-14
-1.52689e-08 0 -1.50888e-14
-1.52692e-08 0 -1.08935e-14
-1.52694e-08 0 -7.85028e-15
-1.52696e-08 0 -5.64637e-15
-1.52697e-08 0 -4.04969e-15
-1.52698e-08 0 -2.88933e-15
-1.52698e-08 0 -2.03869e-15
-1.52699e-08 0 -1.4052e-15
-1.52699e-08 0 -9.316e-16
-1.527e-08 0 -6.18995e-16
-1.527e-08 0 -4.6759e-16
-1.527e-08 0 2.43292e-16
-1.527e-08 0 6.90389e-15
-1.527e-08 0 3.30944e-14
0.00920989 0 -8.58361e-09
0.0036 7.07292e-09 4.81142e-09
0.00359998 -0.00317586 -0.00138446
0.0104466 -0.00736933 -0.00306326
0.0201448 -0.00908477 -0.0032238
0.0313661 -0.0104939 -0.00276471
0.0462324 -0.0062712 -0.00142174
0.0474257 -4.19366e-05 -0.000124993
0.0467672 0.00268979 0.000205764
0.0414067 0.00426883 8.70205e-05
0.0360991 0.00412336 -0.000146414
0.0315685 0.00339061 -0.000194488
0.0281394 0.00250185 -0.000146938
0.0258183 0.0017009 -8.79345e-05
0.0243546 0.00109199 -4.54547e-05
0.0234692 0.000673513 -2.10283e-05
0.0229508 0.000402002 -8.87923e-06
0.0226567 0.000232781 -3.46828e-06
0.0224953 0.000130797 -1.27987e-06
0.0224101 7.11558e-05 -4.77872e-07
0.0223674 3.72552e-05 -2.15346e-07
0.0223475 1.85335e-05 -1.39046e-07
0.0223395 8.52081e-06 -1.1622e-07
0.0223373 3.37477e-06 -1.03552e-07
0.0223377 8.73704e-07 -9.02912e-08
0.0223392 -2.35633e-07 -7.5758e-08
0.0223408 -6.42911e-07 -6.13858e-08
0.0223423 -7.1746e-07 -4.8387e-08
0.0223435 -6.50569e-07 -3.73521e-08
0.0223445 -5.36895e-07 -2.83876e-08
0.0223453 -4.20054e-07 -2.13261e-08
0.0223458 -3.17643e-07 -1.58842e-08
0.0223463 -2.34645e-07 -1.17559e-08
0.0223466 -1.70412e-07 -8.65951e-09
0.0223468 -1.22174e-07 -6.35644e-09
0.0223469 -8.67014e-08 -4.65385e-09
0.022347 -6.10141e-08 -3.40087e-09
0.0223471 -4.26316e-08 -2.48196e-09
0.0223472 -2.96006e-08 -1.80998e-09
0.0223472 -2.04364e-08 -1.32003e-09
0.0223472 -1.40369e-08 -9.64367e-10
0.0223473 -9.59836e-09 -7.08527e-10
0.0223473 -6.54224e-09 -5.28459e-10
0.0223473 -4.45757e-09 -4.08669e-10
0.0223473 -3.05738e-09 -3.41112e-10
0.0223473 -2.15014e-09 -3.24553e-10
0.0223473 -1.62404e-09 -3.57165e-10
0.0223473 -1.41917e-09 -3.81639e-10
0.0223473 -1.67221e-09 -3.57099e-10
0.0223473 -4.79537e-09 -2.33499e-09
0.0223473 -1.716e-08 -1.26816e-08
0.0223473 -2.66824e-08 -2.10293e-08
0.01 7.83217e-09 -2.30386e-09
0.01 -0.00565029 -0.0023814
0.0161236 -0.0139359 -0.00502731
0.0252174 -0.0183179 -0.00476415
0.0360898 -0.0239693 -0.00330559
0.0542787 -0.0148188 -0.000834611
0.0536704 -0.000104038 0.00082017
0.0542802 0.00618731 0.000891594
0.0472062 0.0107809 0.00044382
0.0403119 0.00996448 -0.000147669
0.0351522 0.00806816 -0.000314173
0.0315303 0.00582425 -0.000237749
0.0293199 0.00382796 -0.000138409
0.0280732 0.00237129 -6.91585e-05
0.027393 0.0014141 -3.02583e-05
0.0270341 0.000816947 -1.1477e-05
0.0268532 0.000457264 -3.47349e-06
0.0267676 0.000247209 -4.99317e-07
0.0267313 0.000128137 3.81151e-07
0.0267192 6.26786e-05 4.98045e-07
0.0267182 2.79158e-05 3.9375e-07
0.0267217 1.02426e-05 2.62615e-07
0.0267264 1.80766e-06 1.59719e-07
0.026731 -1.80334e-06 9.10724e-08
0.026735 -3.0087e-06 4.90834e-08
0.0267381 -3.09591e-06 2.48615e-08
0.0267406 -2.72655e-06 1.15444e-08
0.0267424 -2.2241e-06 4.56721e-09
0.0267438 -1.73454e-06 1.12327e-09
0.0267448 -1.31406e-06 -4.27976e-10
0.0267455 -9.75871e-07 -1.00944e-09
0.0267461 -7.14435e-07 -1.12308e-09
0.0267464 -5.17516e-07 -1.03252e-09
0.0267467 -3.71846e-07 -8.70311e-10
0.0267469 -2.65486e-07 -6.99023e-10
0.026747 -1.88581e-07 -5.45093e-10
0.0267471 -1.33391e-07 -4.17116e-10
0.0267472 -9.40191e-08 -3.1552e-10
0.0267473 -6.60706e-08 -2.37537e-10
0.0267473 -4.63161e-08 -1.79715e-10
0.0267473 -3.24112e-08 -1.39205e-10
0.0267473 -2.26706e-08 -1.14491e-10
0.0267473 -1.58965e-08 -1.05875e-10
0.0267473 -1.12552e-08 -1.15593e-10
0.0267474 -8.19955e-09 -1.46843e-10
0.0267474 -6.47687e-09 -1.98329e-10
0.0267474 -6.36461e-09 -2.25177e-10
0.0267474 -8.85883e-09 -2.10991e-10
0.0267474 -1.42333e-08 -2.65132e-09
0.0267474 -2.20664e-08 -1.48532e-08
0.0267474 -2.65924e-08 -2.46039e-08
0.0148 -1.2192e-08 -1.36133e-09
0.0148 -0.00706438 -0.00312225
0.0191457 -0.0176658 -0.00672239
0.0248009 -0.0242688 -0.00622846
0.0279915 -0.0360881 -0.00379451
0.0272832 -0.022421 -0.000736747
0.0262837 -1.57179e-07 0.00082
0.0269795 0.00911709 0.000842092
0.0323026 0.0182737 0.000625297
0.0310847 0.0163159 0.000133504
0.0290164 0.0123165 -0.000133558
0.0276468 0.00843517 -0.000164474
0.0270155 0.00521699 -0.000110463
0.0268395 0.00304897 -5.55694e-05
0.026851 0.00172611 -2.07737e-05
0.026926 0.00094717 -4.33023e-06
0.0270097 0.000501084 1.61213e-06
0.027081 0.000253041 2.87588e-06
0.0271354 0.000119468 2.49908e-06
0.0271744 5.01678e-05 1.77307e-06
0.0272014 1.59275e-05 1.13861e-06
0.0272199 2.29162e-07 6.88373e-07
0.0272324 -6.0236e-06 3.99207e-07
0.0272408 -7.70928e-06 2.24156e-07
0.0272465 -7.36739e-06 1.22327e-07
0.0272504 -6.26974e-06 6.4841e-08
0.027253 -5.01776e-06 3.31997e-08
0.0272549 -3.86875e-06 1.62048e-08
0.0272561 -2.91053e-06 7.32211e-09
0.027257 -2.15267e-06 2.83871e-09
0.0272576 -1.57271e-06 6.88643e-10
0.027258 -1.13856e-06 -2.56475e-10
0.0272583 -8.18541e-07 -6.01563e-10
0.0272585 -5.85276e-07 -6.6413e-10
0.0272587 -4.16668e-07 -6.06382e-10
0.0272588 -2.95577e-07 -5.08057e-10
0.0272588 -2.09053e-07 -4.06024e-10
0.0272589 -1.47483e-07 -3.15539e-10
0.0272589 -1.03822e-07 -2.41476e-10
0.0272589 -7.29611e-08 -1.84204e-10
0.027259 -5.1219e-08 -1.42653e-10
0.027259 -3.59663e-08 -1.15948e-10
0.027259 -2.53446e-08 -1.04359e-10
0.027259 -1.80714e-08 -1.10231e-10
0.027259 -1.33218e-08 -1.39864e-10
0.027259 -1.06347e-08 -2.02185e-10
0.027259 -9.69834e-09 -2.74067e-10
0.027259 -1.02432e-08 -3.72238e-10
0.027259 -1.24099e-08 -2.90876e-09
0.027259 -1.61449e-08 -1.46427e-08
0.027259 -1.83284e-08 -2.39069e-08
0.018 -2.98538e-08 -7.49548e-09
0.018 -0.00698782 -0.0038969
0.0195619 -0.0169284 -0.00850673
0.0201689 -0.0199622 -0.00745014
0.016303 -0.0212691 -0.00441382
-9.39484e-09 -0.0112475 -0.0015735
1.73993e-06 6.91445e-07 4.39971e-09
-7.47078e-07 8.02706e-07 0.000132147
0.00907556 0.00657787 0.000276802
0.0181983 0.0132731 0.000229442
0.0207587 0.0115801 7.30455e-05
0.0221008 0.00789519 -5.65346e-05
0.0235947 0.00468211 -7.37898e-05
0.0248442 0.00256044 -3.87615e-05
0.025739 0.0013377 -9.56901e-06
0.0263359 0.000661223 3.54023e-06
0.0267162 0.000302257 6.75019e-06
0.0269508 0.000120665 5.96765e-06
0.0270926 3.3986e-05 4.23767e-06
0.0271771 -3.9629e-06 2.69841e-06
0.027227 -1.79829e-05 1.60785e-06
0.0272565 -2.09315e-05 9.1459e-07
0.027274 -1.92471e-05 5.01212e-07
0.0272843 -1.60183e-05 2.6515e-07
0.0272905 -1.26326e-05 1.34753e-07
0.0272943 -9.64108e-06 6.48312e-08
0.0272966 -7.20131e-06 2.84993e-08
0.027298 -5.29966e-06 1.03532e-08
0.0272989 -3.85891e-06 1.80486e-09
0.0272995 -2.78786e-06 -1.82783e-09
0.0272999 -2.00212e-06 -3.04367e-09
0.0273001 -1.43119e-06 -3.14531e-09
0.0273003 -1.0193e-06 -2.79167e-09
0.0273004 -7.23766e-07 -2.30184e-09
0.0273004 -5.12614e-07 -1.81952e-09
0.0273005 -3.62271e-07 -1.40076e-09
0.0273005 -2.55529e-07 -1.05985e-09
0.0273006 -1.79928e-07 -7.9284e-10
0.0273006 -1.26502e-07 -5.89186e-10
0.0273006 -8.88303e-08 -4.37352e-10
0.0273006 -6.23323e-08 -3.27369e-10
0.0273006 -4.37577e-08 -2.52098e-10
0.0273006 -3.08125e-08 -2.08179e-10
0.0273006 -2.1889e-08 -1.97533e-10
0.0273006 -1.58571e-08 -2.30528e-10
0.0273006 -1.191e-08 -3.2408e-10
0.0273006 -9.48805e-09 -4.42745e-10
0.0273006 -8.20874e-09 -5.49278e-10
0.0273006 -7.992e-09 -3.00542e-09
0.0273006 -8.64832e-09 -1.43685e-08
0.0273006 -9.12703e-09 -2.33276e-08
0.0196 -3.43296e-08 -2.37319e-08
0.0196 -0.00490897 -0.00446005
0.0192429 -0.0108837 -0.0095345
0.0175594 -0.0118963 -0.00790833
0.0133339 -0.00972165 -0.00448183
0.0034409 -0.00380007 -0.00202391
1.34802e-06 -1.25024e-06 -0.000375946
5.03166e-07 -5.03166e-07 -9.13003e-10
-7.20404e-07 7.73752e-07 2.26081e-05
0.00657061 0.00458572 6.57202e-05
0.0132575 0.00841156 4.85854e-05
0.0166151 0.00562926 -4.88848e-05
0.0203313 0.00250631 -9.49465e-05
0.0231354 0.000923411 -5.5522e-05
0.0249139 0.000241101 -1.58371e-05
0.0259635 -2.95165e-05 2.60459e-06
0.0265619 -0.000115507 7.17924e-06
0.0268967 -0.000125179 6.3398e-06
0.0270818 -0.000108131 4.34107e-06
0.0271833 -8.51992e-05 2.63654e-06
0.0272387 -6.4107e-05 1.48882e-06
0.0272688 -4.7028e-05 7.96305e-07
0.027285 -3.3997e-05 4.04709e-07
0.0272937 -2.43635e-05 1.93289e-07
0.0272983 -1.73678e-05 8.37008e-08
0.0273007 -1.23403e-05 2.94162e-08
0.027302 -8.74959e-06 4.18312e-09
0.0273026 -6.19479e-06 -6.3071e-09
0.0273029 -4.38132e-06 -9.64071e-09
0.0273031 -3.09604e-06 -9.73238e-09
0.0273031 -2.1861e-06 -8.53754e-09
0.0273031 -1.54243e-06 -6.9886e-09
0.0273031 -1.08744e-06 -5.49668e-09
0.0273031 -7.66043e-07 -4.21595e-09
0.0273031 -5.39172e-07 -3.18018e-09
0.0273031 -3.79145e-07 -2.37169e-09
0.0273031 -2.66357e-07 -1.75488e-09
0.0273031 -1.86934e-07 -1.29177e-09
0.0273031 -1.31064e-07 -9.48396e-10
0.0273031 -9.18082e-08 -6.97107e-10
0.0273031 -6.42686e-08 -5.16908e-10
0.0273031 -4.49864e-08 -3.93413e-10
0.0273031 -3.15199e-08 -3.18958e-10
0.0273031 -2.21395e-08 -2.9312e-10
0.0273031 -1.56094e-08 -3.23025e-10
0.0273031 -1.10238e-08 -4.17927e-10
0.0273031 -7.68755e-09 -5.35082e-10
0.0273031 -5.05295e-09 -6.27197e-10
0.0273031 -2.82515e-09 -3.04199e-09
0.0273031 -8.56347e-10 -1.42744e-08
0.0273031 8.67495e-11 -2.31317e-08
0.0196 -1.93478e-08 -3.77092e-08
0.0196 -0.00245576 -0.00460473
0.0194493 -0.00497678 -0.00950854
0.0190062 -0.00433481 -0.00772642
0.0162628 -0.0010161 -0.00425624
0.01225 0.00471923 -0.00216857
0.00742203 0.00392156 -0.000923006
1.35118e-06 -1.14931e-06 -0.000188101
4.28906e-07 -4.28906e-07 -1.6306e-09
-6.90432e-07 7.50376e-07 6.0251e-06
0.00458411 0.00152931 0.000129218
0.0108136 0.000845415 5.68187e-05
0.0178157 -0.00179862 -0.000160315
0.0224746 -0.00199672 -0.000141127
0.0249188 -0.00148046 -6.14824e-05
0.0261244 -0.000985118 -1.6152e-05
0.0267208 -0.000632144 -6.53517e-07
0.0270182 -0.000400896 2.54892e-06
0.0271666 -0.000254037 2.25193e-06
0.02724 -0.000161804 1.4137e-06
0.0272757 -0.000103944 7.62613e-07
0.0272925 -6.74721e-05 3.66627e-07
0.0272999 -4.42849e-05 1.52498e-07
0.0273028 -2.93848e-05 4.6264e-08
0.0273036 -1.96972e-05 -1.66145e-09
0.0273036 -1.33236e-05 -2.01102e-08
0.0273031 -9.08313e-06 -2.46294e-08
0.0273026 -6.23277e-06 -2.31708e-08
0.0273022 -4.29958e-06 -1.96027e-08
0.0273018 -2.97841e-06 -1.56899e-08
0.0273015 -2.06982e-06 -1.21536e-08
0.0273013 -1.4418e-06 -9.22103e-09
0.0273011 -1.00599e-06 -6.90035e-09
0.0273009 -7.02663e-07 -5.11529e-09
0.0273009 -4.91075e-07 -3.76718e-09
0.0273008 -3.43259e-07 -2.76159e-09
0.0273007 -2.39898e-07 -2.01809e-09
0.0273007 -1.6759e-07 -1.47212e-09
0.0273007 -1.17003e-07 -1.0738e-09
0.0273007 -8.16233e-08 -7.85836e-10
0.0273006 -5.68921e-08 -5.81343e-10
0.0273006 -3.96126e-08 -4.42321e-10
0.0273006 -2.75336e-08 -3.58677e-10
0.0273006 -1.90568e-08 -3.28027e-10
0.0273006 -1.30244e-08 -3.56286e-10
0.0273006 -8.55936e-09 -4.52229e-10
0.0273006 -4.92845e-09 -5.70601e-10
0.0273006 -1.43477e-09 -6.54344e-10
0.0273006 2.50459e-09 -3.05509e-09
0.0273006 6.96647e-09 -1.43181e-08
0.0273006 9.28895e-09 -2.32117e-08
0.018 -1.19811e-08 -3.94301e-08
0.018 -0.00048175 -0.00444066
0.0190982 -0.000494568 -0.00892337
0.0205239 0.000672782 -0.0070363
0.0204852 0.00291206 -0.00384786
0.0202017 0.00801342 -0.00198746
0.0205326 0.0134365 -0.00101167
0.0127565 0.00764947 -0.000459827
1.38387e-06 -9.14752e-07 -0.000141304
-5.68256e-07 -1.0169e-06 1.061e-08
1.18144e-07 -0.00243541 0.000500946
0.010403 -0.00760593 0.000501275
0.019248 -0.00909173 -0.000126466
0.024151 -0.00612547 -0.000204138
0.0261764 -0.00338202 -0.000107238
0.0269175 -0.00182226 -3.93893e-05
0.027182 -0.00100722 -1.21525e-05
0.0272723 -0.000571007 -3.32636e-06
0.0272979 -0.000330337 -7.99858e-07
0.0272999 -0.000194656 -1.71229e-07
0.0272942 -0.000116809 -5.26103e-08
0.027287 -7.13852e-05 -4.546e-08
0.0272803 -4.44178e-05 -5.00484e-08
0.0272748 -2.81209e-05 -4.87486e-08
0.0272706 -1.80942e-05 -4.25791e-08
0.0272674 -1.18152e-05 -3.46683e-08
0.0272651 -7.81588e-06 -2.70165e-08
0.0272634 -5.2282e-06 -2.04835e-08
0.0272621 -3.52995e-06 -1.52645e-08
0.0272612 -2.40147e-06 -1.12522e-08
0.0272606 -1.64362e-06 -8.23788e-09
0.0272601 -1.13017e-06 -6.00524e-09
0.0272598 -7.79814e-07 -4.366e-09
0.0272596 -5.394e-07 -3.16902e-09
0.0272594 -3.73715e-07 -2.298e-09
0.0272593 -2.59165e-07 -1.66563e-09
0.0272592 -1.79791e-07 -1.20738e-09
0.0272591 -1.24711e-07 -8.76045e-10
0.0272591 -8.64567e-08 -6.37521e-10
0.0272591 -5.98793e-08 -4.67591e-10
0.027259 -4.14092e-08 -3.49744e-10
0.027259 -2.85613e-08 -2.73859e-10
0.027259 -1.95919e-08 -2.35665e-10
0.027259 -1.32597e-08 -2.36986e-10
0.027259 -8.65222e-09 -2.8693e-10
0.027259 -5.04983e-09 -3.97952e-10
0.027259 -1.78644e-09 -5.28978e-10
0.027259 1.95959e-09 -6.17414e-10
0.027259 7.28993e-09 -3.02624e-09
0.027259 1.44793e-08 -1.45118e-08
0.027259 1.84526e-08 -2.36183e-08
0.0148 -9.2598e-09 -3.57742e-08
0.0148 0.000571192 -0.00409598
0.0176728 0.0016755 -0.00791045
0.0211122 0.0027703 -0.00593752
0.0234882 0.00458494 -0.00324189
0.0252629 0.00743968 -0.00183843
0.0282783 0.0127254 -0.00112385
0.0316747 0.0210578 -0.000593226
0.0261899 0.0128532 7.40904e-06
0.0279631 1.51886e-14 0.000635078
0.0327329 -0.00901913 0.00131442
0.0349459 -0.0185387 0.00107023
0.0324147 -0.0154903 7.60032e-05
0.0299123 -0.0088471 -0.000228457
0.0284841 -0.00420212 -0.000160703
0.0277368 -0.00197163 -6.97062e-05
0.027332 -0.000979919 -2.53796e-05
0.0271023 -0.000514476 -8.56465e-06
0.0269676 -0.000280897 -2.73931e-06
0.0268866 -0.000157894 -8.05839e-07
0.0268369 -9.09164e-05 -1.87053e-07
0.0268058 -5.34984e-05 -1.09814e-09
0.026786 -3.21292e-05 4.59274e-08
0.0267733 -1.96738e-05 5.03745e-08
0.0267649 -1.22695e-05 4.32841e-08
0.0267593 -7.7825e-06 3.43419e-08
0.0267556 -5.01241e-06 2.63284e-08
0.0267531 -3.2719e-06 1.98332e-08
0.0267513 -2.16038e-06 1.47852e-08
0.0267501 -1.44009e-06 1.09453e-08
0.0267493 -9.67337e-07 8.06155e-09
0.0267487 -6.53666e-07 5.91463e-09
0.0267483 -4.43677e-07 4.32634e-09
0.026748 -3.02088e-07 3.15697e-09
0.0267478 -2.06088e-07 2.2992e-09
0.0267477 -1.4073e-07 1.67175e-09
0.0267476 -9.61066e-08 1.21363e-09
0.0267475 -6.55849e-08 8.79354e-10
0.0267475 -4.46888e-08 6.35014e-10
0.0267474 -3.03767e-08 4.55173e-10
0.0267474 -2.05687e-08 3.20275e-10
0.0267474 -1.38318e-08 2.14439e-10
0.0267474 -9.16657e-09 1.23413e-10
0.0267474 -5.85838e-09 3.24934e-11
0.0267474 -3.36663e-09 -7.59851e-11
0.0267474 -1.2329e-09 -2.20963e-10
0.0267474 1.02714e-09 -3.73066e-10
0.0267474 4.22775e-09 -4.83287e-10
0.0267474 1.02666e-08 -2.88648e-09
0.0267474 2.04888e-08 -1.46697e-08
0.0267474 2.66451e-08 -2.40917e-08
0.01 -1.56976e-08 -3.48598e-08
0.01 0.000497953 -0.00342721
0.0139608 0.0013956 -0.0061872
0.0183422 0.00206923 -0.00424172
0.0220512 0.00319471 -0.0022768
0.026108 0.00566431 -0.00142557
0.0313193 0.00831834 -0.00124033
0.0399469 0.0102897 -0.000886585
0.0529307 0.00375336 2.88377e-05
0.0528123 -0.00677228 0.000854434