# vtk DataFile Version 2.0
Tobias Weinzierl: CPU, Manycore and Cluster Computing
ASCII

DATASET STRUCTURED_POINTS
DIMENSIONS  51 11 6

ORIGIN 0 0 0 

SPACING 0.1 0.1 0.1 

POINT_DATA 3366

VECTORS velocity float
0 0 0
-1.79351e-15 0 0
-4.10004e-09 0 0
-6.7383e-09 0 0
-6.26071e-09 0 0
-1.50349e-09 0 0
-4.22038e-10 0 0
-1.2436e-09 0 0
-2.79913e-09 0 0
-4.21001e-09 0 0
-4.80805e-09 0 0
-4.83737e-09 0 0
-4.69462e-09 0 0
-4.57424e-09 0 0
-4.52426e-09 0 0
-4.53141e-09 0 0
-4.56665e-09 0 0
-4.60789e-09 0 0
-4.64411e-09 0 0
-4.67185e-09 0 0
-4.69145e-09 0 0
-4.70456e-09 0 0
-4.713e-09 0 0
-4.71827e-09 0 0
-4.72148e-09 0 0
-4.72339e-09 0 0
-4.72451e-09 0 0
-4.72515e-09 0 0
-4.7255e-09 0 0
-4.72569e-09 0 0
-4.72578e-09 0 0
-4.72583e-09 0 0
-4.72584e-09 0 0
-4.72585e-09 0 0
-4.72584e-09 0 0
-4.72583e-09 0 0
-4.72582e-09 0 0
-4.72581e-09 0 0
-4.72581e-09 0 0
-4.7258e-09 0 0
-4.72579e-09 0 0
-4.72579e-09 0 0
-4.72579e-09 0 0
-4.72578e-09 0 0
-4.72578e-09 0 0
-4.72578e-09 0 0
-4.72578e-09 0 0
-4.72578e-09 0 0
-4.72578e-09 0 0
-4.72579e-09 0 0
0.00300877 0 0
0 7.59198e-09 0
1.81598e-14 2.30904e-09 0
-7.9273e-09 3.68022e-09 0
-1.32944e-08 2.17496e-09 0
-1.15536e-08 9.56553e-10 0
-3.34796e-09 1.21271e-09 0
-1.22738e-09 2.47843e-09 0
-1.93709e-09 2.62234e-09 0
-3.47663e-09 2.2162e-09 0
-5.70523e-09 1.53491e-09 0
-6.88711e-09 6.82782e-10 0
-7.21011e-09 1.73675e-10 0
-7.32513e-09 -3.21886e-12 0
-7.47911e-09 -1.79786e-11 0
-7.70031e-09 1.94982e-11 0
-7.94799e-09 5.33337e-11 0
-8.17493e-09 6.60365e-11 0
-8.35664e-09 6.21304e-11 0
-8.48962e-09 5.05872e-11 0
-8.58111e-09 3.76834e-11 0
-8.64133e-09 2.64299e-11 0
-8.67969e-09 1.77438e-11 0
-8.70354e-09 1.152e-11 0
-8.71809e-09 7.28094e-12 0
-8.72684e-09 4.49881e-12 0
-8.73205e-09 2.72407e-12 0
-8.73511e-09 1.61736e-12 0
-8.73691e-09 9.40153e-13 0
-8.73796e-09 5.32648e-13 0
-8.73856e-09 2.91351e-13 0
-8.73891e-09 1.5092e-13 0
-8.7391e-09 7.0886e-14 0
-8.73921e-09 2.65573e-14 0
-8.73927e-09 3.05086e-15 0
-8.7393e-09 -8.51293e-15 0
-8.73932e-09 -1.33814e-14 0
-8.73932e-09 -1.46225e-14 0
-8.73932e-09 -1.40065e-14 0
-8.73932e-09 -1.25375e-14 0
-8.73932e-09 -1.07689e-14 0
-8.73931e-09 -8.99302e-15 0
-8.73931e-09 -7.35145e-15 0
-8.73931e-09 -5.90072e-15 0
-8.73931e-09 -4.64925e-15 0
-8.73931e-09 -3.57139e-15 0
-8.7393e-09 -2.62617e-15 0
-8.7393e-09 -1.78526e-15 0
-8.73931e-09 -7.38314e-16 0
-8.73931e-09 3.14002e-15 0
-8.73932e-09 1.62538e-14 0
0.00782282 -5.18646e-09 0
0 9.2801e-10 0
6.40463e-14 2.87568e-09 0
-6.13929e-09 3.58552e-09 0
-1.10475e-08 5.34432e-10 0
-7.00464e-09 4.78007e-10 0
-1.89828e-09 2.03747e-09 0
-2.69551e-09 2.62517e-09 0
-3.65223e-09 1.00218e-09 0
-3.5868e-09 -5.64752e-11 0
-4.17495e-09 6.15565e-10 0
-4.70095e-09 1.13245e-09 0
-4.8059e-09 1.53796e-09 0
-4.99327e-09 1.5784e-09 0
-5.26172e-09 1.30405e-09 0
-5.59513e-09 9.74081e-10 0
-5.94037e-09 6.99176e-10 0
-6.23848e-09 4.8828e-10 0
-6.46445e-09 3.32081e-10 0
-6.62144e-09 2.2022e-10 0
-6.72426e-09 1.42728e-10 0
-6.78889e-09 9.06604e-11 0
-6.82837e-09 5.66035e-11 0
-6.85202e-09 3.48355e-11 0
-6.866e-09 2.11887e-11 0
-6.87421e-09 1.27678e-11 0
-6.87902e-09 7.63691e-12 0
-6.88184e-09 4.54126e-12 0
-6.88349e-09 2.68723e-12 0
-6.88448e-09 1.5827e-12 0
-6.88507e-09 9.27122e-13 0
-6.88542e-09 5.39044e-13 0
-6.88564e-09 3.09846e-13 0
-6.88578e-09 1.7486e-13 0
-6.88586e-09 9.57094e-14 0
-6.88592e-09 4.96509e-14 0
-6.88595e-09 2.31982e-14 0
-6.88597e-09 8.34366e-15 0
-6.88598e-09 3.23823e-16 0
-6.88599e-09 -3.70022e-15 0
-6.886e-09 -5.42137e-15 0
-6.886e-09 -5.84498e-15 0
-6.886e-09 -5.56302e-15 0
-6.886e-09 -4.91376e-15 0
-6.886e-09 -4.0751e-15 0
-6.886e-09 -3.0994e-15 0
-6.88601e-09 -1.83639e-15 0
-6.88601e-09 2.71948e-16 0
-6.88601e-09 4.1367e-15 0
-6.88601e-09 9.63795e-15 0
-6.88602e-09 1.6529e-14 0
0.00997542 -6.02548e-09 0
0 -8.79232e-09 0
9.04489e-14 1.5215e-09 0
-4.31709e-09 7.58678e-11 0
-9.31978e-09 -4.37629e-09 0
-5.1644e-09 -3.77485e-09 0
-5.3817e-11 -8.442e-10 0
-1.89018e-09 -2.60322e-14 0
-2.95874e-09 -2.54126e-09 0
-6.75037e-09 -4.98806e-09 0
-6.84354e-09 -3.31175e-09 0
-6.64017e-09 -3.50635e-10 0
-6.25143e-09 1.77191e-09 0
-5.86624e-09 2.45532e-09 0
-5.45718e-09 2.10901e-09 0
-5.22277e-09 1.5612e-09 0
-5.17811e-09 1.09615e-09 0
-5.22646e-09 7.42409e-10 0
-5.29334e-09 4.87015e-10 0
-5.34802e-09 3.10911e-10 0
-5.38479e-09 1.94148e-10 0
-5.40706e-09 1.19136e-10 0
-5.41969e-09 7.21312e-11 0
-5.42658e-09 4.32428e-11 0
-5.43024e-09 2.57478e-11 0
-5.43219e-09 1.52664e-11 0
-5.43322e-09 9.03306e-12 0
-5.4338e-09 5.34253e-12 0
-5.43412e-09 3.16181e-12 0
-5.43432e-09 1.8731e-12 0
-5.43445e-09 1.11025e-12 0
-5.43453e-09 6.57429e-13 0
-5.43459e-09 3.87776e-13 0
-5.43463e-09 2.26739e-13 0
-5.43466e-09 1.30413e-13 0
-5.43468e-09 7.28423e-14 0
-5.43469e-09 3.85991e-14 0
-5.4347e-09 1.84541e-14 0
-5.43471e-09 6.84665e-15 0
-5.43471e-09 4.05594e-16 0
-5.43471e-09 -2.92312e-15 0
-5.43471e-09 -4.39442e-15 0
-5.43472e-09 -4.768e-15 0
-5.43472e-09 -4.4898e-15 0
-5.43472e-09 -3.79029e-15 0
-5.43472e-09 -2.75373e-15 0
-5.43472e-09 -1.41609e-15 0
-5.43472e-09 1.56139e-16 0
-5.43472e-09 2.03412e-15 0
-5.43471e-09 4.82578e-15 0
-5.43471e-09 9.07012e-15 0
0.0103706 -4.23039e-09 0
0 -1.7014e-08 0
7.53934e-14 -2.02963e-10 0
-4.37966e-09 -2.40583e-09 0
-9.93067e-09 -4.75115e-09 0
-8.12004e-09 -3.39891e-09 0
-2.71045e-14 -8.50669e-10 0
-3.05185e-13 -3.35886e-13 0
2.84147e-13 -3.27901e-13 0
-3.84107e-09 -3.03435e-09 0
-7.62754e-09 -4.71183e-09 0
-7.48819e-09 -1.53735e-09 0
-7.5988e-09 1.20467e-09 0
-7.44857e-09 2.06388e-09 0
-6.73991e-09 1.75619e-09 0
-6.03977e-09 1.31396e-09 0
-5.59757e-09 9.48536e-10 0
-5.36307e-09 6.50968e-10 0
-5.2422e-09 4.23729e-10 0
-5.17645e-09 2.64512e-10 0
-5.1379e-09 1.60378e-10 0
-5.11405e-09 9.54513e-11 0
-5.09898e-09 5.62256e-11 0
-5.08949e-09 3.29897e-11 0
-5.08359e-09 1.93753e-11 0
-5.08e-09 1.14324e-11 0
-5.07785e-09 6.79439e-12 0
-5.0766e-09 4.07294e-12 0
-5.07589e-09 2.46358e-12 0
-5.07549e-09 1.50252e-12 0
-5.07527e-09 9.22367e-13 0
-5.07516e-09 5.6833e-13 0
-5.0751e-09 3.50115e-13 0
-5.07507e-09 2.14514e-13 0
-5.07506e-09 1.29789e-13 0
-5.07506e-09 7.67483e-14 0
-5.07506e-09 4.36311e-14 0
-5.07506e-09 2.3128e-14 0
-5.07506e-09 1.06409e-14 0
-5.07506e-09 3.24986e-15 0
-5.07506e-09 -9.14021e-16 0
-5.07506e-09 -3.04892e-15 0
-5.07506e-09 -3.92164e-15 0
-5.07506e-09 -4.02482e-15 0
-5.07506e-09 -3.68129e-15 0
-5.07506e-09 -3.09756e-15 0
-5.07506e-09 -2.36785e-15 0
-5.07506e-09 -1.47181e-15 0
-5.07506e-09 -2.99547e-16 0
-5.07506e-09 1.47865e-15 0
-5.07506e-09 4.05245e-15 0
0.0104235 -1.9563e-09 0
0 -1.51974e-08 0
5.98586e-14 -1.03473e-09 0
-4.54646e-09 -2.7496e-09 0
-1.02016e-08 -3.87323e-09 0
-1.00266e-08 -3.98052e-09 0
-3.19769e-09 -1.82217e-09 0
-2.94604e-13 2.8673e-13 0
-2.58955e-15 2.58955e-15 0
2.62886e-13 -3.05404e-13 0
-3.46372e-09 -1.91665e-09 0
-5.49917e-09 -1.59676e-09 0
-7.16539e-09 1.70841e-09 0
-8.48093e-09 2.34912e-09 0
-8.0524e-09 1.50415e-09 0
-6.99278e-09 8.81381e-10 0
-6.15928e-09 5.5251e-10 0
-5.66201e-09 3.44461e-10 0
-5.38623e-09 2.04025e-10 0
-5.23266e-09 1.15326e-10 0
-5.14533e-09 6.34951e-11 0
-5.09491e-09 3.48183e-11 0
-5.06562e-09 1.94102e-11 0
-5.04862e-09 1.11811e-11 0
-5.03878e-09 6.71813e-12 0
-5.03312e-09 4.21429e-12 0
-5.02988e-09 2.74292e-12 0
-5.02803e-09 1.83384e-12 0
-5.02699e-09 1.24627e-12 0
-5.0264e-09 8.53152e-13 0
-5.02607e-09 5.8412e-13 0
-5.02588e-09 3.97757e-13 0
-5.02578e-09 2.68133e-13 0
-5.02572e-09 1.78137e-13 0
-5.02569e-09 1.16035e-13 0
-5.02568e-09 7.35917e-14 0
-5.02567e-09 4.49554e-14 0
-5.02566e-09 2.59526e-14 0
-5.02566e-09 1.36112e-14 0
-5.02566e-09 5.82389e-15 0
-5.02565e-09 1.10858e-15 0
-5.02565e-09 -1.56868e-15 0
-5.02565e-09 -2.92493e-15 0
-5.02565e-09 -3.44816e-15 0
-5.02565e-09 -3.45972e-15 0
-5.02565e-09 -3.17208e-15 0
-5.02565e-09 -2.74064e-15 0
-5.02565e-09 -2.28245e-15 0
-5.02565e-09 -1.8207e-15 0
-5.02565e-09 -1.16541e-15 0
-5.02565e-09 -1.35256e-16 0
0.0104285 3.01275e-10 0
0 -1.0819e-08 0
5.49815e-14 -1.40833e-09 0
-4.32139e-09 -3.14832e-09 0
-9.97528e-09 -2.90632e-09 0
-1.04609e-08 -2.12732e-09 0
-7.07629e-09 -2.11857e-09 0
-2.57311e-09 -1.15758e-09 0
-2.95547e-13 2.7791e-13 0
-1.50304e-14 1.50304e-14 0
2.38989e-13 -2.86778e-13 0
-2.02927e-09 1.52921e-09 0
-5.5091e-09 4.11839e-09 0
-9.37064e-09 3.72377e-09 0
-9.66179e-09 1.3502e-09 0
-7.99881e-09 1.93602e-10 0
-6.58267e-09 -7.67221e-11 0
-5.80797e-09 -1.0551e-10 0
-5.43478e-09 -9.07893e-11 0
-5.2566e-09 -6.8261e-11 0
-5.16922e-09 -4.64273e-11 0
-5.1251e-09 -2.89828e-11 0
-5.10226e-09 -1.67599e-11 0
-5.09017e-09 -8.97415e-12 0
-5.08362e-09 -4.37237e-12 0
-5.08001e-09 -1.82943e-12 0
-5.07797e-09 -5.23365e-13 0
-5.07681e-09 8.3118e-14 0
-5.07612e-09 3.16763e-13 0
-5.07572e-09 3.65619e-13 0
-5.07547e-09 3.32631e-13 0
-5.07532e-09 2.7111e-13 0
-5.07523e-09 2.06653e-13 0
-5.07517e-09 1.50048e-13 0
-5.07513e-09 1.04597e-13 0
-5.07511e-09 7.01111e-14 0
-5.07509e-09 4.50105e-14 0
-5.07508e-09 2.73627e-14 0
-5.07507e-09 1.53517e-14 0
-5.07507e-09 7.45316e-15 0
-5.07507e-09 2.4666e-15 0
-5.07506e-09 -5.13696e-16 0
-5.07506e-09 -2.14869e-15 0
-5.07506e-09 -2.90949e-15 0
-5.07506e-09 -3.13077e-15 0
-5.07506e-09 -3.05605e-15 0
-5.07506e-09 -2.88952e-15 0
-5.07506e-09 -2.84719e-15 0
-5.07506e-09 -3.12893e-15 0
-5.07506e-09 -3.75194e-15 0
-5.07506e-09 -4.40626e-15 0
0.0104235 2.51601e-09 0
0 -7.80926e-09 0
4.61379e-14 -1.67719e-09 0
-4.39431e-09 -3.24823e-09 0
-9.57449e-09 -2.41146e-09 0
-1.01294e-08 -1.16495e-09 0
-7.70415e-09 -1.01808e-09 0
-5.62241e-09 -2.53414e-09 0
-3.4344e-09 -1.84059e-09 0
-3.10658e-13 2.45161e-13 0
2.13622e-13 2.25975e-13 0
9.72196e-16 3.05157e-09 0
-2.69961e-09 7.54257e-09 0
-7.43571e-09 5.92908e-09 0
-9.33348e-09 1.10809e-09 0
-8.17842e-09 -8.26403e-10 0
-6.73182e-09 -8.2371e-10 0
-5.93019e-09 -5.22877e-10 0
-5.59754e-09 -3.10677e-10 0
-5.47956e-09 -1.81271e-10 0
-5.44324e-09 -1.02929e-10 0
-5.43445e-09 -5.65177e-11 0
-5.43365e-09 -2.99533e-11 0
-5.43449e-09 -1.52597e-11 0
-5.43525e-09 -7.38442e-12 0
-5.43562e-09 -3.29793e-12 0
-5.43571e-09 -1.26e-12 0
-5.43564e-09 -3.01087e-13 0
-5.43549e-09 1.06647e-13 0
-5.43534e-09 2.44603e-13 0
-5.4352e-09 2.59306e-13 0
-5.43508e-09 2.24665e-13 0
-5.43498e-09 1.76195e-13 0
-5.43491e-09 1.29587e-13 0
-5.43485e-09 9.06538e-14 0
-5.43481e-09 6.05529e-14 0
-5.43478e-09 3.84635e-14 0
-5.43476e-09 2.29073e-14 0
-5.43475e-09 1.23542e-14 0
-5.43474e-09 5.4694e-15 0
-5.43473e-09 1.18247e-15 0
-5.43472e-09 -1.32167e-15 0
-5.43472e-09 -2.64235e-15 0
-5.43472e-09 -3.21056e-15 0
-5.43472e-09 -3.33699e-15 0
-5.43471e-09 -3.2528e-15 0
-5.43471e-09 -3.15861e-15 0
-5.43471e-09 -3.32415e-15 0
-5.43471e-09 -4.20462e-15 0
-5.43471e-09 -6.33561e-15 0
-5.43471e-09 -9.46395e-15 0
0.0103706 4.63822e-09 0
0 -7.17731e-09 0
3.53713e-14 -1.68465e-09 0
-4.93822e-09 -3.11475e-09 0
-9.57616e-09 -2.04361e-09 0
-1.0268e-08 -8.08424e-10 0
-8.5378e-09 -4.69409e-10 0
-6.48909e-09 -1.36637e-09 0
-6.25702e-09 -3.91472e-09 0
-4.65222e-09 -2.82284e-09 0
-7.06603e-09 -4.67893e-18 0
-8.37699e-09 2.89773e-09 0
-5.28894e-09 7.68243e-09 0
-3.9202e-09 6.693e-09 0
-6.02671e-09 1.52516e-09 0
-7.07446e-09 -1.06753e-09 0
-6.97257e-09 -1.10374e-09 0
-6.802e-09 -6.26346e-10 0
-6.7681e-09 -3.03778e-10 0
-6.79534e-09 -1.41711e-10 0
-6.82997e-09 -6.58259e-11 0
-6.85564e-09 -3.0576e-11 0
-6.8714e-09 -1.40589e-11 0
-6.8801e-09 -6.24987e-12 0
-6.8845e-09 -2.56092e-12 0
-6.88649e-09 -8.5353e-13 0
-6.88723e-09 -1.05601e-13 0
-6.88737e-09 1.82577e-13 0
-6.88725e-09 2.5835e-13 0
-6.88703e-09 2.43753e-13 0
-6.88681e-09 1.97574e-13 0
-6.88662e-09 1.46629e-13 0
-6.88646e-09 1.01816e-13 0
-6.88633e-09 6.63987e-14 0
-6.88624e-09 4.02379e-14 0
-6.88617e-09 2.18963e-14 0
-6.88612e-09 9.63883e-15 0
-6.88608e-09 1.8652e-15 0
-6.88606e-09 -2.74287e-15 0
-6.88604e-09 -5.20076e-15 0
-6.88603e-09 -6.25477e-15 0
-6.88602e-09 -6.43694e-15 0
-6.88601e-09 -6.11504e-15 0
-6.88601e-09 -5.54075e-15 0
-6.886e-09 -4.89022e-15 0
-6.886e-09 -4.29825e-15 0
-6.886e-09 -3.88978e-15 0
-6.886e-09 -3.87699e-15 0
-6.886e-09 -4.91448e-15 0
-6.886e-09 -8.65136e-15 0
-6.88601e-09 -1.61024e-14 0
0.00997541 6.10839e-09 0
0 -7.80191e-09 0
2.40602e-14 -1.07317e-09 0
-5.42592e-09 -1.95546e-09 0
-9.46933e-09 -1.25242e-09 0
-1.04253e-08 -6.38628e-10 0
-1.00091e-08 -9.28717e-10 0
-8.83085e-09 -1.73314e-09 0
-8.05347e-09 -2.06507e-09 0
-9.41422e-09 1.25439e-09 0
-9.75212e-09 4.69696e-09 0
-9.71971e-09 1.83602e-09 0
-7.10302e-09 -2.59166e-09 0
-5.83576e-09 -2.98045e-09 0
-7.81613e-09 -9.11433e-10 0
-9.13084e-09 5.45956e-10 0
-9.15285e-09 8.14019e-10 0
-8.92204e-09 5.57647e-10 0
-8.78886e-09 2.90439e-10 0
-8.74102e-09 1.32723e-10 0
-8.73043e-09 5.68376e-11 0
-8.73151e-09 2.36308e-11 0
-8.73463e-09 9.72598e-12 0
-8.73709e-09 3.98878e-12 0
-8.73856e-09 1.61153e-12 0
-8.73929e-09 6.11215e-13 0
-8.73957e-09 1.83141e-13 0
-8.73963e-09 -5.973e-16 0
-8.73959e-09 -7.64192e-14 0
-8.73951e-09 -1.03041e-13 0
-8.73944e-09 -1.06845e-13 0
-8.73938e-09 -1.00239e-13 0
-8.73933e-09 -8.92996e-14 0
-8.7393e-09 -7.7081e-14 0
-8.73928e-09 -6.51173e-14 0
-8.73927e-09 -5.41439e-14 0
-8.73927e-09 -4.44648e-14 0
-8.73927e-09 -3.61492e-14 0
-8.73927e-09 -2.91397e-14 0
-8.73927e-09 -2.3317e-14 0
-8.73927e-09 -1.85373e-14 0
-8.73928e-09 -1.46522e-14 0
-8.73928e-09 -1.15234e-14 0
-8.73928e-09 -9.02968e-15 0
-8.73928e-09 -7.07159e-15 0
-8.73929e-09 -5.58336e-15 0
-8.73929e-09 -4.54297e-15 0
-8.73929e-09 -4.01429e-15 0
-8.73929e-09 -4.50592e-15 0
-8.7393e-09 -8.3631e-15 0
-8.73931e-09 -1.90193e-14 0
0.00782281 4.87874e-09 0
0 0 0
1.06664e-14 0 0
-2.7325e-09 0 0
-4.59161e-09 0 0
-5.1851e-09 0 0
-5.29679e-09 0 0
-5.39106e-09 0 0
-5.23084e-09 0 0
-4.76204e-09 0 0
-2.68612e-09 0 0
-1.34272e-09 0 0
-2.38947e-09 0 0
-4.51646e-09 0 0
-5.87393e-09 0 0
-5.99268e-09 0 0
-5.54546e-09 0 0
-5.13747e-09 0 0
-4.90518e-09 0 0
-4.79694e-09 0 0
-4.75171e-09 0 0
-4.73412e-09 0 0
-4.7277e-09 0 0
-4.72554e-09 0 0
-4.72494e-09 0 0
-4.72487e-09 0 0
-4.72496e-09 0 0
-4.72508e-09 0 0
-4.7252e-09 0 0
-4.72531e-09 0 0
-4.7254e-09 0 0
-4.72547e-09 0 0
-4.72553e-09 0 0
-4.72558e-09 0 0
-4.72562e-09 0 0
-4.72565e-09 0 0
-4.72568e-09 0 0
-4.7257e-09 0 0
-4.72571e-09 0 0
-4.72573e-09 0 0
-4.72574e-09 0 0
-4.72575e-09 0 0
-4.72575e-09 0 0
-4.72576e-09 0 0
-4.72576e-09 0 0
-4.72576e-09 0 0
-4.72577e-09 0 0
-4.72577e-09 0 0
-4.72577e-09 0 0
-4.72577e-09 0 0
-4.72578e-09 0 0
0.00300877 0 0
0 0 8.153e-09
3.46017e-14 0 1.79099e-09
-8.4129e-09 0 3.05808e-09
-1.52694e-08 0 -1.42878e-11
-1.66857e-08 0 -6.19136e-09
-1.75465e-09 0 -7.05138e-09
2.7063e-09 0 -2.73833e-09
2.27341e-09 0 -2.45251e-10
-1.70828e-10 0 7.50212e-10
-2.9363e-09 0 4.74016e-10
-4.77237e-09 0 -5.54182e-11
-5.8617e-09 0 -2.87114e-10
-6.59223e-09 0 -2.59913e-10
-7.12692e-09 0 -1.52375e-10
-7.54303e-09 0 -6.23255e-11
-7.88232e-09 0 -1.09495e-11
-8.15348e-09 0 1.04472e-11
-8.35872e-09 0 1.53296e-11
-8.50571e-09 0 1.33652e-11
-8.60628e-09 0 9.65564e-12
-8.67269e-09 0 6.28449e-12
-8.71534e-09 0 3.81235e-12
-8.74216e-09 0 2.18956e-12
-8.75875e-09 0 1.19763e-12
-8.76889e-09 0 6.22701e-13
-8.77502e-09 0 3.04244e-13
-8.77871e-09 0 1.35542e-13
-8.78092e-09 0 5.064e-14
-8.78224e-09 0 1.07918e-14
-8.78302e-09 0 -5.86341e-15
-8.78349e-09 0 -1.1218e-14
-8.78377e-09 0 -1.1503e-14
-8.78393e-09 0 -9.84056e-15
-8.78403e-09 0 -7.69999e-15
-8.78409e-09 0 -5.70486e-15
-8.78412e-09 0 -4.06793e-15
-8.78414e-09 0 -2.81499e-15
-8.78415e-09 0 -1.8969e-15
-8.78415e-09 0 -1.24468e-15
-8.78415e-09 0 -7.92035e-16
-8.78415e-09 0 -4.81352e-16
-8.78415e-09 0 -2.67169e-16
-8.78415e-09 0 -1.131e-16
-8.78415e-09 0 1.32416e-17
-8.78415e-09 0 1.42667e-16
-8.78415e-09 0 2.86285e-16
-8.78415e-09 0 3.68531e-16
-8.78415e-09 0 4.86223e-16
-8.78415e-09 0 3.02744e-15
-8.78417e-09 0 1.45796e-14
0.00781805 0 -4.26516e-09
0.0036 3.22703e-09 3.66796e-09
0.00359999 -0.00198091 -0.000573673
0.00817565 -0.00568308 -0.00186061
0.0169118 -0.00884974 -0.00328717
0.0287077 -0.0124583 -0.00429582
0.0465962 -0.00822501 -0.00278645
0.0485123 -5.58645e-05 -0.000335215
0.0478173 0.00324817 0.000558778
0.0424654 0.00487185 0.000546405
0.0369071 0.00457669 4.69517e-05
0.032033 0.00369895 -0.000267003
0.0281329 0.00274135 -0.00031328
0.025321 0.00189445 -0.000231154
0.023457 0.00124366 -0.000133955
0.0222799 0.000791178 -6.53909e-05
0.0215579 0.000492273 -2.74649e-05
0.0211254 0.000300058 -9.69021e-06
0.0208721 0.00017924 -2.48912e-06
0.0207272 0.000105009 -5.76069e-08
0.0206461 6.03835e-05 5.00939e-07
0.0206019 3.40926e-05 4.50522e-07
0.0205785 1.88918e-05 2.74447e-07
0.0205666 1.02599e-05 1.24736e-07
0.0205608 5.44593e-06 2.96313e-08
0.0205583 2.81178e-06 -2.04193e-08
0.0205574 1.40074e-06 -4.12894e-08
0.0205572 6.6376e-07 -4.58165e-08
0.0205573 2.91002e-07 -4.24e-08
0.0205576 1.10595e-07 -3.59039e-08
0.0205578 2.89224e-08 -2.88661e-08
0.020558 -3.96616e-09 -2.24504e-08
0.0205582 -1.40578e-08 -1.70742e-08
0.0205583 -1.44386e-08 -1.27842e-08
0.0205584 -1.14008e-08 -9.46625e-09
0.0205585 -7.75771e-09 -6.95322e-09
0.0205585 -4.60863e-09 -5.07739e-09
0.0205586 -2.25518e-09 -3.69168e-09
0.0205586 -6.62628e-10 -2.67579e-09
0.0205586 3.18394e-10 -1.93542e-09
0.0205586 8.52864e-10 -1.39867e-09
0.0205586 1.08275e-09 -1.01209e-09
0.0205586 1.11659e-09 -7.36921e-10
0.0205586 1.03086e-09 -5.46286e-10
0.0205586 8.75401e-10 -4.22791e-10
0.0205586 6.77212e-10 -3.57699e-10
0.0205586 4.34085e-10 -3.53915e-10
0.0205586 1.32451e-10 -3.79934e-10
0.0205586 -2.34723e-10 -2.70322e-10
0.0205586 -1.98977e-09 -9.89212e-10
0.0205586 -9.4232e-09 -6.64114e-09
0.0205587 -1.53025e-08 -1.14533e-08
0.01 3.02266e-09 -1.06469e-08
0.01 -0.00405639 -0.00112355
0.0152874 -0.0119668 -0.00298781
0.0243871 -0.0186926 -0.00436007
0.0365739 -0.0272773 -0.00427025
0.0553903 -0.0179847 -0.00111178
0.0543098 -0.000733575 0.00155435
0.0548713 0.0060587 0.00187254
0.0489818 0.0108894 0.00142522
0.042745 0.0105511 0.000363399
0.0375333 0.00895939 -0.000335525
0.0333929 0.00687676 -0.000480045
0.0305327 0.00478673 -0.000368689
0.0287684 0.00310231 -0.000217106
0.027728 0.00192774 -0.000106319
0.0271298 0.00116575 -4.43187e-05
0.0267948 0.000689118 -1.51081e-05
0.0266129 0.000398649 -3.22952e-06
0.0265176 0.000225662 7.64768e-07
0.0264699 0.000124843 1.61895e-06
0.0264475 6.73016e-05 1.42991e-06
0.026438 3.51526e-05 1.01853e-06
0.026435 1.7599e-05 6.54535e-07
0.0264348 8.2682e-06 3.95013e-07
0.0264358 3.47427e-06 2.27927e-07
0.0264371 1.12596e-06 1.26748e-07
0.0264383 5.93535e-08 6.80447e-08
0.0264393 -3.60123e-07 3.51224e-08
0.0264402 -4.70253e-07 1.72187e-08
0.0264408 -4.45508e-07 7.79103e-09
0.0264412 -3.72337e-07 3.01661e-09
0.0264416 -2.90922e-07 7.28027e-10
0.0264418 -2.17903e-07 -2.73144e-10
0.026442 -1.585e-07 -6.33929e-10
0.0264421 -1.12795e-07 -6.94855e-10
0.0264422 -7.88829e-08 -6.29661e-10
0.0264423 -5.43613e-08 -5.23278e-10
0.0264423 -3.6976e-08 -4.1455e-10
0.0264423 -2.48476e-08 -3.19218e-10
0.0264423 -1.6507e-08 -2.4209e-10
0.0264424 -1.08519e-08 -1.83405e-10
0.0264424 -7.07914e-09 -1.42154e-10
0.0264424 -4.61926e-09 -1.17877e-10
0.0264424 -3.08286e-09 -1.1124e-10
0.0264424 -2.22014e-09 -1.22042e-10
0.0264424 -1.92035e-09 -1.50763e-10
0.0264424 -2.42968e-09 -1.84813e-10
0.0264424 -4.63545e-09 -9.2011e-11
0.0264424 -8.96329e-09 -1.16386e-09
0.0264424 -1.50088e-08 -8.53578e-09
0.0264424 -1.84097e-08 -1.47282e-08
0.0148 -1.3786e-08 -1.41836e-08
0.0148 -0.00594525 -0.00163877
0.0193526 -0.0168753 -0.00434727
0.0252223 -0.0261735 -0.00583127
0.0293188 -0.0394187 -0.0047231
0.0279141 -0.0241755 -0.000758175
0.02603 -1.61806e-07 0.00156439
0.0264783 0.00804202 0.00169505
0.0314727 0.0167296 0.00153496
0.03125 0.0161056 0.000670137
0.0296228 0.0132957 -1.99708e-05
0.0282883 0.00997594 -0.000283737
0.0275382 0.00668064 -0.000265255
0.0272855 0.00413965 -0.000164674
0.0272423 0.00247311 -7.50917e-05
0.0272734 0.00144258 -2.3016e-05
0.0273265 0.000822065 -2.30513e-07
0.0273797 0.000457006 6.81318e-06
0.0274245 0.000247261 7.24103e-06
0.0274589 0.000129591 5.62654e-06
0.0274837 6.51805e-05 3.82823e-06
0.027501 3.08696e-05 2.41668e-06
0.0275129 1.31876e-05 1.45319e-06
0.0275208 4.47657e-06 8.43964e-07
0.0275261 4.74239e-07 4.77014e-07
0.0275296 -1.1419e-06 2.6338e-07
0.027532 -1.60831e-06 1.42185e-07
0.0275335 -1.56488e-06 7.48969e-08
0.0275346 -1.33031e-06 3.82747e-08
0.0275353 -1.05445e-06 1.87499e-08
0.0275358 -8.00911e-07 8.58829e-09
0.0275361 -5.91198e-07 3.464e-09
0.0275363 -4.2754e-07 9.96799e-10
0.0275364 -3.04422e-07 -1.02744e-10
0.0275365 -2.14101e-07 -5.21668e-10
0.0275366 -1.49045e-07 -6.18945e-10
0.0275366 -1.02843e-07 -5.77418e-10
0.0275367 -7.04035e-08 -4.86893e-10
0.0275367 -4.78483e-08 -3.89053e-10
0.0275367 -3.23072e-08 -3.01443e-10
0.0275367 -2.16989e-08 -2.30132e-10
0.0275367 -1.45407e-08 -1.76277e-10
0.0275367 -9.79655e-09 -1.39242e-10
0.0275367 -6.76943e-09 -1.18069e-10
0.0275367 -5.05228e-09 -1.15089e-10
0.0275367 -4.50128e-09 -1.46844e-10
0.0275367 -5.02688e-09 -2.35028e-10
0.0275367 -6.41927e-09 -3.15732e-10
0.0275367 -8.70465e-09 -1.692e-09
0.0275367 -1.18279e-08 -8.9932e-09
0.0275367 -1.35458e-08 -1.49387e-08
0.018 -3.10863e-08 -1.99404e-08
0.018 -0.00661446 -0.00241607
0.0197461 -0.0172468 -0.00636806
0.0197798 -0.0218423 -0.00734816
0.0160708 -0.0233196 -0.00582287
-1.48647e-08 -0.0121098 -0.00242672
1.64119e-06 5.81066e-07 7.60958e-09
-6.56633e-07 6.96045e-07 0.000310998
0.00792384 0.00570065 0.000614255
0.0165307 0.012321 0.000491784
0.0197211 0.0120289 0.000201338
0.0212667 0.00911276 -7.20026e-05
0.0229605 0.00590954 -0.000163779
0.024511 0.00346921 -0.000117576
0.0256583 0.00197145 -4.67563e-05
0.0264261 0.00109081 -2.59614e-06
0.0269168 0.000582389 1.42926e-05
0.0272224 0.00029736 1.63415e-05
0.0274091 0.000143262 1.30102e-05
0.0275216 6.31932e-05 8.89654e-06
0.0275885 2.3475e-05 5.58506e-06
0.027628 4.98328e-06 3.31758e-06
0.0276511 -2.75884e-06 1.89404e-06
0.0276647 -5.31139e-06 1.04761e-06
0.0276726 -5.53283e-06 5.62977e-07
0.0276772 -4.83895e-06 2.93454e-07
0.02768 -3.89555e-06 1.47299e-07
0.0276816 -2.9899e-06 7.00181e-08
0.0276825 -2.22551e-06 3.03347e-08
0.0276831 -1.62185e-06 1.07406e-08
0.0276835 -1.16381e-06 1.63166e-09
0.0276837 -8.25336e-07 -2.16397e-09
0.0276838 -5.79814e-07 -3.3782e-09
0.0276839 -4.04155e-07 -3.4212e-09
0.0276839 -2.7981e-07 -2.99873e-09
0.027684 -1.92542e-07 -2.44795e-09
0.027684 -1.3174e-07 -1.91771e-09
0.027684 -8.96477e-08 -1.46376e-09
0.027684 -6.06853e-08 -1.09828e-09
0.027684 -4.08804e-08 -8.14946e-10
0.027684 -2.74343e-08 -6.01331e-10
0.027684 -1.83945e-08 -4.44835e-10
0.027684 -1.24182e-08 -3.35828e-10
0.027684 -8.59868e-09 -2.69879e-10
0.027684 -6.31605e-09 -2.53199e-10
0.027684 -5.11453e-09 -3.18902e-10
0.027684 -4.66629e-09 -4.88359e-10
0.027684 -4.73282e-09 -6.29257e-10
0.027684 -5.2845e-09 -2.01109e-09
0.027684 -6.25962e-09 -9.02165e-09
0.027684 -6.81761e-09 -1.46819e-08
0.0196 -3.75777e-08 -3.64065e-08
0.0196 -0.00501895 -0.00312655
0.0190449 -0.0114028 -0.00759874
0.0165612 -0.0133475 -0.00775647
0.012221 -0.0114933 -0.00579712
0.00281701 -0.00452971 -0.00311306
1.25398e-06 -1.15883e-06 -0.000600186
5.02193e-07 -5.02193e-07 -8.31928e-10
-6.35706e-07 6.7756e-07 6.87002e-05
0.00568118 0.00419473 0.000153629
0.0122838 0.00854034 0.000123312
0.0151874 0.00679308 -5.51921e-05
0.0188301 0.00351657 -0.000203003
0.0220991 0.00149742 -0.000172192
0.0243898 0.000581188 -8.14097e-05
0.0258039 0.000186992 -1.57204e-05
0.0266306 2.05679e-05 1.16025e-05
0.0271029 -4.18567e-05 1.6534e-05
0.0273692 -5.72386e-05 1.33482e-05
0.0275178 -5.34109e-05 8.89309e-06
0.0276001 -4.3502e-05 5.36394e-06
0.0276453 -3.31269e-05 3.03915e-06
0.02767 -2.42893e-05 1.64397e-06
0.0276833 -1.74093e-05 8.53171e-07
0.0276905 -1.23021e-05 4.22857e-07
0.0276943 -8.61401e-06 1.96665e-07
0.0276963 -5.99471e-06 8.19508e-08
0.0276973 -4.15389e-06 2.63595e-08
0.0276978 -2.86894e-06 1.23762e-09
0.0276981 -1.97612e-06 -8.70623e-09
0.0276982 -1.35783e-06 -1.14437e-08
0.0276982 -9.30751e-07 -1.10233e-08
0.0276982 -6.36417e-07 -9.43076e-09
0.0276982 -4.33998e-07 -7.58983e-09
0.0276982 -2.9509e-07 -5.89131e-09
0.0276982 -1.99987e-07 -4.46834e-09
0.0276982 -1.35042e-07 -3.33687e-09
0.0276982 -9.0822e-08 -2.46541e-09
0.0276981 -6.08177e-08 -1.80829e-09
0.0276981 -4.05464e-08 -1.32053e-09
0.0276981 -2.69283e-08 -9.63865e-10
0.0276981 -1.78527e-08 -7.08856e-10
0.0276981 -1.18738e-08 -5.35755e-10
0.0276981 -7.99631e-09 -4.35201e-10
0.0276981 -5.52802e-09 -4.08307e-10
0.0276981 -3.97205e-09 -4.74338e-10
0.0276981 -2.93971e-09 -6.42074e-10
0.0276981 -2.0881e-09 -7.68123e-10
0.0276981 -1.22773e-09 -2.11552e-09
0.0276981 -3.20448e-10 -8.98399e-09
0.0276981 1.48672e-10 -1.45237e-08
0.0196 -1.95869e-08 -5.02385e-08
0.0196 -0.00286069 -0.00340447
0.019099 -0.00591449 -0.00762542
0.0180731 -0.00538311 -0.00740773
0.0149867 -0.00186225 -0.00526585
0.0111879 0.00401258 -0.00323593
0.00687117 0.00354554 -0.00142587
1.25498e-06 -1.06267e-06 -0.000269058
4.26963e-07 -4.26963e-07 -1.97934e-09
-6.10218e-07 6.61195e-07 1.79859e-05
0.00418901 0.00249965 0.00028206
0.00908232 0.00261066 0.000257553
0.0153991 -0.000898985 -0.000174661
0.020743 -0.00200554 -0.000310842
0.0241043 -0.0016912 -0.000208098
0.0258891 -0.00113872 -8.33841e-05
0.0267857 -0.000719043 -1.8586e-05
0.0272352 -0.00044702 2.60488e-06
0.027462 -0.000276832 6.07544e-06
0.0275764 -0.000171312 4.7239e-06
0.0276337 -0.000106194 2.88772e-06
0.0276619 -6.61061e-05 1.56526e-06
0.0276755 -4.14131e-05 7.74892e-07
0.0276818 -2.61467e-05 3.4633e-07
0.0276844 -1.66493e-05 1.29966e-07
0.0276854 -1.06934e-05 2.84829e-08
0.0276856 -6.92461e-06 -1.42859e-08
0.0276854 -4.51741e-06 -2.86708e-08
0.0276852 -2.96584e-06 -3.02933e-08
0.0276849 -1.95732e-06 -2.68574e-08
0.0276847 -1.29687e-06 -2.19701e-08
0.0276845 -8.6162e-07 -1.71896e-08
0.0276844 -5.7332e-07 -1.30892e-08
0.0276843 -3.81623e-07 -9.7934e-09
0.0276842 -2.53828e-07 -7.24155e-09
0.0276842 -1.68511e-07 -5.31125e-09
0.0276841 -1.1154e-07 -3.87344e-09
0.0276841 -7.35313e-08 -2.81384e-09
0.0276841 -4.82275e-08 -2.03926e-09
0.0276841 -3.14406e-08 -1.47728e-09
0.027684 -2.03597e-08 -1.07375e-09
0.027684 -1.30934e-08 -7.90004e-10
0.027684 -8.36319e-09 -6.00337e-10
0.027684 -5.29659e-09 -4.90046e-10
0.027684 -3.28286e-09 -4.56166e-10
0.027684 -1.86953e-09 -5.17383e-10
0.027684 -6.69932e-10 -6.8266e-10
0.027684 7.44552e-10 -7.93487e-10
0.027684 2.80474e-09 -2.09396e-09
0.027684 5.56869e-09 -8.93869e-09
0.027684 7.09332e-09 -1.44871e-08
0.018 -1.19646e-08 -4.97061e-08
0.018 -0.00112441 -0.0033467
0.0186484 -0.00166959 -0.00722187
0.0194757 -0.000139795 -0.00665087
0.0193397 0.00249229 -0.00452788
0.0192772 0.00783133 -0.00278514
0.0196091 0.012934 -0.00146715
0.0120966 0.00718954 -0.000666635
1.28464e-06 -8.40695e-07 -0.000232391
-4.96281e-07 -9.57234e-07 7.73778e-09
1.28015e-07 -0.000634338 0.000863627
0.00953277 -0.00446875 0.00114717
0.0175161 -0.0080196 0.000167312
0.0228023 -0.007049 -0.000301218
0.0256328 -0.00446306 -0.000294099
0.026868 -0.00245108 -0.000153991
0.0273415 -0.00131341 -6.02252e-05
0.0275084 -0.000717346 -2.00478e-05
0.0275602 -0.000400205 -6.02593e-06
0.0275708 -0.000226779 -1.68267e-06
0.0275678 -0.000130137 -4.70069e-07
0.0275616 -7.55822e-05 -1.74472e-07
0.0275554 -4.44388e-05 -1.14173e-07
0.0275504 -2.64572e-05 -9.96826e-08
0.0275465 -1.59502e-05 -8.7652e-08
0.0275437 -9.73377e-06 -7.29605e-08
0.0275417 -6.00877e-06 -5.77926e-08
0.0275402 -3.74833e-06 -4.41774e-08
0.0275392 -2.35978e-06 -3.29726e-08
0.0275384 -1.49703e-06 -2.42311e-08
0.0275379 -9.55381e-07 -1.76339e-08
0.0275376 -6.12252e-07 -1.27567e-08
0.0275373 -3.9325e-07 -9.19659e-09
0.0275371 -2.52657e-07 -6.61771e-09
0.027537 -1.62034e-07 -4.75792e-09
0.0275369 -1.03492e-07 -3.41999e-09
0.0275369 -6.56621e-08 -2.45879e-09
0.0275368 -4.12587e-08 -1.76889e-09
0.0275368 -2.55785e-08 -1.27444e-09
0.0275368 -1.55673e-08 -9.21412e-10
0.0275368 -9.23232e-09 -6.71911e-10
0.0275368 -5.26631e-09 -5.00318e-10
0.0275368 -2.80398e-09 -3.90845e-10
0.0275368 -1.26085e-09 -3.36044e-10
0.0275367 -2.22466e-10 -3.3762e-10
0.0275367 6.35625e-10 -4.17984e-10
0.0275367 1.62462e-09 -5.9195e-10
0.0275367 3.21225e-09 -6.88945e-10
0.0275367 6.22717e-09 -1.90506e-09
0.0275367 1.09857e-08 -8.79769e-09
0.0275367 1.3749e-08 -1.44619e-08
0.0148 -8.02305e-09 -4.30897e-08
0.0148 -0.000195375 -0.00315203
0.0169112 0.000394048 -0.00649341
0.0197331 0.00212536 -0.00559185
0.0221502 0.00451433 -0.00364916
0.0241758 0.00752659 -0.00239012
0.0274021 0.0126447 -0.00152863
0.03044 0.020329 -0.000834858
0.0246889 0.0122325 -0.000121707
0.025596 1.49671e-14 0.000527454
0.0301946 -0.00735905 0.00173982
0.0348792 -0.0152938 0.00230479
0.0342067 -0.0141469 0.00109041
0.031463 -0.00994291 -1.85914e-05
0.0292476 -0.00560606 -0.000374032
0.0279651 -0.00276799 -0.000274831
0.0272831 -0.00132682 -0.000132004
0.0269181 -0.000654143 -5.345e-05
0.0267177 -0.000335495 -2.013e-05
0.0266049 -0.000177865 -7.33796e-06
0.02654 -9.67026e-05 -2.62624e-06
0.0265019 -5.36062e-05 -9.21407e-07
0.0264793 -3.0183e-05 -3.09425e-07
0.0264656 -1.72179e-05 -9.12772e-08
0.0264572 -9.93296e-06 -1.50586e-08
0.0264519 -5.78621e-06 9.8057e-09
0.0264486 -3.39826e-06 1.60993e-08
0.0264465 -2.0086e-06 1.5853e-08
0.0264451 -1.19223e-06 1.35525e-08
0.0264442 -7.08724e-07 1.08769e-08
0.0264436 -4.20464e-07 8.42913e-09
0.0264432 -2.47818e-07 6.38887e-09
0.0264429 -1.44202e-07 4.76867e-09
0.0264427 -8.20839e-08 3.51952e-09
0.0264426 -4.50359e-08 2.57541e-09
0.0264425 -2.31739e-08 1.8719e-09
0.0264425 -1.05078e-08 1.35308e-09
0.0264425 -3.38853e-09 9.73268e-10
0.0264424 4.1481e-10 6.96419e-10
0.0264424 2.26774e-09 4.94555e-10
0.0264424 3.00632e-09 3.45955e-10
0.0264424 3.14349e-09 2.33279e-10
0.0264424 2.99793e-09 1.41702e-10
0.0264424 2.77736e-09 5.72299e-11
0.0264424 2.63711e-09 -3.58231e-11
0.0264424 2.72803e-09 -1.66016e-10
0.0264424 3.23856e-09 -3.53896e-10
0.0264424 4.56464e-09 -4.48312e-10
0.0264424 7.97466e-09 -1.54598e-09
0.0264424 1.44608e-08 -8.33517e-09
0.0264424 1.84757e-08 -1.40126e-08
0.01 -1.48867e-08 -3.90273e-08
0.01 -8.44537e-05 -0.00267515
0.0125733 0.000488514 -0.0051185
0.0161629 0.00165017 -0.00394878
0.0198399 0.00312437 -0.0024053
0.0241383 0.00575315 -0.00174271
0.0295673 0.00841607 -0.00173941
0.0382242 0.010621 -0.00137483