# vtk DataFile Version 2.0
Tobias Weinzierl: CPU, Manycore and Cluster Computing
ASCII

DATASET STRUCTURED_POINTS
DIMENSIONS  51 11 6

ORIGIN 0 0 0 

SPACING 0.1 0.1 0.1 

POINT_DATA 3366

VECTORS velocity float
0 0 0
-9.74891e-16 0 0
-3.84695e-09 0 0
-6.50216e-09 0 0
-6.17467e-09 0 0
-1.48436e-09 0 0
-3.09784e-10 0 0
-9.90021e-10 0 0
-2.46427e-09 0 0
-3.88796e-09 0 0
-4.54035e-09 0 0
-4.60558e-09 0 0
-4.47198e-09 0 0
-4.34751e-09 0 0
-4.29039e-09 0 0
-4.29168e-09 0 0
-4.32313e-09 0 0
-4.36214e-09 0 0
-4.39703e-09 0 0
-4.42392e-09 0 0
-4.44291e-09 0 0
-4.45555e-09 0 0
-4.4636e-09 0 0
-4.46855e-09 0 0
-4.4715e-09 0 0
-4.4732e-09 0 0
-4.47415e-09 0 0
-4.47466e-09 0 0
-4.47491e-09 0 0
-4.47503e-09 0 0
-4.47507e-09 0 0
-4.47507e-09 0 0
-4.47505e-09 0 0
-4.47503e-09 0 0
-4.47501e-09 0 0
-4.47498e-09 0 0
-4.47497e-09 0 0
-4.47495e-09 0 0
-4.47494e-09 0 0
-4.47493e-09 0 0
-4.47492e-09 0 0
-4.47492e-09 0 0
-4.47491e-09 0 0
-4.47491e-09 0 0
-4.4749e-09 0 0
-4.4749e-09 0 0
-4.4749e-09 0 0
-4.4749e-09 0 0
-4.4749e-09 0 0
-4.47491e-09 0 0
0.00296089 0 0
0 7.55236e-09 0
1.90935e-14 2.1368e-09 0
-7.40032e-09 3.45868e-09 0
-1.28095e-08 2.11666e-09 0
-1.13918e-08 9.93732e-10 0
-3.34702e-09 1.23123e-09 0
-1.16071e-09 2.39837e-09 0
-1.67694e-09 2.53559e-09 0
-3.08239e-09 2.18897e-09 0
-5.29259e-09 1.5756e-09 0
-6.55045e-09 7.41159e-10 0
-6.91467e-09 2.06329e-10 0
-7.01934e-09 2.72357e-12 0
-7.14674e-09 -2.49194e-11 0
-7.34512e-09 9.74472e-12 0
-7.57844e-09 4.51337e-11 0
-7.79773e-09 6.02064e-11 0
-7.97565e-09 5.81689e-11 0
-8.10671e-09 4.785e-11 0
-8.19707e-09 3.57118e-11 0
-8.25645e-09 2.495e-11 0
-8.2941e-09 1.66009e-11 0
-8.31732e-09 1.06247e-11 0
-8.33131e-09 6.57764e-12 0
-8.33958e-09 3.94864e-12 0
-8.34438e-09 2.29702e-12 0
-8.34713e-09 1.28889e-12 0
-8.34867e-09 6.89818e-13 0
-8.34951e-09 3.43479e-13 0
-8.34996e-09 1.49481e-13 0
-8.35019e-09 4.52143e-14 0
-8.3503e-09 -7.43999e-15 0
-8.35035e-09 -3.12123e-14 0
-8.35036e-09 -3.93936e-14 0
-8.35035e-09 -3.95988e-14 0
-8.35034e-09 -3.60884e-14 0
-8.35033e-09 -3.11722e-14 0
-8.35031e-09 -2.60459e-14 0
-8.3503e-09 -2.12814e-14 0
-8.35029e-09 -1.71102e-14 0
-8.35028e-09 -1.35846e-14 0
-8.35028e-09 -1.06701e-14 0
-8.35027e-09 -8.29397e-15 0
-8.35027e-09 -6.36928e-15 0
-8.35026e-09 -4.80136e-15 0
-8.35026e-09 -3.49703e-15 0
-8.35026e-09 -2.3952e-15 0
-8.35026e-09 -1.18911e-15 0
-8.35026e-09 2.60467e-15 0
-8.35028e-09 1.50382e-14 0
0.00773386 -4.92355e-09 0
0 8.84215e-10 0
6.23413e-14 2.64171e-09 0
-5.60347e-09 3.27179e-09 0
-1.05465e-08 3.45889e-10 0
-6.9096e-09 3.42798e-10 0
-1.80184e-09 2.0415e-09 0
-2.56419e-09 2.6752e-09 0
-3.39636e-09 1.05536e-09 0
-3.34147e-09 -5.38242e-11 0
-3.96801e-09 5.48104e-10 0
-4.57777e-09 1.05654e-09 0
-4.71165e-09 1.46843e-09 0
-4.86639e-09 1.53175e-09 0
-5.09036e-09 1.27872e-09 0
-5.38945e-09 9.60165e-10 0
-5.71483e-09 6.90961e-10 0
-6.00359e-09 4.83093e-10 0
-6.22578e-09 3.28486e-10 0
-6.38131e-09 2.17452e-10 0
-6.48344e-09 1.40424e-10 0
-6.54756e-09 8.86709e-11 0
-6.58653e-09 5.48801e-11 0
-6.60966e-09 3.33638e-11 0
-6.62315e-09 1.99584e-11 0
-6.63092e-09 1.17621e-11 0
-6.63535e-09 6.8318e-12 0
-6.63787e-09 3.90832e-12 0
-6.63928e-09 2.19722e-12 0
-6.64008e-09 1.20814e-12 0
-6.64052e-09 6.43769e-13 0
-6.64077e-09 3.26489e-13 0
-6.64091e-09 1.51479e-13 0
-6.64098e-09 5.75086e-14 0
-6.64102e-09 9.13175e-15 0
-6.64104e-09 -1.39986e-14 0
-6.64105e-09 -2.34617e-14 0
-6.64105e-09 -2.5782e-14 0
-6.64105e-09 -2.45871e-14 0
-6.64105e-09 -2.18545e-14 0
-6.64105e-09 -1.86309e-14 0
-6.64105e-09 -1.54424e-14 0
-6.64105e-09 -1.25245e-14 0
-6.64104e-09 -9.95239e-15 0
-6.64104e-09 -7.71136e-15 0
-6.64104e-09 -5.71615e-15 0
-6.64104e-09 -3.72533e-15 0
-6.64104e-09 -1.12079e-15 0
-6.64104e-09 3.04515e-15 0
-6.64104e-09 8.69065e-15 0
-6.64105e-09 1.55427e-14 0
0.009905 -5.8185e-09 0
0 -8.83473e-09 0
8.62729e-14 1.35317e-09 0
-3.78259e-09 -1.03574e-10 0
-8.7571e-09 -4.45234e-09 0
-5.05016e-09 -4.0132e-09 0
6.082e-11 -1.01762e-09 0
-1.71328e-09 -2.72371e-14 0
-2.70943e-09 -2.33088e-09 0
-6.3044e-09 -4.69032e-09 0
-6.51561e-09 -3.26746e-09 0
-6.43805e-09 -4.84735e-10 0
-6.11756e-09 1.6092e-09 0
-5.74184e-09 2.34725e-09 0
-5.31489e-09 2.05468e-09 0
-5.05245e-09 1.53401e-09 0
-4.98604e-09 1.08198e-09 0
-5.02242e-09 7.34601e-10 0
-5.08379e-09 4.82042e-10 0
-5.13598e-09 3.07094e-10 0
-5.17143e-09 1.90845e-10 0
-5.19277e-09 1.1618e-10 0
-5.20464e-09 6.95208e-11 0
-5.21086e-09 4.10023e-11 0
-5.21396e-09 2.38823e-11 0
-5.21545e-09 1.37544e-11 0
-5.21612e-09 7.83492e-12 0
-5.21642e-09 4.41029e-12 0
-5.21653e-09 2.44695e-12 0
-5.21657e-09 1.33123e-12 0
-5.21658e-09 7.03218e-13 0
-5.21658e-09 3.53865e-13 0
-5.21657e-09 1.62652e-13 0
-5.21657e-09 6.05247e-14 0
-5.21656e-09 8.12427e-15 0
-5.21656e-09 -1.68773e-14 0
-5.21655e-09 -2.70776e-14 0
-5.21655e-09 -2.95343e-14 0
-5.21654e-09 -2.81632e-14 0
-5.21654e-09 -2.51018e-14 0
-5.21654e-09 -2.1484e-14 0
-5.21654e-09 -1.78818e-14 0
-5.21653e-09 -1.45532e-14 0
-5.21653e-09 -1.15739e-14 0
-5.21653e-09 -8.90233e-15 0
-5.21653e-09 -6.42063e-15 0
-5.21653e-09 -4.01504e-15 0
-5.21653e-09 -1.65396e-15 0
-5.21653e-09 7.89035e-16 0
-5.21653e-09 3.9451e-15 0
-5.21653e-09 8.39506e-15 0
0.0103151 -4.11312e-09 0
0 -1.71026e-08 0
7.00089e-14 -2.91848e-10 0
-3.83735e-09 -2.4705e-09 0
-9.29608e-09 -4.73363e-09 0
-7.87273e-09 -3.46768e-09 0
-2.67954e-14 -9.12733e-10 0
-2.93001e-13 -3.23529e-13 0
2.72933e-13 -3.14239e-13 0
-3.58104e-09 -2.88551e-09 0
-7.26925e-09 -4.54834e-09 0
-7.23284e-09 -1.5831e-09 0
-7.37244e-09 1.08858e-09 0
-7.2534e-09 1.97794e-09 0
-6.56684e-09 1.7044e-09 0
-5.85841e-09 1.27728e-09 0
-5.39991e-09 9.23918e-10 0
-5.15412e-09 6.35532e-10 0
-5.02722e-09 4.13537e-10 0
-4.95826e-09 2.56953e-10 0
-4.91774e-09 1.54271e-10 0
-4.89251e-09 9.03732e-11 0
-4.8764e-09 5.20301e-11 0
-4.86612e-09 2.95901e-11 0
-4.85964e-09 1.66786e-11 0
-4.85562e-09 9.33328e-12 0
-4.85318e-09 5.18539e-12 0
-4.85171e-09 2.85453e-12 0
-4.85084e-09 1.54957e-12 0
-4.85034e-09 8.21778e-13 0
-4.85004e-09 4.1814e-13 0
-4.84988e-09 1.96418e-13 0
-4.84978e-09 7.66861e-14 0
-4.84973e-09 1.39961e-14 0
-4.8497e-09 -1.69702e-14 0
-4.84968e-09 -3.04942e-14 0
-4.84967e-09 -3.46343e-14 0
-4.84966e-09 -3.3929e-14 0
-4.84966e-09 -3.09148e-14 0
-4.84966e-09 -2.69888e-14 0
-4.84965e-09 -2.28971e-14 0
-4.84965e-09 -1.90125e-14 0
-4.84965e-09 -1.54952e-14 0
-4.84965e-09 -1.23931e-14 0
-4.84965e-09 -9.70366e-15 0
-4.84965e-09 -7.39807e-15 0
-4.84965e-09 -5.40176e-15 0
-4.84965e-09 -3.57079e-15 0
-4.84965e-09 -1.70619e-15 0
-4.84964e-09 5.83594e-16 0
-4.84964e-09 3.55652e-15 0
0.0103718 -1.90046e-09 0
0 -1.52831e-08 0
5.37043e-14 -1.056e-09 0
-4.02829e-09 -2.75068e-09 0
-9.54285e-09 -3.84903e-09 0
-9.69993e-09 -3.98009e-09 0
-3.11747e-09 -1.82576e-09 0
-2.81961e-13 2.74678e-13 0
-1.74716e-15 1.74716e-15 0
2.52149e-13 -2.93715e-13 0
-3.31702e-09 -1.86268e-09 0
-5.3395e-09 -1.62291e-09 0
-6.86395e-09 1.57407e-09 0
-8.18105e-09 2.28355e-09 0
-7.83455e-09 1.48067e-09 0
-6.80184e-09 8.55796e-10 0
-5.9597e-09 5.28443e-10 0
-5.45092e-09 3.25837e-10 0
-5.16813e-09 1.8962e-10 0
-5.01073e-09 1.03694e-10 0
-4.92114e-09 5.39992e-11 0
-4.86929e-09 2.7187e-11 0
-4.83909e-09 1.34186e-11 0
-4.82149e-09 6.57657e-12 0
-4.81128e-09 3.2382e-12 0
-4.80539e-09 1.61608e-12 0
-4.80201e-09 8.19328e-13 0
-4.80008e-09 4.17823e-13 0
-4.79899e-09 2.07854e-13 0
-4.79838e-09 9.35652e-14 0
-4.79803e-09 2.94214e-14 0
-4.79784e-09 -6.86262e-15 0
-4.79773e-09 -2.67804e-14 0
-4.79767e-09 -3.6692e-14 0
-4.79764e-09 -4.03852e-14 0
-4.79762e-09 -4.02563e-14 0
-4.79761e-09 -3.78776e-14 0
-4.79761e-09 -3.4293e-14 0
-4.7976e-09 -3.01893e-14 0
-4.7976e-09 -2.60051e-14 0
-4.7976e-09 -2.2006e-14 0
-4.7976e-09 -1.83391e-14 0
-4.7976e-09 -1.50745e-14 0
-4.7976e-09 -1.22279e-14 0
-4.7976e-09 -9.77731e-15 0
-4.7976e-09 -7.68308e-15 0
-4.7976e-09 -5.91395e-15 0
-4.7976e-09 -4.4516e-15 0
-4.7976e-09 -3.22222e-15 0
-4.7976e-09 -1.96065e-15 0
-4.7976e-09 -4.13343e-16 0
0.0103774 3.06075e-10 0
0 -1.08748e-08 0
4.93168e-14 -1.37334e-09 0
-3.84014e-09 -3.08604e-09 0
-9.32506e-09 -2.88301e-09 0
-1.01123e-08 -2.12076e-09 0
-6.90426e-09 -2.01992e-09 0
-2.4447e-09 -1.06948e-09 0
-2.82463e-13 2.66891e-13 0
-1.4744e-14 1.4744e-14 0
2.27961e-13 -2.76336e-13 0
-1.97704e-09 1.33083e-09 0
-5.07665e-09 3.84736e-09 0
-8.85015e-09 3.68722e-09 0
-9.35553e-09 1.4031e-09 0
-7.81054e-09 2.05469e-10 0
-6.39809e-09 -9.17207e-11 0
-5.60406e-09 -1.25441e-10 0
-5.21821e-09 -1.09253e-10 0
-5.03409e-09 -8.3931e-11 0
-4.94419e-09 -5.90288e-11 0
-4.8991e-09 -3.86912e-11 0
-4.87597e-09 -2.40139e-11 0
-4.86388e-09 -1.42905e-11 0
-4.85744e-09 -8.22661e-12 0
-4.85397e-09 -4.60915e-12 0
-4.85206e-09 -2.52455e-12 0
-4.85101e-09 -1.35772e-12 0
-4.85042e-09 -7.21682e-13 0
-4.85009e-09 -3.83831e-13 0
-4.8499e-09 -2.08999e-13 0
-4.84979e-09 -1.20819e-13 0
-4.84973e-09 -7.72488e-14 0
-4.84969e-09 -5.57737e-14 0
-4.84967e-09 -4.4714e-14 0
-4.84966e-09 -3.82536e-14 0
-4.84965e-09 -3.36588e-14 0
-4.84965e-09 -2.97552e-14 0
-4.84965e-09 -2.61176e-14 0
-4.84965e-09 -2.26486e-14 0
-4.84964e-09 -1.93744e-14 0
-4.84964e-09 -1.6349e-14 0
-4.84964e-09 -1.36138e-14 0
-4.84964e-09 -1.11904e-14 0
-4.84964e-09 -9.08512e-15 0
-4.84965e-09 -7.30044e-15 0
-4.84965e-09 -5.86118e-15 0
-4.84965e-09 -4.8482e-15 0
-4.84964e-09 -4.36205e-15 0
-4.84964e-09 -4.34605e-15 0
-4.84964e-09 -4.43008e-15 0
0.0103718 2.4686e-09 0
0 -7.84015e-09 0
4.17573e-14 -1.59971e-09 0
-3.94515e-09 -3.13657e-09 0
-8.98072e-09 -2.37617e-09 0
-9.77887e-09 -1.14653e-09 0
-7.50497e-09 -9.47521e-10 0
-5.38328e-09 -2.3435e-09 0
-3.23816e-09 -1.7032e-09 0
-2.96976e-13 2.36805e-13 0
2.03533e-13 2.21225e-13 0
-2.36516e-15 2.67667e-09 0
-2.29495e-09 7.0284e-09 0
-6.75863e-09 5.91082e-09 0
-8.8876e-09 1.30315e-09 0
-7.95665e-09 -7.44723e-10 0
-6.55355e-09 -8.27255e-10 0
-5.73357e-09 -5.46674e-10 0
-5.38404e-09 -3.3388e-10 0
-5.25862e-09 -1.99928e-10 0
-5.22027e-09 -1.16911e-10 0
-5.21165e-09 -6.66061e-11 0
-5.21167e-09 -3.70907e-11 0
-5.2134e-09 -2.02729e-11 0
-5.21489e-09 -1.09057e-11 0
-5.21584e-09 -5.78012e-12 0
-5.21636e-09 -3.01812e-12 0
-5.2166e-09 -1.55237e-12 0
-5.21669e-09 -7.87768e-13 0
-5.2167e-09 -3.97047e-13 0
-5.21668e-09 -2.02371e-13 0
-5.21665e-09 -1.08295e-13 0
-5.21662e-09 -6.43715e-14 0
-5.2166e-09 -4.44641e-14 0
-5.21657e-09 -3.54014e-14 0
-5.21656e-09 -3.08079e-14 0
-5.21655e-09 -2.77833e-14 0
-5.21654e-09 -2.51416e-14 0
-5.21653e-09 -2.2498e-14 0
-5.21653e-09 -1.98077e-14 0
-5.21653e-09 -1.71434e-14 0
-5.21653e-09 -1.4598e-14 0
-5.21652e-09 -1.22473e-14 0
-5.21652e-09 -1.01421e-14 0
-5.21652e-09 -8.31497e-15 0
-5.21652e-09 -6.79328e-15 0
-5.21652e-09 -5.62421e-15 0
-5.21652e-09 -4.95614e-15 0
-5.21652e-09 -5.14743e-15 0
-5.21652e-09 -6.65951e-15 0
-5.21653e-09 -9.20035e-15 0
0.0103151 4.525e-09 0
0 -7.18633e-09 0
3.27112e-14 -1.58368e-09 0
-4.51108e-09 -2.97301e-09 0
-9.04947e-09 -2.00451e-09 0
-9.91418e-09 -7.97929e-10 0
-8.29102e-09 -4.15219e-10 0
-6.25534e-09 -1.25931e-09 0
-5.91441e-09 -3.68057e-09 0
-4.29473e-09 -2.65373e-09 0
-6.61867e-09 -2.44764e-18 0
-8.10714e-09 2.56691e-09 0
-5.16842e-09 7.10251e-09 0
-3.57702e-09 6.55861e-09 0
-5.64561e-09 1.77021e-09 0
-6.82696e-09 -9.02833e-10 0
-6.75702e-09 -1.0757e-09 0
-6.56581e-09 -6.45022e-10 0
-6.51672e-09 -3.25982e-10 0
-6.53949e-09 -1.58341e-10 0
-6.57473e-09 -7.71485e-11 0
-6.60245e-09 -3.81756e-11 0
-6.62027e-09 -1.9209e-11 0
-6.63064e-09 -9.79251e-12 0
-6.63628e-09 -5.03091e-12 0
-6.63919e-09 -2.59363e-12 0
-6.64058e-09 -1.34078e-12 0
-6.64119e-09 -6.98996e-13 0
-6.6414e-09 -3.73382e-13 0
-6.64143e-09 -2.10314e-13 0
-6.64138e-09 -1.29546e-13 0
-6.64131e-09 -8.945e-14 0
-6.64124e-09 -6.8786e-14 0
-6.64119e-09 -5.70081e-14 0
-6.64114e-09 -4.90931e-14 0
-6.64111e-09 -4.27984e-14 0
-6.64108e-09 -3.72264e-14 0
-6.64106e-09 -3.20879e-14 0
-6.64105e-09 -2.73401e-14 0
-6.64104e-09 -2.30153e-14 0
-6.64104e-09 -1.91509e-14 0
-6.64104e-09 -1.57648e-14 0
-6.64103e-09 -1.28519e-14 0
-6.64103e-09 -1.03933e-14 0
-6.64103e-09 -8.36678e-15 0
-6.64103e-09 -6.76194e-15 0
-6.64103e-09 -5.59471e-15 0
-6.64103e-09 -4.98302e-15 0
-6.64103e-09 -5.48688e-15 0
-6.64103e-09 -8.64892e-15 0
-6.64104e-09 -1.54134e-14 0
0.00990499 5.89818e-09 0
0 -7.79208e-09 0
2.29135e-14 -9.98509e-10 0
-5.01046e-09 -1.84935e-09 0
-8.96288e-09 -1.21407e-09 0
-9.9966e-09 -6.17452e-10 0
-9.61865e-09 -8.86032e-10 0
-8.45282e-09 -1.68291e-09 0
-7.69321e-09 -2.0936e-09 0
-8.93068e-09 1.04532e-09 0
-9.25038e-09 4.61827e-09 0
-9.28331e-09 2.17674e-09 0
-6.74068e-09 -2.24456e-09 0
-5.34009e-09 -2.98254e-09 0
-7.27724e-09 -1.09922e-09 0
-8.70372e-09 4.03348e-10 0
-8.77046e-09 7.61313e-10 0
-8.53315e-09 5.47903e-10 0
-8.39105e-09 2.90283e-10 0
-8.34057e-09 1.32384e-10 0
-8.33094e-09 5.54183e-11 0
-8.33407e-09 2.18303e-11 0
-8.33924e-09 8.04884e-12 0
-8.34339e-09 2.62018e-12 0
-8.34614e-09 5.64462e-13 0
-8.3478e-09 -1.64293e-13 0
-8.34877e-09 -3.82065e-13 0
-8.34931e-09 -4.09421e-13 0
-8.34962e-09 -3.71181e-13 0
-8.3498e-09 -3.15339e-13 0
-8.34991e-09 -2.59738e-13 0
-8.34999e-09 -2.10382e-13 0
-8.35004e-09 -1.68678e-13 0
-8.35007e-09 -1.34307e-13 0
-8.35011e-09 -1.06382e-13 0
-8.35013e-09 -8.39022e-14 0
-8.35015e-09 -6.59244e-14 0
-8.35017e-09 -5.16219e-14 0
-8.35018e-09 -4.02918e-14 0
-8.3502e-09 -3.13511e-14 0
-8.35021e-09 -2.43211e-14 0
-8.35022e-09 -1.88117e-14 0
-8.35022e-09 -1.45094e-14 0
-8.35023e-09 -1.11659e-14 0
-8.35023e-09 -8.59011e-15 0
-8.35024e-09 -6.64808e-15 0
-8.35024e-09 -5.26544e-15 0
-8.35024e-09 -4.45899e-15 0
-8.35024e-09 -4.66871e-15 0
-8.35025e-09 -8.05987e-15 0
-8.35026e-09 -1.77928e-14 0
0.00773385 4.61321e-09 0
0 0 0
1.03381e-14 0 0
-2.52783e-09 0 0
-4.33382e-09 0 0
-4.93393e-09 0 0
-5.04578e-09 0 0
-5.13606e-09 0 0
-5.01695e-09 0 0
-4.63598e-09 0 0
-2.63174e-09 0 0
-1.17618e-09 0 0
-1.99706e-09 0 0
-4.022e-09 0 0
-5.45517e-09 0 0
-5.68401e-09 0 0
-5.28668e-09 0 0
-4.88708e-09 0 0
-4.65261e-09 0 0
-4.54243e-09 0 0
-4.49682e-09 0 0
-4.47971e-09 0 0
-4.47402e-09 0 0
-4.47255e-09 0 0
-4.47251e-09 0 0
-4.47286e-09 0 0
-4.47327e-09 0 0
-4.47362e-09 0 0
-4.47391e-09 0 0
-4.47413e-09 0 0
-4.4743e-09 0 0
-4.47444e-09 0 0
-4.47454e-09 0 0
-4.47462e-09 0 0
-4.47468e-09 0 0
-4.47473e-09 0 0
-4.47477e-09 0 0
-4.4748e-09 0 0
-4.47482e-09 0 0
-4.47484e-09 0 0
-4.47485e-09 0 0
-4.47486e-09 0 0
-4.47487e-09 0 0
-4.47487e-09 0 0
-4.47488e-09 0 0
-4.47488e-09 0 0
-4.47489e-09 0 0
-4.47489e-09 0 0
-4.47489e-09 0 0
-4.47489e-09 0 0
-4.4749e-09 0 0
0.00296089 0 0
0 0 8.20737e-09
3.48443e-14 0 1.71014e-09
-7.82934e-09 0 3.04348e-09
-1.47043e-08 0 2.11063e-10
-1.66079e-08 0 -6.01153e-09
-1.98882e-09 0 -7.09612e-09
2.64391e-09 0 -2.89271e-09
2.49497e-09 0 -3.81104e-10
2.28757e-10 0 7.08972e-10
-2.5216e-09 0 5.00473e-10
-4.41661e-09 0 -2.35391e-11
-5.54004e-09 0 -2.74692e-10
-6.26996e-09 0 -2.60794e-10
-6.79004e-09 0 -1.56672e-10
-7.19001e-09 0 -6.55814e-11
-7.51703e-09 0 -1.2401e-11
-7.78059e-09 0 1.02604e-11
-7.98155e-09 0 1.57364e-11
-8.12611e-09 0 1.39261e-11
-8.22516e-09 0 1.01643e-11
-8.29046e-09 0 6.67688e-12
-8.33223e-09 0 4.09044e-12
-8.3583e-09 0 2.37725e-12
-8.37425e-09 0 1.32083e-12
-8.38385e-09 0 7.02452e-13
-8.38955e-09 0 3.55657e-13
-8.39288e-09 0 1.68795e-13
-8.39481e-09 0 7.2331e-14
-8.39592e-09 0 2.51109e-14
-8.39654e-09 0 3.72035e-15
-8.39688e-09 0 -4.71193e-15
-8.39707e-09 0 -7.02609e-15
-8.39716e-09 0 -6.72214e-15
-8.39721e-09 0 -5.50535e-15
-8.39723e-09 0 -4.14747e-15
-8.39723e-09 0 -2.95535e-15
-8.39723e-09 0 -2.01634e-15
-8.39722e-09 0 -1.32178e-15
-8.39722e-09 0 -8.29752e-16
-8.39721e-09 0 -4.92602e-16
-8.3972e-09 0 -2.6535e-16
-8.3972e-09 0 -1.11612e-16
-8.39719e-09 0 -1.44972e-18
-8.39719e-09 0 9.24275e-17
-8.39719e-09 0 1.98328e-16
-8.39719e-09 0 3.28357e-16
-8.39719e-09 0 4.07631e-16
-8.39719e-09 0 5.06501e-16
-8.39719e-09 0 2.85092e-15
-8.3972e-09 0 1.36494e-14
0.00772861 0 -4.02631e-09
0.0036 2.88229e-09 3.51843e-09
0.00359999 -0.00191036 -0.000522601
0.00804569 -0.00555989 -0.00176038
0.0166826 -0.00879485 -0.00325206
0.0284838 -0.0125942 -0.00440117
0.0465917 -0.00840101 -0.00291477
0.048576 -8.87572e-05 -0.00037888
0.0478872 0.00327572 0.000569785
0.0425408 0.00492169 0.00058545
0.0369705 0.00462386 7.67284e-05
0.0320778 0.0037316 -0.000262118
0.0281487 0.00276293 -0.000324219
0.0253017 0.00190941 -0.000244745
0.0234061 0.0012544 -0.000143755
0.0222048 0.000799255 -7.0773e-05
0.0214654 0.000498556 -2.98748e-05
0.0210209 0.000304865 -1.05517e-05
0.0207597 0.000182765 -2.68102e-06
0.0206095 0.00010748 -1.47596e-08
0.0205252 6.20501e-05 5.96207e-07
0.0204789 3.51822e-05 5.35362e-07
0.0204543 1.95866e-05 3.34856e-07
0.0204416 1.06942e-05 1.63298e-07
0.0204354 5.7131e-06 5.261e-08
0.0204326 2.97401e-06 -7.41576e-09
0.0204315 1.49824e-06 -3.42553e-08
0.0204313 7.21864e-07 -4.21823e-08
0.0204314 3.25384e-07 -4.06226e-08
0.0204316 1.30813e-07 -3.50995e-08
0.0204318 4.07328e-08 -2.8548e-08
0.020432 2.8795e-09 -2.23604e-08
0.0204322 -1.01323e-08 -1.70808e-08
0.0204323 -1.22238e-08 -1.28241e-08
0.0204324 -1.01832e-08 -9.51097e-09
0.0204324 -7.11716e-09 -6.9918e-09
0.0204325 -4.2981e-09 -5.10691e-09
0.0204325 -2.12976e-09 -3.71262e-09
0.0204325 -6.37653e-10 -2.68978e-09
0.0204326 2.92056e-10 -1.94419e-09
0.0204326 8.03372e-10 -1.40373e-09
0.0204326 1.02592e-09 -1.01455e-09
0.0204326 1.06101e-09 -7.37541e-10
0.0204326 9.80968e-10 -5.45461e-10
0.0204326 8.33385e-10 -4.20563e-10
0.0204326 6.44529e-10 -3.5357e-10
0.0204326 4.12448e-10 -3.47234e-10
0.0204326 1.22983e-10 -3.73061e-10
0.0204326 -2.24595e-10 -2.64813e-10
0.0204326 -1.88097e-09 -9.20542e-10
0.0204326 -8.99046e-09 -6.28958e-09
0.0204326 -1.4631e-08 -1.08821e-08
0.01 2.65515e-09 -1.13015e-08
0.01 -0.00396303 -0.00105426
0.0152501 -0.0118261 -0.00283805
0.0243365 -0.0186873 -0.0042804
0.0366105 -0.0275048 -0.0043127
0.0554798 -0.018222 -0.00113445
0.0543449 -0.000792772 0.00159715
0.054888 0.00603667 0.00193344
0.0490555 0.0108808 0.00150427
0.0428781 0.0105767 0.000426123
0.0376876 0.00901231 -0.000316592
0.0335287 0.0069498 -0.000492654
0.0306267 0.00486108 -0.000389361
0.0288224 0.00316289 -0.000233155
0.0277518 0.00197165 -0.000115498
0.0271326 0.00119599 -4.85993e-05
0.0267837 0.000709327 -1.67517e-05
0.026593 0.000411826 -3.6879e-06
0.0264922 0.000234065 7.53896e-07
0.0264412 0.000130095 1.73401e-06
0.0264169 7.05288e-05 1.55109e-06
0.0264064 3.71063e-05 1.11189e-06
0.0264027 1.87672e-05 7.17829e-07
0.0264022 8.95969e-06 4.35002e-07
0.026403 3.88037e-06 2.52084e-07
0.0264042 1.36308e-06 1.40894e-07
0.0264053 1.97257e-07 7.61407e-08
0.0264063 -2.80094e-07 3.96755e-08
0.0264071 -4.23838e-07 1.9744e-08
0.0264078 -4.18567e-07 9.17592e-09
0.0264082 -3.56673e-07 3.76927e-09
0.0264085 -2.81794e-07 1.13421e-09
0.0264088 -2.12575e-07 -5.49697e-11
0.026409 -1.55387e-07 -5.16929e-10
0.0264091 -1.10981e-07 -6.31928e-10
0.0264092 -7.78325e-08 -5.95484e-10
0.0264092 -5.3762e-08 -5.04344e-10
0.0264093 -3.66431e-08 -4.03696e-10
0.0264093 -2.46717e-08 -3.12657e-10
0.0264093 -1.64226e-08 -2.37808e-10
0.0264093 -1.08195e-08 -1.80298e-10
0.0264093 -7.07462e-09 -1.3956e-10
0.0264093 -4.62765e-09 -1.15322e-10
0.0264093 -3.0942e-09 -1.08308e-10
0.0264093 -2.22631e-09 -1.1807e-10
0.0264093 -1.90932e-09 -1.44574e-10
0.0264093 -2.37373e-09 -1.78104e-10
0.0264094 -4.48488e-09 -8.75204e-11
0.0264094 -8.67646e-09 -1.08649e-09
0.0264094 -1.45575e-08 -8.14223e-09
0.0264094 -1.78677e-08 -1.40926e-08
0.0148 -1.38774e-08 -1.50581e-08
0.0148 -0.00588166 -0.00156533
0.019389 -0.0168178 -0.00419207
0.025271 -0.0262964 -0.00576624
0.0294133 -0.0396833 -0.00477721
0.0279886 -0.0243233 -0.000762181
0.0260294 -1.62345e-07 0.00162153
0.02645 0.00798646 0.00175496
0.0314087 0.0166306 0.00160526
0.0312409 0.0160609 0.000724551
0.0296475 0.013332 2.52814e-06
0.0283213 0.0100708 -0.000287681
0.0275652 0.00678886 -0.000278426
0.0273091 0.00422791 -0.000176187
0.0272643 0.00253618 -8.16781e-05
0.0272937 0.00148541 -2.5664e-05
0.0273452 0.000850179 -7.61995e-07
0.0273973 0.000474899 7.1175e-06
0.0274416 0.000258346 7.73722e-06
0.0274757 0.000136308 6.06565e-06
0.0275006 6.91791e-05 4.14904e-06
0.027518 3.32171e-05 2.62928e-06
0.02753 1.45512e-05 1.58592e-06
0.027538 5.26243e-06 9.23549e-07
0.0275433 9.24731e-07 5.23356e-07
0.0275469 -8.84476e-07 2.89764e-07
0.0275493 -1.46138e-06 1.56929e-07
0.0275509 -1.48094e-06 8.30018e-08
0.0275519 -1.28224e-06 4.26602e-08
0.0275526 -1.0268e-06 2.10835e-08
0.0275531 -7.84918e-07 9.80609e-09
0.0275534 -5.81888e-07 4.08399e-09
0.0275536 -4.22084e-07 1.30175e-09
0.0275538 -3.01206e-07 3.9532e-11
0.0275539 -2.12199e-07 -4.61142e-10
0.0275539 -1.47921e-07 -5.97906e-10
0.027554 -1.02183e-07 -5.74266e-10
0.027554 -7.0022e-08 -4.90911e-10
0.027554 -4.7635e-08 -3.95148e-10
0.0275541 -3.21948e-08 -3.07352e-10
0.0275541 -2.1646e-08 -2.34956e-10
0.0275541 -1.45212e-08 -1.79713e-10
0.0275541 -9.79342e-09 -1.41164e-10
0.0275541 -6.76984e-09 -1.18191e-10
0.0275541 -5.04439e-09 -1.12599e-10
0.0275541 -4.47435e-09 -1.40577e-10
0.0275541 -4.97335e-09 -2.27271e-10
0.0275541 -6.32943e-09 -3.11263e-10
0.0275541 -8.55258e-09 -1.62372e-09
0.0275541 -1.15736e-08 -8.6321e-09
0.0275541 -1.32298e-08 -1.43512e-08
0.018 -3.11318e-08 -2.06532e-08
0.018 -0.00660199 -0.00234748
0.0197808 -0.0172712 -0.00623949
0.0197767 -0.0219604 -0.0073134
0.0160492 -0.0234775 -0.00592207
-1.52838e-08 -0.0121864 -0.0025007
1.63462e-06 5.73745e-07 7.87441e-09
-6.50715e-07 6.89214e-07 0.000324276
0.00786124 0.00564174 0.000641428
0.0164204 0.0122465 0.000515211
0.0196379 0.0120422 0.00021414
0.0211924 0.00919184 -7.15894e-05
0.0228948 0.00600145 -0.000171563
0.0244674 0.00354031 -0.000126038
0.0256383 0.00202147 -5.17093e-05
0.0264235 0.00112537 -4.07321e-06
0.0269257 0.00060536 1.47026e-05
0.0272387 0.000311883 1.73464e-05
0.0274303 0.000152051 1.39746e-05
0.0275458 6.83411e-05 9.62207e-06
0.0276147 2.64233e-05 6.06956e-06
0.0276554 6.64763e-06 3.61888e-06
0.0276793 -1.82703e-06 2.07276e-06
0.0276933 -4.7914e-06 1.15006e-06
0.0277014 -5.24238e-06 6.20177e-07
0.0277062 -4.67596e-06 3.24671e-07
0.027709 -3.80334e-06 1.63968e-07
0.0277107 -2.93713e-06 7.87083e-08
0.0277117 -2.19489e-06 3.47324e-08
0.0277123 -1.60378e-06 1.28748e-08
0.0277126 -1.15296e-06 2.60043e-09
0.0277128 -8.18705e-07 -1.77665e-09
0.027713 -5.75696e-07 -3.26764e-09
0.027713 -4.01563e-07 -3.43233e-09
0.0277131 -2.78164e-07 -3.05528e-09
0.0277131 -1.91493e-07 -2.5144e-09
0.0277131 -1.31073e-07 -1.97901e-09
0.0277132 -8.92284e-08 -1.5148e-09
0.0277132 -6.04267e-08 -1.13844e-09
0.0277132 -4.07261e-08 -8.45385e-10
0.0277132 -2.73467e-08 -6.23704e-10
0.0277132 -1.83484e-08 -4.60685e-10
0.0277132 -1.23965e-08 -3.46329e-10
0.0277132 -8.58994e-09 -2.75679e-10
0.0277132 -6.3133e-09 -2.54165e-10
0.0277132 -5.11237e-09 -3.14879e-10
0.0277132 -4.65792e-09 -4.84128e-10
0.0277132 -4.70788e-09 -6.32346e-10
0.0277132 -5.22482e-09 -1.95788e-09
0.0277132 -6.14351e-09 -8.68269e-09
0.0277132 -6.66836e-09 -1.41186e-08
0.0196 -3.77785e-08 -3.70295e-08
0.0196 -0.00503554 -0.00307005
0.0190474 -0.0114434 -0.0074889
0.0165158 -0.013446 -0.00771761
0.0121454 -0.0116286 -0.00588067
0.00277205 -0.00459057 -0.00320341
1.24793e-06 -1.15288e-06 -0.000621475
5.02164e-07 -5.02164e-07 -8.21669e-10
-6.30236e-07 6.71194e-07 7.31838e-05
0.00562116 0.00416513 0.000161849
0.0122075 0.00853999 0.000129915
0.0150873 0.0068735 -5.44057e-05
0.0187081 0.00359924 -0.000210873
0.021999 0.00154446 -0.000183443
0.0243306 0.000605647 -8.96167e-05
0.0257785 0.000201519 -1.90565e-05
0.0266276 2.94667e-05 1.13578e-05
0.0271136 -3.67718e-05 1.7408e-05
0.0273882 -5.45687e-05 1.43156e-05
0.0275419 -5.21055e-05 9.62679e-06
0.0276271 -4.28983e-05 5.84157e-06
0.027674 -3.28587e-05 3.32518e-06
0.0276996 -2.41721e-05 1.80641e-06
0.0277135 -1.73567e-05 9.41948e-07
0.0277209 -1.2276e-05 4.69856e-07
0.0277249 -8.59855e-06 2.20776e-07
0.027727 -5.98379e-06 9.38692e-08
0.027728 -4.1453e-06 3.19494e-08
0.0277286 -2.86194e-06 3.63758e-09
0.0277288 -1.97043e-06 -7.85311e-09
0.0277289 -1.35328e-06 -1.12973e-08
0.027729 -9.27196e-07 -1.11665e-08
0.027729 -6.33699e-07 -9.6651e-09
0.027729 -4.31963e-07 -7.82727e-09
0.027729 -2.93596e-07 -6.09783e-09
0.0277289 -1.9891e-07 -4.63514e-09
0.0277289 -1.34281e-07 -3.46596e-09
0.0277289 -9.02951e-08 -2.56261e-09
0.0277289 -6.0461e-08 -1.88009e-09
0.0277289 -4.03113e-08 -1.37278e-09
0.0277289 -2.67783e-08 -1.00132e-09
0.0277289 -1.77613e-08 -7.35166e-10
0.0277289 -1.18222e-08 -5.53567e-10
0.0277289 -7.97105e-09 -4.46352e-10
0.0277289 -5.5197e-09 -4.1377e-10
0.0277289 -3.97476e-09 -4.747e-10
0.0277289 -2.95081e-09 -6.4236e-10
0.0277289 -2.10575e-09 -7.75904e-10
0.0277289 -1.24499e-09 -2.06784e-09
0.0277289 -3.25453e-10 -8.65014e-09
0.0277289 1.5288e-10 -1.39643e-08
0.0196 -1.95986e-08 -5.08352e-08
0.0196 -0.00289069 -0.00335585
0.0190891 -0.00598579 -0.00752036
0.0180296 -0.00546452 -0.00735835
0.014898 -0.00193078 -0.00532295
0.0111067 0.00396365 -0.0033257
0.00683789 0.00352502 -0.00147327
1.24885e-06 -1.05691e-06 -0.000276732
4.26674e-07 -4.26674e-07 -1.98776e-09
-6.05297e-07 6.55174e-07 1.91682e-05
0.00415905 0.00255175 0.000290586
0.00899844 0.00273726 0.000272794
0.0152387 -0.000800973 -0.000168275
0.0205902 -0.00199037 -0.000320413
0.024015 -0.00171135 -0.000222311
0.0258539 -0.00115857 -9.20578e-05
0.0267815 -0.000732029 -2.16466e-05
0.0272471 -0.000455054 2.17274e-06
0.0274822 -0.00028183 6.39147e-06
0.0276009 -0.000174397 5.09282e-06
0.0276604 -0.000108056 3.1478e-06
0.0276899 -6.71996e-05 1.71996e-06
0.0277041 -4.20377e-05 8.58829e-07
0.0277106 -2.64936e-05 3.88904e-07
0.0277134 -1.6836e-05 1.50157e-07
0.0277145 -1.07901e-05 3.72225e-08
0.0277147 -6.97197e-06 -1.1104e-08
0.0277146 -4.53856e-06 -2.80139e-08
0.0277143 -2.97361e-06 -3.06662e-08
0.0277141 -1.95866e-06 -2.75586e-08
0.0277139 -1.29544e-06 -2.2694e-08
0.0277137 -8.59256e-07 -1.78203e-08
0.0277136 -5.70895e-07 -1.35971e-08
0.0277134 -3.79497e-07 -1.0185e-08
0.0277134 -2.52108e-07 -7.53541e-09
0.0277133 -1.67189e-07 -5.52796e-09
0.0277133 -1.10559e-07 -4.03133e-09
0.0277133 -7.28245e-08 -2.92791e-09
0.0277132 -4.77311e-08 -2.12111e-09
0.0277132 -3.11006e-08 -1.53564e-09
0.0277132 -2.01331e-08 -1.11506e-09
0.0277132 -1.29474e-08 -8.18904e-10
0.0277132 -8.27359e-09 -6.20095e-10
0.0277132 -5.24624e-09 -5.02791e-10
0.0277132 -3.26056e-09 -4.62815e-10
0.0277132 -1.86966e-09 -5.18327e-10
0.0277132 -6.93473e-10 -6.83056e-10
0.0277132 6.90327e-10 -8.01159e-10
0.0277132 2.71271e-09 -2.04427e-09
0.0277132 5.44186e-09 -8.59818e-09
0.0277132 6.95169e-09 -1.39183e-08
0.018 -1.19812e-08 -5.02093e-08
0.018 -0.00116592 -0.00330079
0.0186312 -0.00175508 -0.00712606
0.0194156 -0.00021048 -0.00659967
0.0192548 0.00245463 -0.00455904
0.0192028 0.00781746 -0.00284844
0.0195456 0.0129073 -0.00150953
0.0120551 0.00716577 -0.000684391
1.27831e-06 -8.3551e-07 -0.000238616
-4.9203e-07 -9.52456e-07 7.67731e-09
1.27956e-07 -0.000555258 0.000876055
0.00951708 -0.00426302 0.00118557
0.0174439 -0.00786479 0.000205799
0.0227075 -0.00706322 -0.00029393
0.0255754 -0.00454707 -0.000307474
0.0268513 -0.00251671 -0.000166808
0.0273466 -0.00134988 -6.6804e-05
0.0275223 -0.000736362 -2.26289e-05
0.0275771 -0.000410295 -6.91172e-06
0.0275885 -0.000232223 -1.96657e-06
0.0275856 -0.000133079 -5.59066e-07
0.0275793 -7.71608e-05 -2.04197e-07
0.027573 -4.52752e-05 -1.26717e-07
0.0275679 -2.68928e-05 -1.07146e-07
0.027564 -1.61715e-05 -9.31728e-08
0.0275611 -9.84189e-06 -7.7278e-08
0.027559 -6.05826e-06 -6.11273e-08
0.0275576 -3.76827e-06 -4.66857e-08
0.0275565 -2.36547e-06 -3.48154e-08
0.0275558 -1.49635e-06 -2.55618e-08
0.0275553 -9.52299e-07 -1.85838e-08
0.0275549 -6.08637e-07 -1.343e-08
0.0275547 -3.89914e-07 -9.67214e-09
0.0275545 -2.49886e-07 -6.95311e-09
0.0275544 -1.59866e-07 -4.99446e-09
0.0275543 -1.01862e-07 -3.58695e-09
0.0275542 -6.44718e-08 -2.57678e-09
0.0275542 -4.04102e-08 -1.85236e-09
0.0275541 -2.49865e-08 -1.33354e-09
0.0275541 -1.51629e-08 -9.63224e-10
0.0275541 -8.96242e-09 -7.01393e-10
0.0275541 -5.09126e-09 -5.20881e-10
0.0275541 -2.69521e-09 -4.04761e-10
0.0275541 -1.19868e-09 -3.44653e-10
0.0275541 -1.94544e-10 -3.41176e-10
0.0275541 6.34867e-10 -4.16152e-10
0.0275541 1.59198e-09 -5.89213e-10
0.0275541 3.13055e-09 -6.92631e-10
0.0275541 6.06645e-09 -1.84624e-09
0.0275541 1.07258e-08 -8.43516e-09
0.0275541 1.34379e-08 -1.38627e-08
0.0148 -7.95122e-09 -4.34839e-08
0.0148 -0.000241852 -0.00310914
0.0168714 0.000304882 -0.00640989
0.0196404 0.00206589 -0.00554803
0.0220413 0.00449925 -0.003664
0.0240824 0.00753342 -0.00242963
0.0273326 0.0126435 -0.00156048
0.0303654 0.0202858 -0.000851422
0.0246177 0.0121956 -0.000125791
0.0254606 1.4935e-14 0.000518183
0.0299933 -0.00730321 0.00173187
0.0347671 -0.0151164 0.00235902
0.0342704 -0.0139794 0.00118951
0.031577 -0.0099369 3.78262e-05
0.0293204 -0.00569327 -0.000376461
0.027992 -0.0028423 -0.000294428
0.0272816 -0.00136657 -0.000145651
0.0269015 -0.000672542 -6.00017e-05
0.0266932 -0.000343839 -2.28702e-05
0.0265763 -0.000181721 -8.42483e-06
0.0265092 -9.85261e-05 -3.05098e-06
0.0264701 -5.44808e-05 -1.08879e-06
0.0264469 -3.06024e-05 -3.77259e-07
0.0264329 -1.7415e-05 -1.2006e-07
0.0264243 -1.00208e-05 -2.80262e-08
0.0264189 -5.82103e-06 3.56474e-09
0.0264156 -3.40815e-06 1.29018e-08
0.0264134 -2.00759e-06 1.4126e-08
0.026412 -1.18717e-06 1.25798e-08
0.0264111 -7.02789e-07 1.03101e-08
0.0264105 -4.15015e-07 8.08898e-09
0.0264101 -2.43317e-07 6.17872e-09
0.0264099 -1.407e-07 4.63487e-09
0.0264097 -7.94661e-08 3.43161e-09
0.0264096 -4.31361e-08 2.5158e-09
0.0264095 -2.18281e-08 1.83026e-09
0.0264095 -9.57509e-09 1.32323e-09
0.0264094 -2.75567e-09 9.51425e-10
0.0264094 8.34497e-10 6.80203e-10
0.0264094 2.5387e-09 4.82439e-10
0.0264094 3.17528e-09 3.36955e-10
0.0264094 3.24353e-09 2.26795e-10
0.0264094 3.05178e-09 1.37443e-10
0.0264094 2.79978e-09 5.52368e-11
0.0264093 2.63627e-09 -3.48836e-11
0.0264093 2.70618e-09 -1.60986e-10
0.0264093 3.19043e-09 -3.47652e-10
0.0264093 4.46612e-09 -4.46901e-10
0.0264094 7.76037e-09 -1.47814e-09
0.0264094 1.40422e-08 -7.94506e-09
0.0264094 1.79339e-08 -1.33704e-08
0.01 -1.48369e-08 -3.92801e-08
0.01 -0.00011769 -0.00263786
0.0124953 0.00043043 -0.00505424
0.0160185 0.00161613 -0.00391785
0.0196787 0.00311496 -0.00240744