# vtk DataFile Version 2.0
Tobias Weinzierl: CPU, Manycore and Cluster Computing
ASCII

DATASET STRUCTURED_POINTS
DIMENSIONS  51 11 6

ORIGIN 0 0 0 

SPACING 0.1 0.1 0.1 

POINT_DATA 3366

VECTORS velocity float
0 0 0
3.11346e-15 0 0
-2.21658e-09 0 0
-4.73465e-09 0 0
-5.48748e-09 0 0
-1.57963e-09 0 0
-1.41448e-10 0 0
4.11246e-11 0 0
-6.88386e-10 0 0
-1.92785e-09 0 0
-2.83825e-09 0 0
-3.17955e-09 0 0
-3.16537e-09 0 0
-3.04603e-09 0 0
-2.9527e-09 0 0
-2.91771e-09 0 0
-2.92526e-09 0 0
-2.95136e-09 0 0
-2.97992e-09 0 0
-3.00369e-09 0 0
-3.02089e-09 0 0
-3.03222e-09 0 0
-3.03914e-09 0 0
-3.04306e-09 0 0
-3.04508e-09 0 0
-3.04597e-09 0 0
-3.04623e-09 0 0
-3.04618e-09 0 0
-3.04599e-09 0 0
-3.04576e-09 0 0
-3.04554e-09 0 0
-3.04534e-09 0 0
-3.04518e-09 0 0
-3.04505e-09 0 0
-3.04495e-09 0 0
-3.04487e-09 0 0
-3.04481e-09 0 0
-3.04476e-09 0 0
-3.04473e-09 0 0
-3.0447e-09 0 0
-3.04468e-09 0 0
-3.04467e-09 0 0
-3.04466e-09 0 0
-3.04465e-09 0 0
-3.04464e-09 0 0
-3.04464e-09 0 0
-3.04464e-09 0 0
-3.04463e-09 0 0
-3.04463e-09 0 0
-3.04464e-09 0 0
0.00267346 0 0
0 7.19984e-09 0
2.11823e-14 1.08527e-09 0
-4.06903e-09 2.04423e-09 0
-9.08988e-09 1.68091e-09 0
-9.88215e-09 1.08014e-09 0
-3.40623e-09 1.28591e-09 0
-1.29699e-09 1.98522e-09 0
-7.99064e-10 1.91493e-09 0
-1.10335e-09 1.76424e-09 0
-2.73096e-09 1.59586e-09 0
-4.266e-09 1.04222e-09 0
-4.99052e-09 4.58476e-10 0
-5.15491e-09 9.69295e-11 0
-5.16214e-09 -3.6907e-11 0
-5.21899e-09 -3.85365e-11 0
-5.35453e-09 -3.88915e-13 0
-5.52239e-09 2.85017e-11 0
-5.67829e-09 3.84606e-11 0
-5.80163e-09 3.57468e-11 0
-5.88971e-09 2.78546e-11 0
-5.9482e-09 1.93884e-11 0
-5.98486e-09 1.23459e-11 0
-6.00669e-09 7.21236e-12 0
-6.01903e-09 3.7932e-12 0
-6.02559e-09 1.68098e-12 0
-6.02879e-09 4.71585e-13 0
-6.03011e-09 -1.58315e-13 0
-6.03046e-09 -4.39688e-13 0
-6.03035e-09 -5.25313e-13 0
-6.03005e-09 -5.10204e-13 0
-6.0297e-09 -4.50155e-13 0
-6.02936e-09 -3.75934e-13 0
-6.02908e-09 -3.03168e-13 0
-6.02884e-09 -2.3878e-13 0
-6.02866e-09 -1.84974e-13 0
-6.02851e-09 -1.41592e-13 0
-6.0284e-09 -1.07439e-13 0
-6.02832e-09 -8.09919e-14 0
-6.02825e-09 -6.07498e-14 0
-6.02821e-09 -4.53846e-14 0
-6.02817e-09 -3.37879e-14 0
-6.02815e-09 -2.50675e-14 0
-6.02813e-09 -1.85213e-14 0
-6.02811e-09 -1.36055e-14 0
-6.0281e-09 -9.89565e-15 0
-6.02809e-09 -7.05342e-15 0
-6.02809e-09 -4.84029e-15 0
-6.02809e-09 -2.97693e-15 0
-6.02809e-09 1.84777e-16 0
-6.0281e-09 8.7009e-15 0
0.00718174 -3.43369e-09 0
0 5.10009e-10 0
4.65786e-14 1.26929e-09 0
-2.46408e-09 1.42146e-09 0
-6.79304e-09 -7.54007e-10 0
-5.74235e-09 -8.67354e-10 0
-1.30544e-09 1.50034e-09 0
-2.1026e-09 2.89108e-09 0
-2.40013e-09 1.53293e-09 0
-2.06542e-09 1.21809e-10 0
-2.47914e-09 1.60703e-10 0
-3.41503e-09 5.07803e-10 0
-3.87534e-09 9.37117e-10 0
-3.98908e-09 1.16341e-09 0
-3.9954e-09 1.08424e-09 0
-4.07729e-09 8.6755e-10 0
-4.26095e-09 6.48301e-10 0
-4.48054e-09 4.64499e-10 0
-4.67696e-09 3.20379e-10 0
-4.82604e-09 2.12888e-10 0
-4.92797e-09 1.36374e-10 0
-4.99269e-09 8.41988e-11 0
-5.03147e-09 4.99994e-11 0
-5.0535e-09 2.84048e-11 0
-5.06537e-09 1.52623e-11 0
-5.07134e-09 7.56553e-12 0
-5.07405e-09 3.24996e-12 0
-5.07505e-09 9.59616e-13 0
-5.07521e-09 -1.62207e-13 0
-5.07499e-09 -6.37866e-13 0
-5.07465e-09 -7.75089e-13 0
-5.0743e-09 -7.4877e-13 0
-5.07398e-09 -6.54281e-13 0
-5.07371e-09 -5.40904e-13 0
-5.0735e-09 -4.32106e-13 0
-5.07334e-09 -3.37465e-13 0
-5.07321e-09 -2.59482e-13 0
-5.07312e-09 -1.97335e-13 0
-5.07305e-09 -1.48882e-13 0
-5.07299e-09 -1.11666e-13 0
-5.07295e-09 -8.33696e-14 0
-5.07292e-09 -6.20025e-14 0
-5.0729e-09 -4.59328e-14 0
-5.07289e-09 -3.38609e-14 0
-5.07287e-09 -2.47675e-14 0
-5.07287e-09 -1.7853e-14 0
-5.07286e-09 -1.24127e-14 0
-5.07286e-09 -7.56627e-15 0
-5.07286e-09 -2.21839e-15 0
-5.07286e-09 3.80891e-15 0
-5.07286e-09 1.01521e-14 0
0.00945315 -4.56727e-09 0
0 -9.15645e-09 0
5.68534e-14 4.26154e-10 0
-9.28064e-10 -9.6488e-10 0
-4.9076e-09 -4.47243e-09 0
-3.91677e-09 -5.03591e-09 0
5.2116e-10 -1.95454e-09 0
-9.47075e-10 -3.23823e-14 0
-1.55994e-09 -1.26999e-09 0
-3.81457e-09 -3.02206e-09 0
-4.32566e-09 -2.80624e-09 0
-4.83772e-09 -1.16233e-09 0
-5.02731e-09 5.84663e-10 0
-4.84437e-09 1.58528e-09 0
-4.40104e-09 1.65741e-09 0
-3.99724e-09 1.34537e-09 0
-3.78882e-09 9.96093e-10 0
-3.73772e-09 6.99096e-10 0
-3.7581e-09 4.67864e-10 0
-3.7938e-09 2.99355e-10 0
-3.82245e-09 1.83564e-10 0
-3.8399e-09 1.07913e-10 0
-3.84851e-09 6.0609e-11 0
-3.85164e-09 3.21977e-11 0
-3.85191e-09 1.58029e-11 0
-3.85094e-09 6.74915e-12 0
-3.84959e-09 2.01584e-12 0
-3.84828e-09 -2.68808e-13 0
-3.84717e-09 -1.2232e-12 0
-3.84629e-09 -1.49307e-12 0
-3.84561e-09 -1.43828e-12 0
-3.8451e-09 -1.25135e-12 0
-3.84473e-09 -1.02981e-12 0
-3.84445e-09 -8.19068e-13 0
-3.84425e-09 -6.37066e-13 0
-3.84411e-09 -4.8802e-13 0
-3.844e-09 -3.69887e-13 0
-3.84392e-09 -2.78233e-13 0
-3.84387e-09 -2.08143e-13 0
-3.84382e-09 -1.55074e-13 0
-3.84379e-09 -1.15162e-13 0
-3.84377e-09 -8.52734e-14 0
-3.84376e-09 -6.2935e-14 0
-3.84374e-09 -4.62257e-14 0
-3.84374e-09 -3.36455e-14 0
-3.84373e-09 -2.3999e-14 0
-3.84373e-09 -1.63662e-14 0
-3.84372e-09 -1.01743e-14 0
-3.84372e-09 -5.02778e-15 0
-3.84372e-09 -2.21449e-16 0
-3.84372e-09 4.99561e-15 0
0.00996619 -3.39903e-09 0
0 -1.77143e-08 0
3.6518e-14 -7.05232e-10 0
-1.07812e-09 -2.6294e-09 0
-5.23896e-09 -4.2536e-09 0
-5.92098e-09 -3.44579e-09 0
-2.26713e-14 -1.11639e-09 0
-2.19841e-13 -2.44886e-13 0
2.06151e-13 -2.3336e-13 0
-2.16412e-09 -2.0208e-09 0
-5.08589e-09 -3.5585e-09 0
-5.52319e-09 -1.82839e-09 0
-5.82117e-09 3.32684e-10 0
-5.8915e-09 1.39834e-09 0
-5.42064e-09 1.38965e-09 0
-4.72999e-09 1.07112e-09 0
-4.18279e-09 7.86146e-10 0
-3.85718e-09 5.53895e-10 0
-3.6848e-09 3.65851e-10 0
-3.59278e-09 2.24872e-10 0
-3.53941e-09 1.28593e-10 0
-3.50561e-09 6.79991e-11 0
-3.48308e-09 3.24333e-11 0
-3.46785e-09 1.28848e-11 0
-3.45761e-09 2.90126e-12 0
-3.45082e-09 -1.69653e-12 0
-3.44637e-09 -3.43334e-12 0
-3.44348e-09 -3.75343e-12 0
-3.44162e-09 -3.44316e-12 0
-3.44043e-09 -2.90857e-12 0
-3.43966e-09 -2.34528e-12 0
-3.43916e-09 -1.83733e-12 0
-3.43884e-09 -1.41251e-12 0
-3.43862e-09 -1.07218e-12 0
-3.43848e-09 -8.06737e-13 0
-3.43838e-09 -6.03317e-13 0
-3.43832e-09 -4.49266e-13 0
-3.43827e-09 -3.33545e-13 0
-3.43824e-09 -2.471e-13 0
-3.43822e-09 -1.82763e-13 0
-3.4382e-09 -1.3499e-13 0
-3.43819e-09 -9.95532e-14 0
-3.43818e-09 -7.3255e-14 0
-3.43817e-09 -5.36942e-14 0
-3.43817e-09 -3.90854e-14 0
-3.43817e-09 -2.81208e-14 0
-3.43816e-09 -1.98255e-14 0
-3.43816e-09 -1.34156e-14 0
-3.43816e-09 -8.22281e-15 0
-3.43816e-09 -3.54823e-15 0
-3.43816e-09 1.20055e-15 0
0.010053 -1.56477e-09 0
0 -1.58336e-08 0
1.93283e-14 -1.06403e-09 0
-1.47162e-09 -2.5226e-09 0
-5.49062e-09 -3.44206e-09 0
-7.25262e-09 -3.7205e-09 0
-2.56355e-09 -1.73702e-09 0
-2.09914e-13 2.04564e-13 0
1.59354e-15 -1.59354e-15 0
1.89554e-13 -2.22757e-13 0
-2.43626e-09 -1.54516e-09 0
-4.34238e-09 -1.81581e-09 0
-5.02441e-09 6.30946e-10 0
-6.12477e-09 1.77405e-09 0
-6.29952e-09 1.37086e-09 0
-5.57771e-09 7.66208e-10 0
-4.73697e-09 4.20434e-10 0
-4.15273e-09 2.35333e-10 0
-3.8148e-09 1.19422e-10 0
-3.62697e-09 4.62506e-11 0
-3.52031e-09 5.40997e-12 0
-3.45796e-09 -1.3425e-11 0
-3.42092e-09 -1.95018e-11 0
-3.39885e-09 -1.92918e-11 0
-3.38576e-09 -1.65786e-11 0
-3.37807e-09 -1.32796e-11 0
-3.37359e-09 -1.02269e-11 0
-3.371e-09 -7.69741e-12 0
-3.36953e-09 -5.71622e-12 0
-3.3687e-09 -4.21244e-12 0
-3.36823e-09 -3.09143e-12 0
-3.36797e-09 -2.26431e-12 0
-3.36783e-09 -1.65746e-12 0
-3.36776e-09 -1.21345e-12 0
-3.36772e-09 -8.88918e-13 0
-3.3677e-09 -6.51723e-13 0
-3.36769e-09 -4.78253e-13 0
-3.36768e-09 -3.51269e-13 0
-3.36768e-09 -2.58207e-13 0
-3.36768e-09 -1.89919e-13 0
-3.36768e-09 -1.39736e-13 0
-3.36768e-09 -1.02801e-13 0
-3.36768e-09 -7.55636e-14 0
-3.36768e-09 -5.54303e-14 0
-3.36768e-09 -4.04954e-14 0
-3.36768e-09 -2.93489e-14 0
-3.36768e-09 -2.096e-14 0
-3.36768e-09 -1.45889e-14 0
-3.36768e-09 -9.65636e-15 0
-3.36768e-09 -5.53172e-15 0
-3.36768e-09 -1.6012e-15 0
0.0100634 3.36169e-10 0
0 -1.12114e-08 0
1.94624e-14 -1.09599e-09 0
-1.47755e-09 -2.54053e-09 0
-5.37428e-09 -2.57288e-09 0
-7.57683e-09 -1.98398e-09 0
-5.69604e-09 -1.45029e-09 0
-1.74079e-09 -5.94645e-10 0
-2.08187e-13 2.00946e-13 0
-1.13876e-14 1.13876e-14 0
1.66853e-13 -2.12261e-13 0
-1.66963e-09 1.46173e-10 0
-2.77998e-09 1.95559e-09 0
-5.43865e-09 3.14907e-09 0
-6.9949e-09 1.76641e-09 0
-6.4629e-09 4.31538e-10 0
-5.26137e-09 -9.39909e-11 0
-4.37329e-09 -2.06034e-10 0
-3.89139e-09 -2.00906e-10 0
-3.65597e-09 -1.68407e-10 0
-3.54288e-09 -1.30597e-10 0
-3.48801e-09 -9.57435e-11 0
-3.46117e-09 -6.74814e-11 0
-3.44809e-09 -4.64047e-11 0
-3.44182e-09 -3.15041e-11 0
-3.43893e-09 -2.13009e-11 0
-3.43771e-09 -1.44311e-11 0
-3.43728e-09 -9.83488e-12 0
-3.43721e-09 -6.75737e-12 0
-3.4373e-09 -4.68543e-12 0
-3.43744e-09 -3.2789e-12 0
-3.43758e-09 -2.31477e-12 0
-3.43771e-09 -1.64719e-12 0
-3.43782e-09 -1.18038e-12 0
-3.4379e-09 -8.50979e-13 0
-3.43796e-09 -6.1663e-13 0
-3.43801e-09 -4.48711e-13 0
-3.43805e-09 -3.27651e-13 0
-3.43808e-09 -2.39917e-13 0
-3.4381e-09 -1.76052e-13 0
-3.43811e-09 -1.29384e-13 0
-3.43812e-09 -9.51687e-14 0
-3.43813e-09 -7.00014e-14 0
-3.43814e-09 -5.14253e-14 0
-3.43814e-09 -3.76592e-14 0
-3.43815e-09 -2.74101e-14 0
-3.43815e-09 -1.97472e-14 0
-3.43815e-09 -1.404e-14 0
-3.43815e-09 -9.87713e-15 0
-3.43815e-09 -6.83686e-15 0
-3.43815e-09 -4.26804e-15 0
0.010053 2.18445e-09 0
0 -8.01057e-09 0
1.83152e-14 -1.11158e-09 0
-1.68739e-09 -2.35951e-09 0
-5.36197e-09 -2.04743e-09 0
-7.29193e-09 -1.02913e-09 0
-6.14334e-09 -5.50584e-10 0
-4.01231e-09 -1.27392e-09 0
-2.14929e-09 -9.52975e-10 0
-2.17996e-13 1.83901e-13 0
1.51467e-13 1.85555e-13 0
-1.49428e-14 7.00305e-10 0
-6.48213e-10 3.74955e-09 0
-2.85462e-09 5.13547e-09 0
-5.55024e-09 2.43609e-09 0
-6.16794e-09 3.13422e-11 0
-5.36414e-09 -6.77008e-10 0
-4.53311e-09 -6.27619e-10 0
-4.07564e-09 -4.54427e-10 0
-3.88669e-09 -3.08068e-10 0
-3.82509e-09 -2.01907e-10 0
-3.81268e-09 -1.29245e-10 0
-3.81598e-09 -8.16317e-11 0
-3.82258e-09 -5.13868e-11 0
-3.82857e-09 -3.25037e-11 0
-3.83313e-09 -2.0777e-11 0
-3.83637e-09 -1.34681e-11 0
-3.83861e-09 -8.86839e-12 0
-3.84014e-09 -5.93419e-12 0
-3.8412e-09 -4.03294e-12 0
-3.84193e-09 -2.78052e-12 0
-3.84244e-09 -1.9419e-12 0
-3.8428e-09 -1.37155e-12 0
-3.84305e-09 -9.78053e-13 0
-3.84323e-09 -7.0308e-13 0
-3.84336e-09 -5.08775e-13 0
-3.84346e-09 -3.70159e-13 0
-3.84353e-09 -2.70474e-13 0
-3.84358e-09 -1.98306e-13 0
-3.84361e-09 -1.4577e-13 0
-3.84364e-09 -1.07348e-13 0
-3.84366e-09 -7.9138e-14 0
-3.84367e-09 -5.83512e-14 0
-3.84368e-09 -4.2984e-14 0
-3.84369e-09 -3.15886e-14 0
-3.84369e-09 -2.31184e-14 0
-3.8437e-09 -1.68233e-14 0
-3.8437e-09 -1.22175e-14 0
-3.8437e-09 -9.14662e-15 0
-3.8437e-09 -7.70177e-15 0
-3.84371e-09 -7.45419e-15 0
0.00996619 3.83229e-09 0
0 -7.21012e-09 0
1.78228e-14 -9.87656e-10 0
-2.24183e-09 -2.0648e-09 0
-5.7616e-09 -1.67572e-09 0
-7.45274e-09 -7.23883e-10 0
-6.65026e-09 -1.20886e-10 0
-4.86213e-09 -6.20969e-10 0
-4.0733e-09 -2.34707e-09 0
-2.44474e-09 -1.72168e-09 0
-3.83798e-09 8.9329e-18 0
-6.12075e-09 1.1035e-09 0
-4.8326e-09 3.83414e-09 0
-2.01217e-09 4.93908e-09 0
-2.91303e-09 2.75888e-09 0
-4.81594e-09 2.69728e-10 0
-5.2935e-09 -6.58588e-10 0
-5.09982e-09 -6.43777e-10 0
-4.94917e-09 -4.25345e-10 0
-4.92219e-09 -2.51326e-10 0
-4.94909e-09 -1.45014e-10 0
-4.98484e-09 -8.45144e-11 0
-5.01406e-09 -5.04273e-11 0
-5.03457e-09 -3.09394e-11 0
-5.04807e-09 -1.95117e-11 0
-5.05672e-09 -1.2616e-11 0
-5.06223e-09 -8.33783e-12 0
-5.06575e-09 -5.6163e-12 0
-5.06803e-09 -3.84616e-12 0
-5.06953e-09 -2.67196e-12 0
-5.07053e-09 -1.87932e-12 0
-5.07121e-09 -1.33582e-12 0
-5.07168e-09 -9.57973e-13 0
-5.07201e-09 -6.92095e-13 0
-5.07224e-09 -5.03049e-13 0
-5.0724e-09 -3.67441e-13 0
-5.07252e-09 -2.69443e-13 0
-5.0726e-09 -1.98191e-13 0
-5.07267e-09 -1.46125e-13 0
-5.07271e-09 -1.07923e-13 0
-5.07274e-09 -7.9798e-14 0
-5.07277e-09 -5.90317e-14 0
-5.07279e-09 -4.3662e-14 0
-5.0728e-09 -3.22613e-14 0
-5.07281e-09 -2.37936e-14 0
-5.07282e-09 -1.75122e-14 0
-5.07282e-09 -1.28858e-14 0
-5.07283e-09 -9.5705e-15 0
-5.07283e-09 -7.62345e-15 0
-5.07283e-09 -7.97369e-15 0
-5.07284e-09 -1.12289e-14 0
0.00945315 4.62763e-09 0
0 -7.70804e-09 0
1.58736e-14 -5.75592e-10 0
-2.71756e-09 -1.20407e-09 0
-5.85004e-09 -9.43068e-10 0
-7.268e-09 -4.74432e-10 0
-7.19649e-09 -5.52662e-10 0
-6.16509e-09 -1.17117e-09 0
-5.52209e-09 -1.94707e-09 0
-6.16154e-09 -2.56183e-10 0
-6.27129e-09 3.23848e-09 0
-6.89372e-09 3.3857e-09 0
-5.16273e-09 1.66219e-10 0
-2.90431e-09 -2.12956e-09 0
-3.81088e-09 -1.81359e-09 0
-5.7847e-09 -5.29098e-10 0
-6.4173e-09 2.87123e-10 0
-6.26045e-09 4.23211e-10 0
-6.06285e-09 2.8217e-10 0
-5.97627e-09 1.39112e-10 0
-5.95905e-09 5.55608e-11 0
-5.96801e-09 1.67177e-11 0
-5.98254e-09 1.34883e-12 0
-5.99547e-09 -3.60763e-12 0
-6.00526e-09 -4.48843e-12 0
-6.0122e-09 -4.00343e-12 0
-6.017e-09 -3.20254e-12 0
-6.0203e-09 -2.44591e-12 0
-6.02257e-09 -1.82877e-12 0
-6.02415e-09 -1.35417e-12 0
-6.02525e-09 -9.98676e-13 0
-6.02603e-09 -7.35554e-13 0
-6.02659e-09 -5.41779e-13 0
-6.02699e-09 -3.99304e-13 0
-6.02728e-09 -2.94543e-13 0
-6.02749e-09 -2.1745e-13 0
-6.02764e-09 -1.60657e-13 0
-6.02775e-09 -1.18769e-13 0
-6.02784e-09 -8.7841e-14 0
-6.0279e-09 -6.49813e-14 0
-6.02794e-09 -4.80698e-14 0
-6.02797e-09 -3.55478e-14 0
-6.028e-09 -2.62682e-14 0
-6.02802e-09 -1.9388e-14 0
-6.02803e-09 -1.42877e-14 0
-6.02804e-09 -1.05211e-14 0
-6.02805e-09 -7.7797e-15 0
-6.02805e-09 -5.86876e-15 0
-6.02806e-09 -4.87451e-15 0
-6.02806e-09 -5.98271e-15 0
-6.02807e-09 -1.0999e-14 0
0.00718174 3.12648e-09 0
0 0 0
8.05769e-15 0 0
-1.39549e-09 0 0
-2.79758e-09 0 0
-3.43109e-09 0 0
-3.55706e-09 0 0
-3.57449e-09 0 0
-3.59808e-09 0 0
-3.71682e-09 0 0
-2.43333e-09 0 0
-7.72986e-10 0 0
-3.64544e-10 0 0
-1.38622e-09 0 0
-2.85383e-09 0 0
-3.70776e-09 0 0
-3.74543e-09 0 0
-3.4703e-09 0 0
-3.23601e-09 0 0
-3.10846e-09 0 0
-3.05357e-09 0 0
-3.03472e-09 0 0
-3.0308e-09 0 0
-3.03207e-09 0 0
-3.0346e-09 0 0
-3.03704e-09 0 0
-3.03901e-09 0 0
-3.04051e-09 0 0
-3.04162e-09 0 0
-3.04243e-09 0 0
-3.04302e-09 0 0
-3.04345e-09 0 0
-3.04376e-09 0 0
-3.04399e-09 0 0
-3.04416e-09 0 0
-3.04428e-09 0 0
-3.04437e-09 0 0
-3.04444e-09 0 0
-3.04449e-09 0 0
-3.04452e-09 0 0
-3.04455e-09 0 0
-3.04457e-09 0 0
-3.04458e-09 0 0
-3.04459e-09 0 0
-3.0446e-09 0 0
-3.04461e-09 0 0
-3.04461e-09 0 0
-3.04462e-09 0 0
-3.04462e-09 0 0
-3.04462e-09 0 0
-3.04463e-09 0 0
0.00267346 0 0
0 0 8.46011e-09
3.22893e-14 0 1.13132e-09
-4.15256e-09 0 2.69043e-09
-1.02952e-08 0 1.58999e-09
-1.51547e-08 0 -4.23516e-09
-3.55139e-09 0 -6.63194e-09
1.32993e-09 0 -3.60597e-09
2.84802e-09 0 -1.368e-09
2.11639e-09 0 2.04728e-10
-1.21418e-11 0 5.54001e-10
-2.07056e-09 0 2.09485e-10
-3.4594e-09 0 -1.31354e-10
-4.27241e-09 0 -2.30447e-10
-4.74664e-09 0 -1.7577e-10
-5.05973e-09 0 -8.9787e-11
-5.31184e-09 0 -2.70526e-11
-5.529e-09 0 5.14306e-12
-5.70671e-09 0 1.62023e-11
-5.84112e-09 0 1.65857e-11
-5.93579e-09 0 1.31157e-11
-5.99868e-09 0 9.14611e-12
-6.03844e-09 0 5.90857e-12
-6.06247e-09 0 3.62346e-12
-6.07633e-09 0 2.13885e-12
-6.08393e-09 0 1.22555e-12
-6.08781e-09 0 6.85365e-13
-6.08958e-09 0 3.75412e-13
-6.09021e-09 0 2.0194e-13
-6.09027e-09 0 1.06931e-13
-6.09007e-09 0 5.59123e-14
-6.08978e-09 0 2.90217e-14
-6.08948e-09 0 1.50986e-14
-6.08921e-09 0 8.00612e-15
-6.08899e-09 0 4.4386e-15
-6.08881e-09 0 2.65167e-15
-6.08867e-09 0 1.74397e-15
-6.08856e-09 0 1.26046e-15
-6.08848e-09 0 9.78451e-16
-6.08841e-09 0 7.92754e-16
-6.08837e-09 0 6.55574e-16
-6.08833e-09 0 5.47844e-16
-6.08831e-09 0 4.62989e-16
-6.08829e-09 0 4.00745e-16
-6.08827e-09 0 3.66522e-16
-6.08826e-09 0 3.73396e-16
-6.08825e-09 0 4.39684e-16
-6.08825e-09 0 5.17617e-16
-6.08825e-09 0 5.57138e-16
-6.08825e-09 0 1.86271e-15
-6.08825e-09 0 8.51083e-15
0.00717231 0 -2.65561e-09
0.0036 4.23882e-10 2.28774e-09
0.00359999 -0.0015272 -0.000232176
0.00734515 -0.00478568 -0.00108685
0.0152885 -0.00827102 -0.00284096
0.0269458 -0.0134014 -0.00496964
0.0464677 -0.00964398 -0.0037977
0.0489217 -0.000421298 -0.000774554
0.0483023 0.00335347 0.0005313
0.0430029 0.00521111 0.000804166
0.0373786 0.00496336 0.000316264
0.0323949 0.0039961 -0.000168104
0.0283079 0.00293868 -0.000366442
0.0252444 0.0020223 -0.000336286
0.0231359 0.00132869 -0.000221745
0.0217626 0.000852397 -0.000117888
0.0208959 0.000539876 -5.25101e-05
0.0203616 0.000337282 -1.92649e-05
0.0200393 0.00020715 -4.96979e-06
0.0198491 0.000124866 1.1884e-07
0.0197393 7.38518e-05 1.37174e-06
0.0196774 4.2864e-05 1.29376e-06
0.0196432 2.44084e-05 9.00878e-07
0.019625 1.36224e-05 5.38017e-07
0.0196156 7.43497e-06 2.83975e-07
0.019611 3.95242e-06 1.28894e-07
0.019609 2.03212e-06 4.32994e-08
0.0196082 9.9782e-07 7.20791e-10
0.019608 4.56458e-07 -1.74548e-08
0.0196081 1.83605e-07 -2.28575e-08
0.0196083 5.34058e-08 -2.22061e-08
0.0196085 -3.36318e-09 -1.91312e-08
0.0196087 -2.39428e-08 -1.54562e-08
0.0196088 -2.78358e-08 -1.20072e-08
0.0196089 -2.48998e-08 -9.09107e-09
0.019609 -1.98696e-08 -6.76258e-09
0.0196091 -1.48379e-08 -4.96795e-09
0.0196091 -1.05885e-08 -3.61673e-09
0.0196091 -7.29562e-09 -2.61569e-09
0.0196091 -4.87841e-09 -1.88269e-09
0.0196092 -3.17274e-09 -1.3508e-09
0.0196092 -2.00829e-09 -9.68118e-10
0.0196092 -1.23864e-09 -6.9589e-10
0.0196092 -7.49202e-10 -5.06512e-10
0.0196092 -4.55517e-10 -3.81348e-10
0.0196092 -2.98096e-10 -3.08292e-10
0.0196092 -2.47171e-10 -2.86717e-10
0.0196092 -2.99335e-10 -3.06152e-10
0.0196092 -4.19983e-10 -2.18126e-10
0.0196092 -1.42384e-09 -5.40844e-10
0.0196092 -6.50198e-09 -4.22845e-09
0.0196092 -1.06445e-08 -7.48899e-09
0.01 4.20212e-10 -1.55771e-08
0.01 -0.003451 -0.000693824
0.0150755 -0.0109633 -0.00190898
0.0240873 -0.0185426 -0.00358838
0.0368907 -0.028958 -0.00442297
0.0561263 -0.0198131 -0.00123531
0.0545784 -0.00118497 0.00186224
0.0549342 0.00588228 0.00226665
0.0493626 0.0107756 0.0019856
0.0435672 0.0106628 0.000897944
0.0385934 0.00928415 -9.20339e-05
0.0344038 0.00738895 -0.00051885
0.0312733 0.00535389 -0.000522101
0.0292098 0.00359059 -0.000358095
0.0279277 0.00229325 -0.000194567
0.0271542 0.00142228 -8.81114e-05
0.0266994 0.000862724 -3.29006e-05
0.0264397 0.00051278 -8.66851e-06
0.0262958 0.000298736 2.39169e-07
0.026219 0.000170497 2.60429e-06
0.0261796 9.51807e-05 2.59597e-06
0.0261607 5.1812e-05 1.95448e-06
0.0261523 2.73457e-05 1.30437e-06
0.0261493 1.3849e-05 8.12718e-07
0.0261488 6.59625e-06 4.83843e-07
0.0261494 2.8257e-06 2.7851e-07
0.0261502 9.53294e-07 1.55959e-07
0.0261511 8.74759e-08 8.51751e-08
0.0261519 -2.63356e-07 4.53485e-08
0.0261525 -3.63976e-07 2.34507e-08
0.026153 -3.52888e-07 1.16789e-08
0.0261533 -2.99743e-07 5.50415e-09
0.0261536 -2.37556e-07 2.36114e-09
0.0261538 -1.80447e-07 8.25841e-10
0.0261539 -1.33213e-07 1.22299e-10
0.026154 -9.63545e-08 -1.64464e-10
0.0261541 -6.86344e-08 -2.51829e-10
0.0261541 -4.83095e-08 -2.5082e-10
0.0261542 -3.36816e-08 -2.16261e-10
0.0261542 -2.33053e-08 -1.73992e-10
0.0261542 -1.60336e-08 -1.35466e-10
0.0261542 -1.09953e-08 -1.05483e-10
0.0261542 -7.54954e-09 -8.63935e-11
0.0261542 -5.24038e-09 -8.02941e-11
0.0261542 -3.75668e-09 -8.61503e-11
0.0261542 -2.90642e-09 -9.86183e-11
0.0261542 -2.77297e-09 -1.21672e-10
0.0261542 -4.02303e-09 -5.44303e-11
0.0261542 -7.10914e-09 -6.54416e-10
0.0261542 -1.17627e-08 -5.75901e-09
0.0261542 -1.443e-08 -1.01804e-08
0.0148 -1.44051e-08 -2.03446e-08
0.0148 -0.00553635 -0.00120549
0.0196678 -0.0164654 -0.00328879
0.0256805 -0.0270176 -0.00525365
0.0300351 -0.0414534 -0.00507386
0.0285399 -0.0253652 -0.000789954
0.0260782 -1.66912e-07 0.0020247
0.0263015 0.00767848 0.00214057
0.0309959 0.0160232 0.00205262
0.031125 0.0156882 0.0011172
0.0297476 0.0134376 0.000212444
0.0284908 0.0106007 -0.000275695
0.0277038 0.00748542 -0.000361887
0.0274295 0.00483988 -0.000265443
0.0273832 0.00299161 -0.000138833
0.027409 0.0018028 -5.12613e-05
0.0274537 0.00106265 -7.41862e-06
0.0275002 0.000612016 8.72401e-06
0.0275416 0.000343871 1.16769e-05
0.0275754 0.000188052 9.83333e-06
0.0276011 9.96405e-05 7.00884e-06
0.0276199 5.06967e-05 4.57231e-06
0.0276331 2.43285e-05 2.82181e-06
0.0276422 1.05809e-05 1.67587e-06
0.0276484 3.72163e-06 9.67103e-07
0.0276525 5.20121e-07 5.45308e-07
0.0276553 -8.05022e-07 3.01287e-07
0.0276572 -1.21327e-06 1.63221e-07
0.0276584 -1.20702e-06 8.65702e-08
0.0276592 -1.03975e-06 4.47613e-08
0.0276598 -8.32521e-07 2.23681e-08
0.0276601 -6.3803e-07 1.06217e-08
0.0276604 -4.75059e-07 4.62111e-09
0.0276606 -3.46617e-07 1.66752e-09
0.0276607 -2.49161e-07 2.95952e-10
0.0276608 -1.77082e-07 -2.77063e-10
0.0276608 -1.24736e-07 -4.63298e-10
0.0276608 -8.72353e-08 -4.7445e-10
0.0276609 -6.06551e-08 -4.16111e-10
0.0276609 -4.198e-08 -3.38656e-10
0.0276609 -2.89619e-08 -2.64503e-10
0.0276609 -1.99619e-08 -2.0251e-10
0.0276609 -1.38079e-08 -1.55087e-10
0.0276609 -9.6833e-09 -1.21108e-10
0.0276609 -7.07234e-09 -9.89941e-11
0.0276609 -5.74873e-09 -9.89408e-11
0.0276609 -5.5909e-09 -1.62106e-10
0.0276609 -6.35051e-09 -2.64347e-10
0.0276609 -7.90929e-09 -1.21547e-09
0.0276609 -1.00533e-08 -6.40469e-09
0.0276609 -1.12056e-08 -1.069e-08
0.018 -3.11684e-08 -2.44802e-08
0.018 -0.00657645 -0.0020206
0.0200438 -0.0174696 -0.00552297
0.0198579 -0.022662 -0.00702167
0.0159326 -0.0244856 -0.0065358
-1.8034e-08 -0.0127168 -0.00301652
1.59363e-06 5.27883e-07 9.7059e-09
-6.13845e-07 6.47098e-07 0.000407091
0.00750012 0.00526279 0.000821979
0.0157265 0.0117211 0.000685064
0.0190751 0.0120405 0.000316694
0.0206708 0.00965833 -5.71899e-05
0.0224038 0.00661347 -0.000224017
0.0241047 0.00403858 -0.000192716
0.0254418 0.0023752 -9.66065e-05
0.0263631 0.00137184 -2.13384e-05
0.0269586 0.000772179 1.5018e-05
0.0273328 0.000419048 2.4525e-05
0.0275645 0.000217185 2.18765e-05
0.0277062 0.000106023 1.59327e-05
0.027792 4.72911e-05 1.04385e-05
0.0278434 1.77266e-05 6.40532e-06
0.027874 3.78282e-06 3.75776e-06
0.0278921 -2.12671e-06 2.13151e-06
0.0279027 -4.1047e-06 1.17585e-06
0.0279089 -4.29421e-06 6.32059e-07
0.0279126 -3.77127e-06 3.30481e-07
0.0279148 -3.04816e-06 1.67011e-07
0.027916 -2.34883e-06 8.04325e-08
0.0279168 -1.75553e-06 3.57926e-08
0.0279172 -1.28499e-06 1.35793e-08
0.0279175 -9.26561e-07 3.0998e-09
0.0279177 -6.60667e-07 -1.40561e-09
0.0279178 -4.67017e-07 -2.98347e-09
0.0279178 -3.27862e-07 -3.21092e-09
0.0279179 -2.28877e-07 -2.88136e-09
0.0279179 -1.59024e-07 -2.37741e-09
0.0279179 -1.10045e-07 -1.87112e-09
0.0279179 -7.58921e-08 -1.42992e-09
0.0279179 -5.2196e-08 -1.07171e-09
0.0279179 -3.58394e-08 -7.92945e-10
0.0279179 -2.46206e-08 -5.82469e-10
0.0279179 -1.70058e-08 -4.28718e-10
0.0279179 -1.19475e-08 -3.23606e-10
0.0279179 -8.72551e-09 -2.66533e-10
0.0279179 -6.80253e-09 -2.84706e-10
0.0279179 -5.76992e-09 -4.30806e-10
0.0279179 -5.30701e-09 -6.20934e-10
0.0279179 -5.28167e-09 -1.63803e-09
0.0279179 -5.55232e-09 -6.59426e-09
0.0279179 -5.72159e-09 -1.06116e-08
0.0196 -3.90635e-08 -4.0014e-08
0.0196 -0.00517196 -0.00281513
0.0190825 -0.0117314 -0.0068975
0.0163016 -0.0140714 -0.00739925
0.0116991 -0.0125169 -0.00634742
0.00247929 -0.00500504 -0.00380947
1.21059e-06 -1.1161e-06 -0.000778884
5.02252e-07 -5.02252e-07 -7.48709e-10
-5.96317e-07 6.31372e-07 0.000106387
0.00523296 0.00395168 0.000223375
0.0116693 0.00847055 0.000178312
0.0144496 0.00735791 -4.46975e-05
0.0178992 0.00418016 -0.000257935
0.0212619 0.00190159 -0.000262323
0.0238473 0.000782107 -0.000157874
0.0255437 0.000297144 -5.34797e-05
0.0265679 8.60994e-05 4.14224e-06
0.0271651 -5.37271e-06 2.24678e-05
0.0275082 -3.97522e-05 2.19224e-05
0.0277034 -4.68178e-05 1.59541e-05
0.0278134 -4.22769e-05 1.01634e-05
0.0278748 -3.41054e-05 5.99423e-06
0.0279088 -2.59019e-05 3.35646e-06
0.0279274 -1.89843e-05 1.80482e-06
0.0279376 -1.36119e-05 9.34633e-07
0.027943 -9.62502e-06 4.63826e-07
0.0279459 -6.74517e-06 2.17028e-07
0.0279474 -4.69926e-06 9.19172e-08
0.0279482 -3.26094e-06 3.11497e-08
0.0279485 -2.25654e-06 3.49629e-09
0.0279487 -1.55822e-06 -7.65761e-09
0.0279488 -1.07416e-06 -1.09571e-08
0.0279488 -7.39344e-07 -1.07884e-08
0.0279488 -5.08139e-07 -9.30402e-09
0.0279488 -3.48714e-07 -7.50769e-09
0.0279488 -2.38935e-07 -5.82748e-09
0.0279488 -1.63447e-07 -4.41309e-09
0.0279487 -1.11619e-07 -3.28723e-09
0.0279487 -7.60978e-08 -2.42085e-09
0.0279487 -5.18068e-08 -1.76892e-09
0.0279487 -3.52452e-08 -1.2867e-09
0.0279487 -2.40044e-08 -9.36408e-10
0.0279487 -1.64262e-08 -6.90243e-10
0.0279487 -1.13609e-08 -5.32102e-10
0.0279487 -8.00297e-09 -4.55671e-10
0.0279487 -5.77651e-09 -4.72259e-10
0.0279487 -4.24209e-09 -6.1808e-10
0.0279487 -3.01035e-09 -7.95635e-10
0.0279487 -1.80832e-09 -1.78624e-09
0.0279487 -5.06816e-10 -6.5975e-09
0.0279487 1.81155e-10 -1.04846e-08
0.0196 -1.96873e-08 -5.3758e-08
0.0196 -0.00308732 -0.00314116
0.0190455 -0.00646262 -0.00695434
0.0178243 -0.00601691 -0.00697995
0.0143545 -0.00240096 -0.00561202
0.0105664 0.00365246 -0.00393391
0.00663692 0.00341183 -0.00182498
1.21119e-06 -1.021e-06 -0.000336372
4.24683e-07 -4.24683e-07 -2.01489e-09
-5.75476e-07 6.17159e-07 2.84775e-05
0.00394334 0.00279356 0.000329436
0.00857803 0.00348722 0.000353477
0.0143326 -4.59564e-05 -0.000105674
0.0195612 -0.00176276 -0.000354396
0.0233121 -0.0018182 -0.00031625
0.0255299 -0.00131601 -0.000165208
0.0267046 -0.00084749 -5.33807e-05
0.027305 -0.000530177 -4.94304e-06
0.0276108 -0.000330668 7.92798e-06
0.0277665 -0.000206267 8.06858e-06
0.0278453 -0.000128642 5.47121e-06
0.0278847 -8.02979e-05 3.16958e-06
0.027904 -5.02685e-05 1.67019e-06
0.0279132 -3.16289e-05 8.11747e-07
0.0279173 -2.00349e-05 3.57267e-07
0.0279189 -1.27892e-05 1.31565e-07
0.0279194 -8.23042e-06 2.72157e-08
0.0279194 -5.33904e-06 -1.60192e-08
0.0279192 -3.48931e-06 -3.00988e-08
0.0279189 -2.29567e-06 -3.12669e-08
0.0279187 -1.51903e-06 -2.74381e-08
0.0279185 -1.00988e-06 -2.2267e-08
0.0279184 -6.73882e-07 -1.73024e-08
0.0279183 -4.50907e-07 -1.30928e-08
0.0279182 -3.02264e-07 -9.73898e-09
0.0279181 -2.02825e-07 -7.16137e-09
0.0279181 -1.36136e-07 -5.22445e-09
0.027918 -9.13415e-08 -3.79047e-09
0.027918 -6.12353e-08 -2.73987e-09
0.027918 -4.10083e-08 -1.97646e-09
0.027918 -2.74372e-08 -1.42662e-09
0.027918 -1.83512e-08 -1.03641e-09
0.027918 -1.22807e-08 -7.68362e-10
0.027918 -8.22149e-09 -5.98222e-10
0.027918 -5.47283e-09 -5.1243e-10
0.027918 -3.52556e-09 -5.19655e-10
0.0279179 -1.97041e-09 -6.58449e-10
0.0279179 -3.77593e-10 -8.19357e-10
0.0279179 1.72155e-09 -1.75119e-09
0.0279179 4.50534e-09 -6.50163e-09
0.0279179 6.05552e-09 -1.03725e-08
0.018 -1.2169e-08 -5.27602e-08
0.018 -0.00141877 -0.00309084
0.018546 -0.0023078 -0.0066036
0.019079 -0.000710386 -0.00621645
0.0187132 0.00217491 -0.00467923
0.0186935 0.00772543 -0.00326212
0.019136 0.0127696 -0.00182437
0.0118001 0.00704043 -0.000815187
1.23948e-06 -8.02517e-07 -0.000277342
-4.65867e-07 -9.1995e-07 7.85622e-09
1.25405e-07 -0.000229398 0.000897346
0.00947022 -0.00312346 0.00135486
0.0171671 -0.00666594 0.000481364
0.0221977 -0.00684599 -0.000164773
0.025177 -0.00500149 -0.000358837
0.0266928 -0.00299929 -0.000259996
0.02735 -0.0016554 -0.000126101
0.0276001 -0.000905721 -4.89902e-05
0.0276823 -0.000503727 -1.67251e-05
0.0277013 -0.000284757 -5.31099e-06
0.0276991 -0.00016296 -1.66674e-06
0.0276914 -9.42428e-05 -5.87827e-07
0.0276836 -5.50804e-05 -2.83098e-07
0.0276773 -3.2554e-05 -1.90088e-07
0.0276725 -1.94676e-05 -1.47997e-07
0.0276691 -1.17821e-05 -1.17225e-07
0.0276666 -7.21566e-06 -9.0755e-08
0.0276649 -4.46954e-06 -6.84158e-08
0.0276637 -2.79793e-06 -5.04908e-08
0.0276628 -1.76826e-06 -3.67098e-08
0.0276623 -1.12682e-06 -2.64325e-08
0.0276619 -7.23067e-07 -1.8922e-08
0.0276616 -4.6655e-07 -1.35034e-08
0.0276614 -3.02263e-07 -9.6238e-09
0.0276612 -1.96343e-07 -6.85753e-09
0.0276611 -1.27695e-07 -4.88877e-09
0.0276611 -8.30356e-08 -3.48829e-09
0.027661 -5.39139e-08 -2.49187e-09
0.027661 -3.49077e-08 -1.7829e-09
0.027661 -2.25098e-08 -1.27905e-09
0.027661 -1.44359e-08 -9.22777e-10
0.0276609 -9.18718e-09 -6.74494e-10
0.0276609 -5.77094e-09 -5.0823e-10
0.0276609 -3.51755e-09 -4.0861e-10
0.0276609 -1.95736e-09 -3.68009e-10
0.0276609 -7.34766e-10 -3.98516e-10
0.0276609 4.5868e-10 -5.44279e-10
0.0276609 2.02937e-09 -6.86628e-10
0.0276609 4.72924e-09 -1.50226e-09
0.0276609 8.96502e-09 -6.20765e-09
0.0276609 1.14446e-08 -1.01306e-08
0.0148 -7.56985e-09 -4.56499e-08
0.0148 -0.000513884 -0.00290085
0.0166507 -0.00025682 -0.00593786
0.0190748 0.00163728 -0.00521772
0.0213088 0.00435873 -0.00369585
0.0234189 0.00757761 -0.00267455
0.0268418 0.0126585 -0.00178289
0.0298908 0.0200342 -0.000966131
0.0242403 0.0119749 -0.000133503
0.0247512 1.46976e-14 0.000506553
0.0287755 -0.00707726 0.00160849
0.0337551 -0.0142244 0.00249941
0.0343259 -0.0128578 0.00177605
0.0322058 -0.00957983 0.000556571
0.0298362 -0.00607636 -0.000260781
0.0282215 -0.00333186 -0.000400012
0.0272996 -0.00167972 -0.000255581
0.0267962 -0.000833275 -0.000121618
0.0265201 -0.000422 -5.08726e-05
0.0263662 -0.000220121 -2.01191e-05
0.026279 -0.000117968 -7.78391e-06
0.0262289 -6.46608e-05 -2.9988e-06
0.0261995 -3.61041e-05 -1.16191e-06
0.0261822 -2.04733e-05 -4.54269e-07
0.0261717 -1.17639e-05 -1.77943e-07
0.0261653 -6.83749e-06 -6.79386e-08
0.0261613 -4.0142e-06 -2.33923e-08
0.0261588 -2.37724e-06 -5.3484e-09
0.0261572 -1.41807e-06 1.64551e-09
0.0261562 -8.50678e-07 3.94606e-09
0.0261555 -5.12197e-07 4.27374e-09
0.0261551 -3.0882e-07 3.8303e-09
0.0261548 -1.85928e-07 3.15189e-09
0.0261546 -1.11384e-07 2.47069e-09
0.0261545 -6.60917e-08 1.87681e-09
0.0261544 -3.86009e-08 1.39454e-09
0.0261543 -2.19866e-08 1.01917e-09
0.0261543 -1.20302e-08 7.35004e-10
0.0261543 -6.14657e-09 5.23775e-10
0.0261543 -2.74326e-09 3.68331e-10
0.0261543 -8.35008e-10 2.53784e-10
0.0261542 1.91692e-10 1.67435e-10
0.0261542 7.24427e-10 9.797e-11
0.0261542 1.0173e-09 3.45153e-11
0.0261542 1.25357e-09 -3.32475e-11
0.0261542 1.59633e-09 -1.25621e-10
0.0261542 2.22456e-09 -2.86674e-10
0.0261542 3.43421e-09 -4.16e-10
0.0261542 6.19706e-09 -1.09355e-09
0.0261542 1.13286e-08 -5.59325e-09
0.0261542 1.44974e-08 -9.43989e-09
0.01 -1.45476e-08 -4.07949e-08
0.01 -0.000307458 -0.00244429
0.0120551 7.66113e-05 -0.00468033
0.0151331 0.00138263 -0.00368757