# vtk DataFile Version 2.0
Tobias Weinzierl: CPU, Manycore and Cluster Computing
ASCII

DATASET STRUCTURED_POINTS
DIMENSIONS  51 11 6

ORIGIN 0 0 0 

SPACING 0.1 0.1 0.1 

POINT_DATA 3366

VECTORS velocity float
0 0 0
-1.18621e-14 0 0
-1.09742e-08 0 0
-1.4566e-08 0 0
-1.39448e-08 0 0
-1.02882e-08 0 0
-1.34187e-08 0 0
-1.52196e-08 0 0
-1.5569e-08 0 0
-1.49273e-08 0 0
-1.43684e-08 0 0
-1.41647e-08 0 0
-1.42124e-08 0 0
-1.43861e-08 0 0
-1.46055e-08 0 0
-1.48215e-08 0 0
-1.50101e-08 0 0
-1.51637e-08 0 0
-1.52836e-08 0 0
-1.53748e-08 0 0
-1.54431e-08 0 0
-1.54938e-08 0 0
-1.55311e-08 0 0
-1.55586e-08 0 0
-1.55788e-08 0 0
-1.55937e-08 0 0
-1.56046e-08 0 0
-1.56126e-08 0 0
-1.56185e-08 0 0
-1.56228e-08 0 0
-1.5626e-08 0 0
-1.56283e-08 0 0
-1.56301e-08 0 0
-1.56313e-08 0 0
-1.56323e-08 0 0
-1.5633e-08 0 0
-1.56335e-08 0 0
-1.56338e-08 0 0
-1.56341e-08 0 0
-1.56343e-08 0 0
-1.56345e-08 0 0
-1.56346e-08 0 0
-1.56347e-08 0 0
-1.56347e-08 0 0
-1.56348e-08 0 0
-1.56348e-08 0 0
-1.56348e-08 0 0
-1.56348e-08 0 0
-1.56349e-08 0 0
-1.56349e-08 0 0
0.00477439 0 0
0 7.69616e-09 0
-4.32574e-15 7.62556e-09 0
-2.06872e-08 1.14841e-08 0
-2.39585e-08 5.09394e-09 0
-2.04619e-08 -4.4478e-10 0
-1.02357e-08 1.47128e-09 0
-1.5082e-08 4.51827e-09 0
-1.75175e-08 1.35349e-09 0
-1.70917e-08 -6.70667e-10 0
-1.64918e-08 -1.08611e-09 0
-1.66142e-08 -5.00665e-10 0
-1.76043e-08 6.33431e-11 0
-1.87301e-08 3.56313e-10 0
-1.97229e-08 4.62423e-10 0
-2.05406e-08 4.66743e-10 0
-2.11839e-08 4.17734e-10 0
-2.16718e-08 3.47737e-10 0
-2.20322e-08 2.76354e-10 0
-2.22943e-08 2.13098e-10 0
-2.24834e-08 1.61142e-10 0
-2.26193e-08 1.20351e-10 0
-2.27171e-08 8.92038e-11 0
-2.27876e-08 6.58254e-11 0
-2.28387e-08 4.84592e-11 0
-2.28757e-08 3.56361e-11 0
-2.29027e-08 2.61977e-11 0
-2.29225e-08 1.92607e-11 0
-2.29369e-08 1.41644e-11 0
-2.29475e-08 1.04201e-11 0
-2.29553e-08 7.66789e-12 0
-2.2961e-08 5.64408e-12 0
-2.29653e-08 4.15522e-12 0
-2.29684e-08 3.05948e-12 0
-2.29707e-08 2.25282e-12 0
-2.29724e-08 1.65883e-12 0
-2.29736e-08 1.22139e-12 0
-2.29745e-08 8.99197e-13 0
-2.29752e-08 6.61872e-13 0
-2.29757e-08 4.87045e-13 0
-2.29761e-08 3.58237e-13 0
-2.29763e-08 2.63306e-13 0
-2.29765e-08 1.93302e-13 0
-2.29767e-08 1.41632e-13 0
-2.29768e-08 1.03444e-13 0
-2.29769e-08 7.51892e-14 0
-2.29769e-08 5.43516e-14 0
-2.2977e-08 3.95262e-14 0
-2.2977e-08 3.15006e-14 0
-2.2977e-08 3.8465e-14 0
-2.29771e-08 8.18378e-14 0
0.0107015 -1.69045e-08 0
0 3.7273e-10 0
6.98962e-14 9.99067e-09 0
-2.05189e-08 1.44942e-08 0
-1.7565e-08 6.31042e-09 0
-1.09648e-08 -3.27362e-09 0
-1.3339e-08 -7.18646e-10 0
-1.46732e-08 5.35227e-09 0
-1.77426e-08 -6.55735e-10 0
-4.99169e-09 -1.98757e-09 0
-2.86071e-09 4.70962e-10 0
-3.98172e-09 2.35955e-09 0
-6.28256e-09 3.01258e-09 0
-8.32491e-09 2.63569e-09 0
-9.81239e-09 2.07088e-09 0
-1.08798e-08 1.57936e-09 0
-1.16317e-08 1.18083e-09 0
-1.21509e-08 8.67975e-10 0
-1.25053e-08 6.30291e-10 0
-1.27468e-08 4.545e-10 0
-1.29122e-08 3.26837e-10 0
-1.30266e-08 2.3509e-10 0
-1.31066e-08 1.69451e-10 0
-1.31631e-08 1.22511e-10 0
-1.32034e-08 8.88729e-11 0
-1.32325e-08 6.46824e-11 0
-1.32536e-08 4.7216e-11 0
-1.3269e-08 3.45537e-11 0
-1.32803e-08 2.53399e-11 0
-1.32886e-08 1.86139e-11 0
-1.32947e-08 1.36906e-11 0
-1.32992e-08 1.00791e-11 0
-1.33025e-08 7.42537e-12 0
-1.33049e-08 5.47292e-12 0
-1.33067e-08 4.03505e-12 0
-1.33081e-08 2.97542e-12 0
-1.33091e-08 2.19416e-12 0
-1.33098e-08 1.61795e-12 0
-1.33104e-08 1.19288e-12 0
-1.33108e-08 8.79241e-13 0
-1.3311e-08 6.47783e-13 0
-1.33113e-08 4.76925e-13 0
-1.33114e-08 3.50755e-13 0
-1.33115e-08 2.5755e-13 0
-1.33116e-08 1.88719e-13 0
-1.33117e-08 1.38075e-13 0
-1.33117e-08 1.01338e-13 0
-1.33118e-08 7.56725e-14 0
-1.33118e-08 5.97178e-14 0
-1.33118e-08 5.37209e-14 0
-1.33119e-08 5.94575e-14 0
0.0119283 -1.35693e-08 0
0 -8.93789e-09 0
1.70252e-13 7.92261e-09 0
-2.32771e-08 1.04519e-08 0
-1.68399e-08 4.46687e-09 0
-7.92616e-09 6.81073e-09 0
-1.33915e-08 4.87315e-09 0
-1.301e-08 1.69944e-14 0
-1.54447e-08 -1.60986e-08 0
-2.05557e-08 -1.8849e-08 0
-1.14437e-08 -7.76237e-10 0
-8.65409e-09 5.17819e-09 0
-8.54787e-09 5.93796e-09 0
-9.17969e-09 4.71816e-09 0
-9.85583e-09 3.41296e-09 0
-1.04348e-08 2.45128e-09 0
-1.08638e-08 1.74768e-09 0
-1.11604e-08 1.23685e-09 0
-1.13611e-08 8.72629e-10 0
-1.14979e-08 6.16475e-10 0
-1.15926e-08 4.37377e-10 0
-1.16595e-08 3.12088e-10 0
-1.17076e-08 2.24042e-10 0
-1.17426e-08 1.61758e-10 0
-1.17683e-08 1.17381e-10 0
-1.17874e-08 8.55404e-11 0
-1.18015e-08 6.25516e-11 0
-1.1812e-08 4.58649e-11 0
-1.18197e-08 3.36995e-11 0
-1.18255e-08 2.47993e-11 0
-1.18298e-08 1.82704e-11 0
-1.1833e-08 1.3471e-11 0
-1.18354e-08 9.93771e-12 0
-1.18372e-08 7.33363e-12 0
-1.18385e-08 5.4129e-12 0
-1.18394e-08 3.99547e-12 0
-1.18401e-08 2.9491e-12 0
-1.18407e-08 2.1765e-12 0
-1.18411e-08 1.60596e-12 0
-1.18413e-08 1.18459e-12 0
-1.18416e-08 8.73347e-13 0
-1.18417e-08 6.4339e-13 0
-1.18418e-08 4.73411e-13 0
-1.18419e-08 3.47667e-13 0
-1.1842e-08 2.54524e-13 0
-1.1842e-08 1.85381e-13 0
-1.18421e-08 1.33958e-13 0
-1.18421e-08 9.6115e-14 0
-1.18421e-08 6.94546e-14 0
-1.18421e-08 5.27028e-14 0
-1.18421e-08 4.34796e-14 0
0.0120058 -8.67356e-09 0
0 -1.58324e-08 0
2.28262e-13 3.94672e-09 0
-2.72487e-08 3.68085e-09 0
-2.10513e-08 1.1638e-09 0
-1.01846e-08 4.49163e-09 0
-3.56476e-14 3.06193e-09 0
-7.87649e-13 -7.93602e-13 0
6.89574e-13 -8.32654e-13 0
-1.70867e-08 -1.06042e-08 0
-2.09223e-08 -1.2228e-08 0
-1.39173e-08 4.6007e-10 0
-1.26402e-08 4.63778e-09 0
-1.20278e-08 4.63566e-09 0
-1.17408e-08 3.65052e-09 0
-1.1652e-08 2.69628e-09 0
-1.1625e-08 1.92055e-09 0
-1.162e-08 1.34858e-09 0
-1.16263e-08 9.46834e-10 0
-1.16388e-08 6.69156e-10 0
-1.16538e-08 4.77026e-10 0
-1.1669e-08 3.42933e-10 0
-1.16829e-08 2.48318e-10 0
-1.16951e-08 1.80847e-10 0
-1.17052e-08 1.32291e-10 0
-1.17134e-08 9.70894e-11 0
-1.17198e-08 7.1423e-11 0
-1.17249e-08 5.26293e-11 0
-1.17288e-08 3.88251e-11 0
-1.17317e-08 2.86633e-11 0
-1.1734e-08 2.1171e-11 0
-1.17356e-08 1.56413e-11 0
-1.17369e-08 1.15572e-11 0
-1.17378e-08 8.53955e-12 0
-1.17385e-08 6.30933e-12 0
-1.17391e-08 4.66092e-12 0
-1.17394e-08 3.44252e-12 0
-1.17397e-08 2.54201e-12 0
-1.17399e-08 1.87647e-12 0
-1.17401e-08 1.38463e-12 0
-1.17402e-08 1.02111e-12 0
-1.17403e-08 7.5238e-13 0
-1.17404e-08 5.53592e-13 0
-1.17404e-08 4.06357e-13 0
-1.17404e-08 2.97059e-13 0
-1.17405e-08 2.1567e-13 0
-1.17405e-08 1.54876e-13 0
-1.17405e-08 1.09339e-13 0
-1.17405e-08 7.52365e-14 0
-1.17405e-08 4.97872e-14 0
-1.17405e-08 2.97851e-14 0
0.0120091 -4.1975e-09 0
0 -1.34225e-08 0
2.79742e-13 1.32416e-09 0
-2.97002e-08 1.2144e-09 0
-2.50741e-08 -7.43968e-10 0
-1.53052e-08 -1.3732e-09 0
-6.27988e-09 -7.38994e-10 0
-7.83586e-13 7.32688e-13 0
-4.31144e-14 4.31144e-14 0
6.62147e-13 -7.17e-13 0
-1.07749e-08 -5.68484e-09 0
-1.27335e-08 -3.68247e-09 0
-1.54896e-08 4.42448e-09 0
-1.49144e-08 4.29342e-09 0
-1.37435e-08 3.25875e-09 0
-1.29022e-08 2.37223e-09 0
-1.23874e-08 1.67927e-09 0
-1.20931e-08 1.18923e-09 0
-1.19296e-08 8.51501e-10 0
-1.18399e-08 6.16692e-10 0
-1.17909e-08 4.50656e-10 0
-1.17645e-08 3.31377e-10 0
-1.17503e-08 2.44639e-10 0
-1.17428e-08 1.81027e-10 0
-1.1739e-08 1.34122e-10 0
-1.17371e-08 9.94231e-11 0
-1.17362e-08 7.37085e-11 0
-1.17358e-08 5.46365e-11 0
-1.17357e-08 4.04876e-11 0
-1.17357e-08 2.99921e-11 0
-1.17358e-08 2.22088e-11 0
-1.17358e-08 1.64389e-11 0
-1.17359e-08 1.21634e-11 0
-1.17359e-08 8.99661e-12 0
-1.1736e-08 6.65191e-12 0
-1.1736e-08 4.91656e-12 0
-1.1736e-08 3.63266e-12 0
-1.17361e-08 2.68307e-12 0
-1.17361e-08 1.98091e-12 0
-1.17361e-08 1.46181e-12 0
-1.17361e-08 1.07806e-12 0
-1.17361e-08 7.94291e-13 0
-1.17361e-08 5.84327e-13 0
-1.17361e-08 4.28748e-13 0
-1.17361e-08 3.13155e-13 0
-1.17361e-08 2.2684e-13 0
-1.17361e-08 1.61821e-13 0
-1.17361e-08 1.12126e-13 0
-1.17361e-08 7.32863e-14 0
-1.17361e-08 4.17998e-14 0
-1.17361e-08 1.45194e-14 0
0.0120092 9.34913e-11 0
0 -9.07396e-09 0
2.98803e-13 -1.24782e-09 0
-2.90925e-08 -2.03777e-09 0
-2.51152e-08 -1.4477e-09 0
-1.7243e-08 -1.37009e-09 0
-1.24574e-08 -6.05494e-09 0
-8.71794e-09 -5.34259e-09 0
-7.94574e-13 6.70802e-13 0
-8.65472e-15 8.65472e-15 0
6.7111e-13 -6.53185e-13 0
-5.73438e-09 4.80339e-09 0
-2.02893e-08 7.16391e-09 0
-1.92126e-08 3.51318e-09 0
-1.55982e-08 1.95018e-09 0
-1.36568e-08 1.40155e-09 0
-1.27608e-08 1.07433e-09 0
-1.23243e-08 8.37143e-10 0
-1.20955e-08 6.51065e-10 0
-1.19675e-08 5.02725e-10 0
-1.18916e-08 3.85259e-10 0
-1.18442e-08 2.93259e-10 0
-1.18133e-08 2.21961e-10 0
-1.17925e-08 1.67207e-10 0
-1.17781e-08 1.25476e-10 0
-1.17679e-08 9.38666e-11 0
-1.17606e-08 7.00435e-11 0
-1.17553e-08 5.21603e-11 0
-1.17514e-08 3.87791e-11 0
-1.17486e-08 2.87922e-11 0
-1.17465e-08 2.13539e-11 0
-1.17449e-08 1.58229e-11 0
-1.17438e-08 1.17156e-11 0
-1.1743e-08 8.66889e-12 0
-1.17423e-08 6.41092e-12 0
-1.17419e-08 4.73874e-12 0
-1.17415e-08 3.50113e-12 0
-1.17413e-08 2.58561e-12 0
-1.17411e-08 1.90863e-12 0
-1.17409e-08 1.40817e-12 0
-1.17408e-08 1.03823e-12 0
-1.17408e-08 7.64735e-13 0
-1.17407e-08 5.6239e-13 0
-1.17407e-08 4.12442e-13 0
-1.17406e-08 3.00938e-13 0
-1.17406e-08 2.17431e-13 0
-1.17406e-08 1.54004e-13 0
-1.17406e-08 1.04555e-13 0
-1.17406e-08 6.43438e-14 0
-1.17406e-08 2.96249e-14 0
-1.17406e-08 -2.26769e-15 0
0.0120091 4.37324e-09 0
0 -6.34464e-09 0
2.37965e-13 -3.4786e-09 0
-2.67466e-08 -4.86379e-09 0
-2.37161e-08 -2.18654e-09 0
-1.73602e-08 -2.23176e-09 0
-1.39773e-08 -3.26222e-09 0
-1.51751e-08 -1.00565e-08 0
-1.12187e-08 -8.22473e-09 0
-8.00604e-13 5.41e-13 0
7.04446e-13 4.44226e-13 0
8.81542e-14 1.56907e-08 0
-2.36955e-08 1.76476e-08 0
-2.24126e-08 8.55933e-10 0
-1.62345e-08 -1.38646e-09 0
-1.35631e-08 -1.3012e-10 0
-1.26857e-08 4.1519e-10 0
-1.23629e-08 5.14764e-10 0
-1.22088e-08 4.74359e-10 0
-1.2115e-08 3.97495e-10 0
-1.20489e-08 3.18339e-10 0
-1.19993e-08 2.48443e-10 0
-1.19614e-08 1.90785e-10 0
-1.19323e-08 1.44947e-10 0
-1.19101e-08 1.09311e-10 0
-1.18932e-08 8.20037e-11 0
-1.18804e-08 6.12833e-11 0
-1.18707e-08 4.56683e-11 0
-1.18635e-08 3.39589e-11 0
-1.1858e-08 2.521e-11 0
-1.1854e-08 1.86909e-11 0
-1.18509e-08 1.38433e-11 0
-1.18487e-08 1.02444e-11 0
-1.1847e-08 7.57585e-12 0
-1.18457e-08 5.59917e-12 0
-1.18448e-08 4.13613e-12 0
-1.18441e-08 3.05397e-12 0
-1.18436e-08 2.25396e-12 0
-1.18432e-08 1.66278e-12 0
-1.1843e-08 1.22603e-12 0
-1.18428e-08 9.03403e-13 0
-1.18426e-08 6.65027e-13 0
-1.18425e-08 4.88765e-13 0
-1.18424e-08 3.58191e-13 0
-1.18423e-08 2.61063e-13 0
-1.18423e-08 1.88161e-13 0
-1.18423e-08 1.32371e-13 0
-1.18422e-08 8.79435e-14 0
-1.18422e-08 5.00379e-14 0
-1.18422e-08 1.46089e-14 0
-1.18422e-08 -2.04767e-14 0
0.0120058 8.8121e-09 0
0 -6.22704e-09 0
1.44845e-13 -4.81532e-09 0
-2.34453e-08 -6.62441e-09 0
-2.1883e-08 -2.34841e-09 0
-1.76515e-08 -1.06875e-09 0
-1.62681e-08 -2.72442e-09 0
-1.63059e-08 -5.45708e-09 0
-2.29019e-08 -1.39132e-08 0
-2.20403e-08 -1.06511e-08 0
-1.9376e-08 -6.10406e-20 0
-1.48485e-08 2.48426e-08 0
-6.43032e-09 2.62494e-08 0
-8.94545e-09 -2.65156e-09 0
-1.18487e-08 -5.45884e-09 0
-1.31081e-08 -1.51395e-09 0
-1.35604e-08 7.96127e-11 0
-1.36888e-08 4.16909e-10 0
-1.36891e-08 4.16078e-10 0
-1.36428e-08 3.44705e-10 0
-1.35847e-08 2.69497e-10 0
-1.35291e-08 2.05693e-10 0
-1.34811e-08 1.55121e-10 0
-1.34418e-08 1.16182e-10 0
-1.34107e-08 8.6643e-11 0
-1.33865e-08 6.44282e-11 0
-1.33679e-08 4.78127e-11 0
-1.33538e-08 3.54303e-11 0
-1.33432e-08 2.6226e-11 0
-1.33352e-08 1.93964e-11 0
-1.33292e-08 1.43356e-11 0
-1.33247e-08 1.05894e-11 0
-1.33214e-08 7.81843e-12 0
-1.3319e-08 5.77018e-12 0
-1.33171e-08 4.25695e-12 0
-1.33158e-08 3.1395e-12 0
-1.33148e-08 2.31462e-12 0
-1.3314e-08 1.70591e-12 0
-1.33135e-08 1.25684e-12 0
-1.3313e-08 9.25574e-13 0
-1.33127e-08 6.8122e-13 0
-1.33125e-08 5.0092e-13 0
-1.33124e-08 3.67768e-13 0
-1.33122e-08 2.69235e-13 0
-1.33121e-08 1.95983e-13 0
-1.33121e-08 1.40959e-13 0
-1.3312e-08 9.86248e-14 0
-1.3312e-08 6.41871e-14 0
-1.3312e-08 3.27784e-14 0
-1.3312e-08 -1.32625e-15 0
-1.3312e-08 -4.23178e-14 0
0.0119283 1.36263e-08 0
0 -7.71006e-09 0
7.00323e-14 -4.04348e-09 0
-2.22568e-08 -5.46843e-09 0
-2.46739e-08 -1.91603e-09 0
-2.37703e-08 -4.38825e-10 0
-2.31301e-08 7.74853e-10 0
-2.3143e-08 6.45031e-10 0
-2.3256e-08 -3.15155e-10 0
-3.26311e-08 -4.704e-09 0
-3.54112e-08 -1.3046e-08 0
-4.02542e-08 -7.79883e-09 0
-2.00458e-08 4.71453e-09 0
-1.98023e-08 6.85878e-09 0
-2.34009e-08 4.57045e-09 0
-2.4371e-08 2.5108e-09 0
-2.42877e-08 1.33914e-09 0
-2.40235e-08 7.55486e-10 0
-2.37784e-08 4.62265e-10 0
-2.35821e-08 3.02212e-10 0
-2.34308e-08 2.06266e-10 0
-2.3316e-08 1.44471e-10 0
-2.32295e-08 1.02785e-10 0
-2.31646e-08 7.38575e-11 0
-2.31162e-08 5.34272e-11 0
-2.30802e-08 3.88302e-11 0
-2.30534e-08 2.83169e-11 0
-2.30335e-08 2.0701e-11 0
-2.30188e-08 1.51607e-11 0
-2.30079e-08 1.11175e-11 0
-2.29998e-08 8.16006e-12 0
-2.29939e-08 5.99318e-12 0
-2.29895e-08 4.40357e-12 0
-2.29862e-08 3.23644e-12 0
-2.29838e-08 2.37899e-12 0
-2.29821e-08 1.74881e-12 0
-2.29808e-08 1.28552e-12 0
-2.29798e-08 9.44885e-13 0
-2.29791e-08 6.94392e-13 0
-2.29786e-08 5.10165e-13 0
-2.29782e-08 3.74644e-13 0
-2.29779e-08 2.74908e-13 0
-2.29777e-08 2.01435e-13 0
-2.29775e-08 1.47189e-13 0
-2.29774e-08 1.06942e-13 0
-2.29773e-08 7.67356e-14 0
-2.29773e-08 5.34366e-14 0
-2.29772e-08 3.41596e-14 0
-2.29772e-08 1.50453e-14 0
-2.29772e-08 -1.40569e-14 0
-2.29773e-08 -7.54277e-14 0
0.0107015 1.68076e-08 0
0 0 0
2.37209e-14 0 0
-1.13884e-08 0 0
-1.40819e-08 0 0
-1.4835e-08 0 0
-1.46618e-08 0 0
-1.32942e-08 0 0
-1.15728e-08 0 0
-1.0591e-08 0 0
-1.60351e-08 0 0
-2.54055e-08 0 0
-2.55759e-08 0 0
-2.23159e-08 0 0
-1.95715e-08 0 0
-1.79094e-08 0 0
-1.70092e-08 0 0
-1.65176e-08 0 0
-1.62303e-08 0 0
-1.60496e-08 0 0
-1.59294e-08 0 0
-1.58465e-08 0 0
-1.57881e-08 0 0
-1.57464e-08 0 0
-1.57163e-08 0 0
-1.56945e-08 0 0
-1.56785e-08 0 0
-1.56669e-08 0 0
-1.56584e-08 0 0
-1.56522e-08 0 0
-1.56476e-08 0 0
-1.56442e-08 0 0
-1.56418e-08 0 0
-1.56399e-08 0 0
-1.56386e-08 0 0
-1.56376e-08 0 0
-1.56369e-08 0 0
-1.56364e-08 0 0
-1.5636e-08 0 0
-1.56357e-08 0 0
-1.56355e-08 0 0
-1.56353e-08 0 0
-1.56352e-08 0 0
-1.56351e-08 0 0
-1.56351e-08 0 0
-1.5635e-08 0 0
-1.5635e-08 0 0
-1.5635e-08 0 0
-1.5635e-08 0 0
-1.5635e-08 0 0
-1.5635e-08 0 0
0.0047744 0 0
0 0 6.18236e-09
2.52094e-14 0 3.34859e-09
-2.2113e-08 0 3.08188e-09
-2.57111e-08 0 -2.12327e-09
-2.04502e-08 0 -3.83295e-09
-6.55705e-09 0 -1.9974e-09
-1.0767e-08 0 4.13126e-10
-1.31168e-08 0 7.96796e-10
-1.4113e-08 0 3.78357e-10
-1.4361e-08 0 -1.14492e-10
-1.52729e-08 0 -2.61966e-10
-1.66665e-08 0 -2.19376e-10
-1.80739e-08 0 -1.34851e-10
-1.92799e-08 0 -6.92985e-11
-2.02472e-08 0 -3.13633e-11
-2.09913e-08 0 -1.31444e-11
-2.15461e-08 0 -5.60225e-12
-2.1951e-08 0 -2.85884e-12
-2.22424e-08 0 -1.94284e-12
-2.24507e-08 0 -1.59783e-12
-2.25993e-08 0 -1.38091e-12
-2.27053e-08 0 -1.17465e-12
-2.27811e-08 0 -9.68462e-13
-2.28357e-08 0 -7.75252e-13
-2.2875e-08 0 -6.05973e-13
-2.29036e-08 0 -4.65095e-13
-2.29243e-08 0 -3.52124e-13
-2.29395e-08 0 -2.63903e-13
-2.29506e-08 0 -1.96308e-13
-2.29588e-08 0 -1.45219e-13
-2.29647e-08 0 -1.06986e-13
-2.29691e-08 0 -7.8581e-14
-2.29724e-08 0 -5.75881e-14
-2.29748e-08 0 -4.21333e-14
-2.29765e-08 0 -3.07877e-14
-2.29778e-08 0 -2.24762e-14
-2.29788e-08 0 -1.63964e-14
-2.29795e-08 0 -1.19533e-14
-2.298e-08 0 -8.7085e-15
-2.29804e-08 0 -6.33925e-15
-2.29807e-08 0 -4.60946e-15
-2.29809e-08 0 -3.34745e-15
-2.29811e-08 0 -2.43104e-15
-2.29812e-08 0 -1.78466e-15
-2.29813e-08 0 -1.38181e-15
-2.29813e-08 0 -1.21717e-15
-2.29814e-08 0 -1.00013e-15
-2.29814e-08 0 1.19426e-15
-2.29814e-08 0 1.44422e-14
-2.29815e-08 0 6.16821e-14
0.0107014 0 -1.43655e-08
0.0036 9.60287e-09 5.26448e-09
0.00359998 -0.00438612 -0.0021471
0.0128003 -0.0087479 -0.00382662
0.0226802 -0.00886074 -0.00277246
0.0330292 -0.00896949 -0.00176969
0.0453209 -0.00530319 -0.000866962
0.046475 -0.000428708 -0.00024482
0.0459523 0.00231513 -7.24219e-05
0.0406313 0.00404177 -7.63632e-05
0.0355688 0.00397044 -0.000110173
0.0314086 0.00321452 -8.49659e-05
0.0284363 0.00230644 -5.2104e-05
0.0265162 0.00152167 -2.84564e-05
0.0253504 0.000944473 -1.43544e-05
0.0246752 0.00055793 -6.84602e-06
0.0243021 0.000314455 -3.16734e-06
0.0241069 0.00016831 -1.46739e-06
0.024012 8.43071e-05 -7.07968e-07
0.0239714 3.80902e-05 -3.70263e-07
0.0239584 1.39132e-05 -2.14942e-07
0.0239585 2.09891e-06 -1.37696e-07
0.023964 -3.06083e-06 -9.47334e-08
0.0239711 -4.81341e-06 -6.7951e-08
0.0239779 -4.94189e-06 -4.97439e-08
0.0239837 -4.38739e-06 -3.67118e-08
0.0239885 -3.62213e-06 -2.71478e-08
0.0239922 -2.8655e-06 -2.00613e-08
0.023995 -2.20583e-06 -1.47999e-08
0.0239972 -1.66696e-06 -1.08984e-08
0.0239988 -1.24354e-06 -8.01194e-09
0.024 -9.19098e-07 -5.88165e-09
0.0240008 -6.74708e-07 -4.3129e-09
0.0240015 -4.92816e-07 -3.15978e-09
0.0240019 -3.58603e-07 -2.31343e-09
0.0240022 -2.60196e-07 -1.693e-09
0.0240025 -1.8838e-07 -1.23869e-09
0.0240027 -1.36155e-07 -9.06424e-10
0.0240028 -9.82767e-08 -6.63925e-10
0.0240029 -7.08605e-08 -4.87715e-10
0.0240029 -5.10478e-08 -3.61026e-10
0.024003 -3.67476e-08 -2.72361e-10
0.024003 -2.64373e-08 -2.14617e-10
0.024003 -1.90133e-08 -1.84601e-10
0.0240031 -1.3682e-08 -1.82536e-10
0.0240031 -9.88459e-09 -2.10125e-10
0.0240031 -7.2507e-09 -2.62158e-10
0.0240031 -5.59178e-09 -3.14598e-10
0.0240031 -5.22723e-09 -6.11109e-10
0.0240031 -9.58907e-09 -4.32178e-09
0.0240031 -2.70816e-08 -2.00714e-08
0.0240032 -4.04453e-08 -3.23852e-08
0.01 1.04392e-08 3.73684e-09
0.01 -0.00724359 -0.00375971
0.0172205 -0.0154499 -0.00652184
0.0257862 -0.0174455 -0.00433663
0.0355954 -0.0208355 -0.00238095
0.0533238 -0.0124371 -0.00078661
0.0527186 -0.000154788 0.000106814
0.0532552 0.00609261 0.000160267
0.0445793 0.0105292 -1.56881e-07
0.0375565 0.00932172 -0.000158719
0.0328971 0.00719423 -0.00013626
0.0299494 0.00492774 -7.78477e-05
0.0282977 0.00310496 -3.98148e-05
0.0274263 0.00185069 -1.86152e-05
0.026989 0.00105305 -7.90673e-06
0.0267855 0.000570628 -3.00996e-06
0.0267028 0.000291142 -9.74282e-07
0.0266788 0.000135997 -2.15914e-07
0.0266813 5.38769e-05 2.25894e-08
0.0266938 1.2988e-05 7.14434e-08
0.0267085 -5.53499e-06 6.23172e-08
0.0267223 -1.24753e-05 4.22841e-08
0.026734 -1.37832e-05 2.53369e-08
0.0267433 -1.26217e-05 1.38683e-08
0.0267505 -1.05967e-05 6.9184e-09
0.0267559 -8.47097e-06 3.01469e-09
0.02676 -6.56719e-06 9.68874e-10
0.0267631 -4.98845e-06 -1.63945e-11
0.0267653 -3.73611e-06 -4.29109e-10
0.0267669 -2.77021e-06 -5.50761e-10
0.0267681 -2.03911e-06 -5.36258e-10
0.026769 -1.49293e-06 -4.66988e-10
0.0267696 -1.08868e-06 -3.83366e-10
0.0267701 -7.91518e-07 -3.03815e-10
0.0267704 -5.74154e-07 -2.35448e-10
0.0267706 -4.15753e-07 -1.79898e-10
0.0267708 -3.00644e-07 -1.36403e-10
0.0267709 -2.17174e-07 -1.0341e-10
0.026771 -1.56745e-07 -7.93866e-11
0.0267711 -1.13054e-07 -6.32806e-11
0.0267711 -8.15017e-08 -5.48385e-11
0.0267712 -5.8745e-08 -5.49158e-11
0.0267712 -4.23706e-08 -6.57478e-11
0.0267712 -3.06587e-08 -9.08342e-11
0.0267712 -2.24357e-08 -1.33195e-10
0.0267712 -1.70415e-08 -1.88726e-10
0.0267712 -1.4503e-08 -2.4258e-10
0.0267712 -1.56685e-08 -5.79543e-10
0.0267712 -2.0769e-08 -4.7399e-09
0.0267713 -2.96066e-08 -2.17211e-08
0.0267713 -3.50086e-08 -3.48548e-08
0.0148 -1.04683e-08 9.97858e-09
0.0148 -0.00825636 -0.00500242
0.019495 -0.0182794 -0.00879557
0.0244908 -0.0225788 -0.00580316
0.0268942 -0.0337527 -0.0029309
0.0275 -0.0211973 -0.000804142
0.0267086 -1.55606e-07 0.000227245
0.0274347 0.0106574 0.000214578
0.0328635 0.0198761 0.000120109
0.0304717 0.0157648 -2.33748e-05
0.0281209 0.0108958 -7.81117e-05
0.0268415 0.00694808 -6.23248e-05
0.0263667 0.00406709 -3.49703e-05
0.0263044 0.0022642 -1.55689e-05
0.0263965 0.00120387 -5.27866e-06
0.0265239 0.000603008 -9.4467e-07
0.0266393 0.000275957 4.71654e-07
0.0267294 0.000106165 7.16934e-07
0.0267951 2.33315e-05 5.92248e-07
0.0268415 -1.32871e-05 4.06527e-07
0.0268735 -2.64597e-05 2.54298e-07
0.0268956 -2.84803e-05 1.50172e-07
0.0269109 -2.57492e-05 8.50602e-08
0.0269214 -2.14485e-05 4.65095e-08
0.0269287 -1.70551e-05 2.45446e-08
0.0269338 -1.31731e-05 1.24121e-08
0.0269374 -9.97997e-06 5.90414e-09
0.0269399 -7.46061e-06 2.52534e-09
0.0269417 -5.52466e-06 8.44465e-10
0.026943 -4.06311e-06 6.12269e-11
0.0269439 -2.97319e-06 -2.62257e-10
0.0269446 -2.16751e-06 -3.60478e-10
0.026945 -1.57572e-06 -3.55973e-10
0.0269454 -1.14306e-06 -3.10767e-10
0.0269456 -8.27853e-07 -2.54826e-10
0.0269458 -5.98808e-07 -2.01549e-10
0.0269459 -4.32704e-07 -1.56082e-10
0.026946 -3.1243e-07 -1.19715e-10
0.0269461 -2.25444e-07 -9.21914e-11
0.0269461 -1.62595e-07 -7.29395e-11
0.0269462 -1.17228e-07 -6.17947e-11
0.0269462 -8.45188e-08 -5.95067e-11
0.0269462 -6.09932e-08 -6.81443e-11
0.0269462 -4.41764e-08 -9.12539e-11
0.0269462 -3.23597e-08 -1.32866e-10
0.0269462 -2.44279e-08 -1.91635e-10
0.0269462 -1.9652e-08 -2.55431e-10
0.0269462 -1.75694e-08 -5.89584e-10
0.0269462 -1.82427e-08 -4.56729e-09
0.0269462 -2.13652e-08 -2.0649e-08
0.0269462 -2.3406e-08 -3.30562e-08
0.018 -2.87784e-08 6.33776e-09
0.018 -0.00749776 -0.00597091
0.0200026 -0.0165366 -0.0106406
0.0206804 -0.018196 -0.00689575
0.0162078 -0.0199437 -0.00334266
-5.38476e-09 -0.0107866 -0.0011166
1.84189e-06 8.01455e-07 2.29994e-09
-8.39163e-07 9.14614e-07 2.64537e-05
0.0106564 0.00754072 7.73315e-05
0.0198725 0.0141176 7.55797e-05
0.0214035 0.0108714 1.16655e-05
0.0224641 0.00671434 -3.04824e-05
0.023744 0.00366085 -2.59814e-05
0.0248134 0.00183026 -1.07861e-05
0.0255892 0.000837649 -1.9171e-06
0.0261084 0.000329454 1.30553e-06
0.0264383 8.61318e-05 1.85058e-06
0.0266415 -1.98255e-05 1.50141e-06
0.0267645 -5.82211e-05 1.01282e-06
0.0268383 -6.54614e-05 6.20728e-07
0.0268826 -5.97594e-05 3.57755e-07
0.0269094 -4.98213e-05 1.96744e-07
0.0269256 -3.9543e-05 1.03592e-07
0.0269356 -3.04649e-05 5.18839e-08
0.0269419 -2.30233e-05 2.41958e-08
0.0269459 -1.71744e-05 9.92392e-09
0.0269485 -1.26957e-05 2.91973e-09
0.0269502 -9.32436e-06 -2.64835e-10
0.0269513 -6.81622e-06 -1.51287e-09
0.0269521 -4.96556e-06 -1.82761e-09
0.0269526 -3.60807e-06 -1.729e-09
0.0269529 -2.61661e-06 -1.47699e-09
0.0269532 -1.89479e-06 -1.19469e-09
0.0269534 -1.37053e-06 -9.35102e-10
0.0269535 -9.90445e-07 -7.16622e-10
0.0269536 -7.15261e-07 -5.41587e-10
0.0269537 -5.16238e-07 -4.05682e-10
0.0269537 -3.72416e-07 -3.02571e-10
0.0269537 -2.68554e-07 -2.26071e-10
0.0269538 -1.93591e-07 -1.71135e-10
0.0269538 -1.39515e-07 -1.3434e-10
0.0269538 -1.00533e-07 -1.14251e-10
0.0269538 -7.24674e-08 -1.11827e-10
0.0269538 -5.23132e-08 -1.30769e-10
0.0269538 -3.7914e-08 -1.76647e-10
0.0269538 -2.77229e-08 -2.49063e-10
0.0269538 -2.06475e-08 -3.2457e-10
0.0269538 -1.59302e-08 -6.33231e-10
0.0269538 -1.32259e-08 -4.47504e-09
0.0269538 -1.20064e-08 -2.01449e-08
0.0269538 -1.16443e-08 -3.22483e-08
0.0196 -3.08511e-08 -7.25001e-09
0.0196 -0.00496005 -0.00652061
0.0200044 -0.0104289 -0.0116272
0.0188224 -0.0105784 -0.00737579
0.0142084 -0.00845835 -0.00340599
0.00401083 -0.00334882 -0.00140879
1.44848e-06 -1.34574e-06 -0.000272013
5.06573e-07 -5.06573e-07 -7.66381e-10
-8.08316e-07 8.70009e-07 3.13341e-06
0.00754149 0.00501806 1.8992e-05
0.0141185 0.00831644 9.6803e-06
0.0177729 0.00462553 -2.60125e-05
0.0212153 0.00173158 -3.00679e-05
0.0235888 0.000426296 -1.28641e-05
0.0250472 -8.81697e-05 -2.17409e-06
0.0258939 -0.000245283 1.58639e-06
0.026371 -0.000257131 2.09115e-06
0.0266357 -0.000220165 1.6002e-06
0.0267811 -0.000173665 1.01719e-06
0.0268606 -0.00013159 5.853e-07
0.0269038 -9.75944e-05 3.14155e-07
0.0269272 -7.15234e-05 1.5817e-07
0.0269399 -5.20629e-05 7.35326e-08
0.0269466 -3.77502e-05 2.98432e-08
0.0269502 -2.7311e-05 8.51505e-09
0.0269522 -1.97331e-05 -1.08144e-09
0.0269531 -1.4247e-05 -4.77206e-09
0.0269537 -1.02816e-05 -5.64664e-09
0.0269539 -7.41786e-06 -5.29282e-09
0.026954 -5.35076e-06 -4.49564e-09
0.0269541 -3.85916e-06 -3.62185e-09
0.0269541 -2.78304e-06 -2.82629e-09
0.0269541 -2.00677e-06 -2.16054e-09
0.0269541 -1.44686e-06 -1.62891e-09
0.0269541 -1.04305e-06 -1.21644e-09
0.0269541 -7.51844e-07 -9.02514e-10
0.0269541 -5.41867e-07 -6.66847e-10
0.0269541 -3.90473e-07 -4.91944e-10
0.0269541 -2.81328e-07 -3.63786e-10
0.0269541 -2.02647e-07 -2.7184e-10
0.0269541 -1.4593e-07 -2.08914e-10
0.0269541 -1.05043e-07 -1.7111e-10
0.0269541 -7.55557e-08 -1.57944e-10
0.0269541 -5.42632e-08 -1.72285e-10
0.0269541 -3.88295e-08 -2.18427e-10
0.0269541 -2.7527e-08 -2.92777e-10
0.0269541 -1.90477e-08 -3.67174e-10
0.0269541 -1.23973e-08 -6.62608e-10
0.0269541 -6.93828e-09 -4.46123e-09
0.026954 -2.20944e-09 -2.00195e-08
0.026954 3.49605e-11 -3.20431e-08
0.0196 -1.891e-08 -2.0208e-08
0.0196 -0.00213477 -0.00656542
0.0202895 -0.00425844 -0.0116061
0.0201581 -0.00355918 -0.00732091
0.0173007 -0.000468569 -0.00332239
0.0130852 0.00535997 -0.0015757
0.00807182 0.00439305 -0.000675977
1.45454e-06 -1.23693e-06 -0.000142473
4.28613e-07 -4.28613e-07 -8.69828e-10
-7.79091e-07 8.37542e-07 5.94634e-07
0.0050188 0.000644905 2.49389e-05
0.0129236 -0.000369301 -1.39335e-05
0.0196188 -0.00214113 -6.57361e-05
0.0233331 -0.00199359 -3.75559e-05
0.0251787 -0.00146413 -1.2435e-05
0.0260882 -0.000993509 -2.36614e-06
0.0265383 -0.000655633 3.56005e-07
0.0267609 -0.000430102 6.98909e-07
0.0268699 -0.000283313 4.99605e-07
0.0269221 -0.000188273 2.77504e-07
0.0269462 -0.000126467 1.3043e-07
0.0269563 -8.58986e-05 4.91278e-08
0.0269599 -5.89606e-05 9.19899e-09
0.0269605 -4.08534e-05 -8.0012e-09
0.0269599 -2.85373e-05 -1.37693e-08
0.0269589 -2.00693e-05 -1.42702e-08
0.0269578 -1.4192e-05 -1.26479e-08
0.0269569 -1.008e-05 -1.04086e-08
0.0269562 -7.18426e-06 -8.21653e-09
0.0269556 -5.13412e-06 -6.32239e-09
0.0269551 -3.67655e-06 -4.78479e-09
0.0269548 -2.63688e-06 -3.58083e-09
0.0269545 -1.89341e-06 -2.65918e-09
0.0269543 -1.36073e-06 -1.96407e-09
0.0269542 -9.78505e-07 -1.44517e-09
0.0269541 -7.03949e-07 -1.06067e-09
0.026954 -5.06571e-07 -7.77459e-10
0.026954 -3.6459e-07 -5.70099e-10
0.0269539 -2.62412e-07 -4.19596e-10
0.0269539 -1.88848e-07 -3.12272e-10
0.0269539 -1.35859e-07 -2.38944e-10
0.0269539 -9.76575e-08 -1.94481e-10
0.0269538 -7.00633e-08 -1.77644e-10
0.0269538 -5.00383e-08 -1.90817e-10
0.0269538 -3.53426e-08 -2.38004e-10
0.0269538 -2.42723e-08 -3.15261e-10
0.0269538 -1.54515e-08 -3.93445e-10
0.0269538 -7.69371e-09 -6.92812e-10
0.0269538 -5.25888e-11 -4.50836e-09
0.0269538 7.77286e-09 -2.01289e-08
0.0269538 1.17098e-08 -3.21999e-08
0.018 -1.22887e-08 -2.51175e-08
0.018 0.000144699 -0.00619689
0.0199652 0.000442595 -0.0108207
0.0215966 0.001121 -0.00674822
0.0213145 0.00317006 -0.00310227
0.0208421 0.00811416 -0.00148831
0.0213934 0.0140314 -0.000765809
0.0134719 0.00826421 -0.000335648
1.48802e-06 -9.85837e-07 -8.02432e-05
-6.58354e-07 -1.07185e-06 1.11547e-08
1.0258e-07 -0.00461065 0.0001532
0.0124633 -0.00996656 0.000109501
0.0211904 -0.00865576 -8.88063e-05
0.0249265 -0.00511858 -6.3865e-05
0.0262788 -0.00283637 -2.48291e-05
0.0267686 -0.00160242 -7.86068e-06
0.0269452 -0.000929146 -2.27832e-06
0.0270019 -0.000551549 -6.3792e-07
0.0270125 -0.000334848 -1.92487e-07
0.0270065 -0.000207834 -8.00345e-08
0.0269958 -0.000131801 -5.13623e-08
0.026985 -8.53015e-05 -4.06488e-08
0.0269757 -5.62476e-05 -3.30065e-08
0.0269683 -3.77106e-05 -2.61319e-08
0.0269626 -2.5648e-05 -2.01198e-08
0.0269582 -1.76557e-05 -1.51709e-08
0.026955 -1.22752e-05 -1.12807e-08
0.0269526 -8.60297e-06 -8.31407e-09
0.0269509 -6.06778e-06 -6.09429e-09
0.0269496 -4.30103e-06 -4.45261e-09
0.0269487 -3.06047e-06 -3.24695e-09
0.026948 -2.18416e-06 -2.3652e-09
0.0269475 -1.56226e-06 -1.7219e-09
0.0269472 -1.11931e-06 -1.25326e-09
0.0269469 -8.02951e-07 -9.12191e-10
0.0269467 -5.76526e-07 -6.64215e-10
0.0269466 -4.14213e-07 -4.84232e-10
0.0269465 -2.97719e-07 -3.54122e-10
0.0269464 -2.14031e-07 -2.61007e-10
0.0269464 -1.5386e-07 -1.96096e-10
0.0269463 -1.10553e-07 -1.53994e-10
0.0269463 -7.93342e-08 -1.32446e-10
0.0269463 -5.67507e-08 -1.32394e-10
0.0269463 -4.02845e-08 -1.5798e-10
0.0269463 -2.80563e-08 -2.15042e-10
0.0269463 -1.85914e-08 -3.02548e-10
0.0269463 -1.05982e-08 -3.96605e-10
0.0269463 -2.72287e-09 -7.28735e-10
0.0269463 6.53758e-09 -4.64696e-09
0.0269463 1.7583e-08 -2.06071e-08
0.0269463 2.34576e-08 -3.29376e-08
0.0148 -1.05501e-08 -2.62683e-08
0.0148 0.00138332 -0.00551341
0.0186925 0.00278053 -0.00943091
0.0222489 0.00306155 -0.00575193
0.0242825 0.00448639 -0.00272415
0.0259429 0.00738394 -0.00140875
0.029011 0.0128456 -0.000806438
0.0332062 0.0218476 -0.000392745
0.0282052 0.0135638 3.86157e-05
0.0298985 1.53671e-14 0.000374729
0.0335151 -0.0118528 0.00047695
0.0330534 -0.0215816 0.000221483
0.0305268 -0.0145769 -7.52209e-05
0.0289358 -0.00705912 -7.43607e-05
0.02808 -0.00329498 -3.23238e-05
0.0275924 -0.00165518 -1.13023e-05
0.0272984 -0.000887104 -3.65895e-06
0.0271154 -0.000496774 -1.1239e-06
0.0269993 -0.000287631 -3.11143e-07
0.0269244 -0.000171415 -5.82738e-08
0.0268754 -0.000104904 1.50341e-08
0.0268429 -6.58103e-05 3.16201e-08
0.026821 -4.22383e-05 3.10557e-08
0.0268061 -2.76724e-05 2.60415e-08
0.0267958 -1.84595e-05 2.05694e-08
0.0267886 -1.25051e-05 1.57905e-08
0.0267836 -8.581e-06 1.19307e-08
0.0267801 -5.95044e-06 8.92475e-09
0.0267776 -4.16121e-06 6.63091e-09
0.0267758 -2.92942e-06 4.90264e-09
0.0267745 -2.073e-06 3.61179e-09
0.0267736 -1.47285e-06 2.65362e-09
0.0267729 -1.04965e-06 1.94564e-09
0.0267725 -7.49785e-07 1.42427e-09
0.0267721 -5.36509e-07 1.04125e-09
0.0267719 -3.84386e-07 7.6028e-10
0.0267717 -2.75645e-07 5.54231e-10
0.0267716 -1.97784e-07 4.02837e-10
0.0267715 -1.4196e-07 2.90856e-10
0.0267714 -1.01888e-07 2.0655e-10
0.0267714 -7.30805e-08 1.40392e-10
0.0267713 -5.23214e-08 8.38651e-11
0.0267713 -3.72858e-08 2.83241e-11
0.0267713 -2.62691e-08 -3.59178e-11
0.0267713 -1.79796e-08 -1.19203e-10
0.0267713 -1.1363e-08 -2.26448e-10
0.0267713 -5.3994e-09 -3.46914e-10
0.0267713 1.30344e-09 -7.41853e-10
0.0267713 1.12806e-08 -4.86156e-09
0.0267713 2.62709e-08 -2.16334e-08
0.0267713 3.50355e-08 -3.46196e-08
0.01 -1.66314e-08 -2.99023e-08
0.01 0.00119993 -0.00447595
0.0156258 0.00233093 -0.00736661
0.0203695 0.00233426 -0.00428053
0.0238879 0.00312408 -0.00209232
0.0276976 0.00529231 -0.00115862
0.0328257 0.0077877 -0.00081642
0.0414455 0.00956409 -0.000506219