# vtk DataFile Version 2.0
Tobias Weinzierl: CPU, Manycore and Cluster Computing
ASCII

DATASET STRUCTURED_POINTS
DIMENSIONS  51 11 6

ORIGIN 0 0 0 

SPACING 0.1 0.1 0.1 

POINT_DATA 3366

VECTORS velocity float
0 0 0
-7.95779e-16 0 0
-1.41802e-08 0 0
-2.02814e-08 0 0
-2.07104e-08 0 0
-1.77562e-08 0 0
-2.19201e-08 0 0
-2.24413e-08 0 0
-2.12357e-08 0 0
-1.97877e-08 0 0
-1.91476e-08 0 0
-1.91074e-08 0 0
-1.93559e-08 0 0
-1.97093e-08 0 0
-2.0074e-08 0 0
-2.04029e-08 0 0
-2.06775e-08 0 0
-2.08961e-08 0 0
-2.1065e-08 0 0
-2.1193e-08 0 0
-2.12889e-08 0 0
-2.13602e-08 0 0
-2.14131e-08 0 0
-2.14522e-08 0 0
-2.14811e-08 0 0
-2.15024e-08 0 0
-2.15182e-08 0 0
-2.15298e-08 0 0
-2.15385e-08 0 0
-2.15448e-08 0 0
-2.15495e-08 0 0
-2.1553e-08 0 0
-2.15556e-08 0 0
-2.15575e-08 0 0
-2.15589e-08 0 0
-2.15599e-08 0 0
-2.15607e-08 0 0
-2.15613e-08 0 0
-2.15617e-08 0 0
-2.1562e-08 0 0
-2.15622e-08 0 0
-2.15624e-08 0 0
-2.15625e-08 0 0
-2.15626e-08 0 0
-2.15627e-08 0 0
-2.15627e-08 0 0
-2.15628e-08 0 0
-2.15628e-08 0 0
-2.15628e-08 0 0
-2.15629e-08 0 0
0.00561504 0 0
0 7.72148e-09 0
3.80615e-15 1.00106e-08 0
-2.46755e-08 1.58177e-08 0
-2.98974e-08 7.10357e-09 0
-2.71795e-08 -8.26016e-10 0
-1.49973e-08 1.88478e-09 0
-2.4773e-08 4.2327e-09 0
-2.46113e-08 -1.14774e-09 0
-2.20422e-08 -2.78513e-09 0
-2.01895e-08 -1.957e-09 0
-2.09158e-08 -5.0442e-10 0
-2.25526e-08 3.40238e-10 0
-2.41036e-08 6.81191e-10 0
-2.54045e-08 7.60728e-10 0
-2.64512e-08 7.15361e-10 0
-2.7264e-08 6.14652e-10 0
-2.78775e-08 4.99359e-10 0
-2.83317e-08 3.91237e-10 0
-2.86645e-08 2.9939e-10 0
-2.8907e-08 2.25684e-10 0
-2.90836e-08 1.68543e-10 0
-2.92122e-08 1.25173e-10 0
-2.93061e-08 9.26759e-11 0
-2.93749e-08 6.85086e-11 0
-2.94253e-08 5.0611e-11 0
-2.94624e-08 3.73843e-11 0
-2.94897e-08 2.76179e-11 0
-2.95098e-08 2.04077e-11 0
-2.95247e-08 1.50836e-11 0
-2.95357e-08 1.1151e-11 0
-2.95439e-08 8.245e-12 0
-2.95499e-08 6.09702e-12 0
-2.95544e-08 4.50888e-12 0
-2.95577e-08 3.33443e-12 0
-2.95601e-08 2.4658e-12 0
-2.95619e-08 1.82329e-12 0
-2.95633e-08 1.348e-12 0
-2.95643e-08 9.96406e-13 0
-2.9565e-08 7.36281e-13 0
-2.95655e-08 5.43795e-13 0
-2.95659e-08 4.01311e-13 0
-2.95662e-08 2.95771e-13 0
-2.95665e-08 2.17518e-13 0
-2.95666e-08 1.59418e-13 0
-2.95667e-08 1.1626e-13 0
-2.95668e-08 8.44162e-14 0
-2.95669e-08 6.20996e-14 0
-2.95669e-08 5.09104e-14 0
-2.9567e-08 6.1016e-14 0
-2.95671e-08 1.21855e-13 0
0.0118934 -2.33591e-08 0
0 -4.00779e-10 0
6.58105e-14 1.25577e-08 0
-2.41205e-08 1.96021e-08 0
-1.92596e-08 7.96278e-09 0
-1.5449e-08 -8.33756e-09 0
-2.09134e-08 9.97927e-11 0
-2.02942e-08 8.52071e-09 0
-2.25895e-08 -3.78532e-09 0
1.52243e-10 -4.37874e-09 0
2.11561e-10 -2.61235e-10 0
-3.02274e-09 3.09321e-09 0
-6.66426e-09 3.63967e-09 0
-9.24332e-09 3.09756e-09 0
-1.10168e-08 2.47014e-09 0
-1.22583e-08 1.91703e-09 0
-1.31193e-08 1.45242e-09 0
-1.37107e-08 1.07976e-09 0
-1.41163e-08 7.92942e-10 0
-1.43962e-08 5.78536e-10 0
-1.45915e-08 4.21093e-10 0
-1.47293e-08 3.06556e-10 0
-1.48276e-08 2.2354e-10 0
-1.48984e-08 1.63379e-10 0
-1.49499e-08 1.19704e-10 0
-1.49875e-08 8.7908e-11 0
-1.50151e-08 6.469e-11 0
-1.50355e-08 4.76857e-11 0
-1.50505e-08 3.51993e-11 0
-1.50616e-08 2.601e-11 0
-1.50699e-08 1.9235e-11 0
-1.5076e-08 1.42328e-11 0
-1.50805e-08 1.05355e-11 0
-1.50839e-08 7.8006e-12 0
-1.50864e-08 5.77639e-12 0
-1.50883e-08 4.27761e-12 0
-1.50896e-08 3.16757e-12 0
-1.50907e-08 2.34531e-12 0
-1.50914e-08 1.73614e-12 0
-1.5092e-08 1.28479e-12 0
-1.50924e-08 9.50317e-13 0
-1.50927e-08 7.02389e-13 0
-1.50929e-08 5.18539e-13 0
-1.50931e-08 3.82151e-13 0
-1.50932e-08 2.80993e-13 0
-1.50933e-08 2.06183e-13 0
-1.50934e-08 1.51406e-13 0
-1.50934e-08 1.12109e-13 0
-1.50935e-08 8.57319e-14 0
-1.50935e-08 7.41031e-14 0
-1.50935e-08 8.03324e-14 0
0.012577 -1.70501e-08 0
0 -9.6111e-09 0
1.89889e-13 1.08364e-08 0
-2.98127e-08 1.73281e-08 0
-1.65981e-08 1.02965e-08 0
-1.16162e-08 1.03777e-08 0
-2.36723e-08 6.57287e-09 0
-1.74414e-08 4.68563e-14 0
-2.04195e-08 -2.54904e-08 0
-2.49546e-08 -2.6187e-08 0
-1.08227e-08 2.8748e-09 0
-8.46079e-09 7.7435e-09 0
-9.22751e-09 7.29881e-09 0
-1.05102e-08 5.39645e-09 0
-1.15998e-08 3.93788e-09 0
-1.23983e-08 2.88212e-09 0
-1.29391e-08 2.0884e-09 0
-1.32979e-08 1.50112e-09 0
-1.35388e-08 1.07624e-09 0
-1.37047e-08 7.72885e-10 0
-1.3822e-08 5.57195e-10 0
-1.39068e-08 4.03587e-10 0
-1.39689e-08 2.93687e-10 0
-1.40149e-08 2.14609e-10 0
-1.40491e-08 1.57379e-10 0
-1.40747e-08 1.15742e-10 0
-1.40937e-08 8.53138e-11 0
-1.4108e-08 6.29937e-11 0
-1.41187e-08 4.6573e-11 0
-1.41266e-08 3.44649e-11 0
-1.41325e-08 2.55213e-11 0
-1.41369e-08 1.89067e-11 0
-1.41402e-08 1.40103e-11 0
-1.41427e-08 1.03834e-11 0
-1.41445e-08 7.69566e-12 0
-1.41459e-08 5.70344e-12 0
-1.41469e-08 4.22652e-12 0
-1.41476e-08 3.13151e-12 0
-1.41482e-08 2.31962e-12 0
-1.41486e-08 1.7176e-12 0
-1.41489e-08 1.27115e-12 0
-1.41491e-08 9.3997e-13 0
-1.41493e-08 6.94155e-13 0
-1.41494e-08 5.11521e-13 0
-1.41495e-08 3.75604e-13 0
-1.41496e-08 2.74194e-13 0
-1.41496e-08 1.98394e-13 0
-1.41496e-08 1.42398e-13 0
-1.41497e-08 1.02861e-13 0
-1.41497e-08 7.73459e-14 0
-1.41497e-08 6.17998e-14 0
0.0125976 -1.08452e-08 0
0 -1.61439e-08 0
2.90612e-13 5.88255e-09 0
-3.67958e-08 8.03712e-09 0
-2.05844e-08 5.97876e-09 0
-9.41114e-09 8.96471e-09 0
-3.76673e-14 5.14051e-09 0
-1.03403e-12 -9.86408e-13 0
8.62293e-13 -1.05801e-12 0
-2.59134e-08 -1.58951e-08 0
-2.74176e-08 -1.66961e-08 0
-1.54351e-08 2.28537e-09 0
-1.38587e-08 6.3133e-09 0
-1.35636e-08 5.80288e-09 0
-1.3675e-08 4.49374e-09 0
-1.37878e-08 3.29329e-09 0
-1.38512e-08 2.35102e-09 0
-1.38917e-08 1.66846e-09 0
-1.39255e-08 1.18906e-09 0
-1.3957e-08 8.53909e-10 0
-1.39863e-08 6.18024e-10 0
-1.40125e-08 4.50311e-10 0
-1.40351e-08 3.29856e-10 0
-1.40539e-08 2.42591e-10 0
-1.40691e-08 1.78933e-10 0
-1.40811e-08 1.32254e-10 0
-1.40905e-08 9.78917e-11 0
-1.40978e-08 7.25275e-11 0
-1.41033e-08 5.37687e-11 0
-1.41075e-08 3.98767e-11 0
-1.41107e-08 2.95798e-11 0
-1.41131e-08 2.19434e-11 0
-1.41149e-08 1.62781e-11 0
-1.41162e-08 1.20745e-11 0
-1.41172e-08 8.95521e-12 0
-1.4118e-08 6.64063e-12 0
-1.41185e-08 4.92326e-12 0
-1.41189e-08 3.64911e-12 0
-1.41192e-08 2.70388e-12 0
-1.41195e-08 2.00266e-12 0
-1.41196e-08 1.48243e-12 0
-1.41197e-08 1.09633e-12 0
-1.41198e-08 8.09598e-13 0
-1.41199e-08 5.9636e-13 0
-1.412e-08 4.37414e-13 0
-1.412e-08 3.18552e-13 0
-1.412e-08 2.29366e-13 0
-1.412e-08 1.62243e-13 0
-1.412e-08 1.11704e-13 0
-1.412e-08 7.33964e-14 0
-1.41201e-08 4.25323e-14 0
0.012598 -5.30579e-09 0
0 -1.33197e-08 0
3.87018e-13 2.64912e-09 0
-4.21447e-08 4.37755e-09 0
-2.74875e-08 1.83667e-09 0
-1.64224e-08 -3.60555e-11 0
-8.09168e-09 -1.44286e-10 0
-1.02006e-12 9.4786e-13 0
-8.55693e-14 8.55693e-14 0
8.32835e-13 -8.91752e-13 0
-1.59815e-08 -8.79184e-09 0
-1.70469e-08 -6.06289e-09 0
-1.78481e-08 5.73871e-09 0
-1.69224e-08 5.46661e-09 0
-1.5936e-08 4.24972e-09 0
-1.51916e-08 3.05949e-09 0
-1.47211e-08 2.16721e-09 0
-1.44478e-08 1.54977e-09 0
-1.42947e-08 1.12253e-09 0
-1.42106e-08 8.21469e-10 0
-1.41651e-08 6.05442e-10 0
-1.4141e-08 4.48254e-10 0
-1.41286e-08 3.32767e-10 0
-1.41224e-08 2.4739e-10 0
-1.41196e-08 1.84037e-10 0
-1.41184e-08 1.36931e-10 0
-1.41181e-08 1.01871e-10 0
-1.41181e-08 7.57688e-11 0
-1.41183e-08 5.63358e-11 0
-1.41185e-08 4.1872e-11 0
-1.41187e-08 3.11104e-11 0
-1.41189e-08 2.31065e-11 0
-1.4119e-08 1.7156e-11 0
-1.41191e-08 1.27337e-11 0
-1.41192e-08 9.44844e-12 0
-1.41193e-08 7.0086e-12 0
-1.41194e-08 5.19719e-12 0
-1.41194e-08 3.85269e-12 0
-1.41194e-08 2.85497e-12 0
-1.41194e-08 2.11465e-12 0
-1.41195e-08 1.56531e-12 0
-1.41195e-08 1.15756e-12 0
-1.41195e-08 8.54681e-13 0
-1.41195e-08 6.29339e-13 0
-1.41195e-08 4.61196e-13 0
-1.41195e-08 3.35082e-13 0
-1.41195e-08 2.39658e-13 0
-1.41195e-08 1.66409e-13 0
-1.41195e-08 1.08882e-13 0
-1.41195e-08 6.18206e-14 0
-1.41195e-08 2.07177e-14 0
0.012598 2.93213e-11 0
0 -8.53105e-09 0
4.27549e-13 -7.4343e-10 0
-4.20239e-08 -4.67799e-10 0
-2.74727e-08 -3.54498e-10 0
-1.96028e-08 -9.70857e-10 0
-1.50119e-08 -8.16121e-09 0
-1.22412e-08 -7.82047e-09 0
-1.03598e-12 8.59747e-13 0
-2.69134e-14 2.69134e-14 0
8.58254e-13 -8.07417e-13 0
-8.81807e-09 3.95418e-09 0
-2.53247e-08 6.45997e-09 0
-2.12748e-08 4.18443e-09 0
-1.77146e-08 2.86515e-09 0
-1.60216e-08 2.07845e-09 0
-1.51994e-08 1.57781e-09 0
-1.47703e-08 1.21359e-09 0
-1.45317e-08 9.31849e-10 0
-1.43916e-08 7.12142e-10 0
-1.4305e-08 5.41633e-10 0
-1.42493e-08 4.10175e-10 0
-1.4212e-08 3.09461e-10 0
-1.41864e-08 2.32734e-10 0
-1.41684e-08 1.74565e-10 0
-1.41555e-08 1.30647e-10 0
-1.41462e-08 9.76008e-11 0
-1.41394e-08 7.28058e-11 0
-1.41344e-08 5.42441e-11 0
-1.41307e-08 4.03745e-11 0
-1.4128e-08 3.00265e-11 0
-1.4126e-08 2.23153e-11 0
-1.41245e-08 1.65748e-11 0
-1.41233e-08 1.23048e-11 0
-1.41225e-08 9.13084e-12 0
-1.41219e-08 6.77286e-12 0
-1.41214e-08 5.02193e-12 0
-1.41211e-08 3.72227e-12 0
-1.41208e-08 2.75785e-12 0
-1.41206e-08 2.04232e-12 0
-1.41205e-08 1.51145e-12 0
-1.41204e-08 1.11746e-12 0
-1.41203e-08 8.24824e-13 0
-1.41203e-08 6.07067e-13 0
-1.41202e-08 4.44427e-13 0
-1.41202e-08 3.22055e-13 0
-1.41202e-08 2.28669e-13 0
-1.41202e-08 1.55568e-13 0
-1.41201e-08 9.59498e-14 0
-1.41201e-08 4.43375e-14 0
-1.41201e-08 -3.11174e-15 0
0.012598 5.36098e-09 0
0 -5.60143e-09 0
3.41704e-13 -3.86851e-09 0
-3.82581e-08 -4.90908e-09 0
-2.61297e-08 -1.89772e-09 0
-1.98223e-08 -3.06956e-09 0
-1.69977e-08 -4.12545e-09 0
-1.98039e-08 -1.39378e-08 0
-1.50907e-08 -1.20248e-08 0
-1.03289e-12 6.86609e-13 0
9.4929e-13 6.06002e-13 0
6.63908e-14 1.90148e-08 0
-3.57894e-08 1.84406e-08 0
-2.49487e-08 -1.4022e-09 0
-1.79448e-08 -6.41232e-10 0
-1.58473e-08 6.45113e-10 0
-1.51516e-08 9.25225e-10 0
-1.48362e-08 8.71091e-10 0
-1.46508e-08 7.3314e-10 0
-1.45245e-08 5.88002e-10 0
-1.44324e-08 4.59559e-10 0
-1.43633e-08 3.53589e-10 0
-1.4311e-08 2.69285e-10 0
-1.42713e-08 2.03646e-10 0
-1.42412e-08 1.53241e-10 0
-1.42184e-08 1.14895e-10 0
-1.42012e-08 8.59126e-11 0
-1.41882e-08 6.41111e-11 0
-1.41785e-08 4.77677e-11 0
-1.41712e-08 3.55474e-11 0
-1.41658e-08 2.64281e-11 0
-1.41617e-08 1.9633e-11 0
-1.41586e-08 1.45757e-11 0
-1.41564e-08 1.08154e-11 0
-1.41547e-08 8.02147e-12 0
-1.41534e-08 5.94687e-12 0
-1.41525e-08 4.40716e-12 0
-1.41518e-08 3.2649e-12 0
-1.41513e-08 2.41773e-12 0
-1.41509e-08 1.78955e-12 0
-1.41506e-08 1.32373e-12 0
-1.41504e-08 9.78207e-13 0
-1.41502e-08 7.2168e-13 0
-1.41501e-08 5.30836e-13 0
-1.415e-08 3.88228e-13 0
-1.415e-08 2.8066e-13 0
-1.41499e-08 1.97906e-13 0
-1.41499e-08 1.3173e-13 0
-1.41499e-08 7.52845e-14 0
-1.41498e-08 2.29401e-14 0
-1.41498e-08 -2.84634e-14 0
0.0125976 1.08891e-08 0
0 -5.61206e-09 0
2.02723e-13 -5.92417e-09 0
-3.19884e-08 -7.78449e-09 0
-2.41209e-08 -2.47992e-09 0
-1.97521e-08 -1.18922e-09 0
-2.02006e-08 -4.23346e-09 0
-2.25648e-08 -8.05394e-09 0
-3.35569e-08 -1.93358e-08 0
-3.19373e-08 -1.49456e-08 0
-1.98748e-08 -7.89082e-19 0
-9.91739e-09 3.80446e-08 0
-3.13156e-09 3.03451e-08 0
-1.03889e-08 -1.25386e-08 0
-1.41151e-08 -5.57308e-09 0
-1.53527e-08 -4.85935e-10 0
-1.56931e-08 6.31551e-10 0
-1.57265e-08 7.28459e-10 0
-1.56581e-08 6.2306e-10 0
-1.5563e-08 4.94071e-10 0
-1.54697e-08 3.8056e-10 0
-1.53882e-08 2.88998e-10 0
-1.53211e-08 2.17702e-10 0
-1.52674e-08 1.63173e-10 0
-1.52255e-08 1.21899e-10 0
-1.51931e-08 9.08587e-11 0
-1.51684e-08 6.76145e-11 0
-1.51497e-08 5.02582e-11 0
-1.51355e-08 3.73243e-11 0
-1.51249e-08 2.77e-11 0
-1.51169e-08 2.0546e-11 0
-1.5111e-08 1.52326e-11 0
-1.51065e-08 1.12889e-11 0
-1.51032e-08 8.36328e-12 0
-1.51008e-08 6.19394e-12 0
-1.50989e-08 4.58597e-12 0
-1.50976e-08 3.39447e-12 0
-1.50965e-08 2.51181e-12 0
-1.50958e-08 1.85806e-12 0
-1.50952e-08 1.37389e-12 0
-1.50948e-08 1.0153e-12 0
-1.50945e-08 7.49613e-13 0
-1.50943e-08 5.52574e-13 0
-1.50941e-08 4.06124e-13 0
-1.5094e-08 2.96751e-13 0
-1.50939e-08 2.14183e-13 0
-1.50938e-08 1.50304e-13 0
-1.50938e-08 9.80888e-14 0
-1.50938e-08 5.06514e-14 0
-1.50937e-08 7.92165e-16 0
-1.50938e-08 -5.64999e-14 0
0.012577 1.70698e-08 0
0 -7.60282e-09 0
9.99431e-14 -5.5997e-09 0
-3.01028e-08 -7.17404e-09 0
-3.05213e-08 -1.96992e-09 0
-2.96802e-08 3.13155e-10 0
-2.92707e-08 3.22216e-09 0
-3.12688e-08 2.63199e-09 0
-3.33521e-08 -1.82695e-09 0
-4.78322e-08 -1.6504e-08 0
-5.08212e-08 -2.76712e-08 0
-5.47142e-08 -3.46532e-09 0
-1.88038e-08 1.68467e-08 0
-2.66167e-08 1.06158e-08 0
-3.11988e-08 5.04402e-09 0
-3.17769e-08 2.49092e-09 0
-3.14642e-08 1.3823e-09 0
-3.10583e-08 8.59233e-10 0
-3.07076e-08 5.74711e-10 0
-3.04293e-08 3.99813e-10 0
-3.02147e-08 2.83926e-10 0
-3.00517e-08 2.04002e-10 0
-2.99287e-08 1.47677e-10 0
-2.98364e-08 1.07467e-10 0
-2.97674e-08 7.85124e-11 0
-2.97159e-08 5.75286e-11 0
-2.96776e-08 4.22473e-11 0
-2.96491e-08 3.1077e-11 0
-2.96279e-08 2.28883e-11 0
-2.96121e-08 1.68723e-11 0
-2.96005e-08 1.24453e-11 0
-2.95918e-08 9.18382e-12 0
-2.95854e-08 6.77889e-12 0
-2.95806e-08 5.00454e-12 0
-2.95771e-08 3.69489e-12 0
-2.95745e-08 2.72799e-12 0
-2.95726e-08 2.01402e-12 0
-2.95711e-08 1.48675e-12 0
-2.95701e-08 1.09734e-12 0
-2.95693e-08 8.09698e-13 0
-2.95687e-08 5.97188e-13 0
-2.95683e-08 4.40114e-13 0
-2.9568e-08 3.23898e-13 0
-2.95678e-08 2.37731e-13 0
-2.95676e-08 1.7354e-13 0
-2.95675e-08 1.25209e-13 0
-2.95674e-08 8.78786e-14 0
-2.95673e-08 5.70716e-14 0
-2.95673e-08 2.69818e-14 0
-2.95673e-08 -1.5736e-14 0
-2.95673e-08 -1.07058e-13 0
0.0118935 2.33274e-08 0
0 0 0
3.64607e-14 0 0
-1.5885e-08 0 0
-1.8915e-08 0 0
-1.9795e-08 0 0
-1.91476e-08 0 0
-1.62667e-08 0 0
-1.48858e-08 0 0
-1.5895e-08 0 0
-3.09463e-08 0 0
-4.47968e-08 0 0
-3.61348e-08 0 0
-2.9275e-08 0 0
-2.58531e-08 0 0
-2.41709e-08 0 0
-2.32741e-08 0 0
-2.2741e-08 0 0
-2.2396e-08 0 0
-2.21608e-08 0 0
-2.19959e-08 0 0
-2.18782e-08 0 0
-2.17934e-08 0 0
-2.17319e-08 0 0
-2.16871e-08 0 0
-2.16543e-08 0 0
-2.16302e-08 0 0
-2.16125e-08 0 0
-2.15995e-08 0 0
-2.15899e-08 0 0
-2.15828e-08 0 0
-2.15776e-08 0 0
-2.15738e-08 0 0
-2.15709e-08 0 0
-2.15688e-08 0 0
-2.15673e-08 0 0
-2.15661e-08 0 0
-2.15653e-08 0 0
-2.15646e-08 0 0
-2.15642e-08 0 0
-2.15638e-08 0 0
-2.15636e-08 0 0
-2.15634e-08 0 0
-2.15633e-08 0 0
-2.15632e-08 0 0
-2.15631e-08 0 0
-2.1563e-08 0 0
-2.1563e-08 0 0
-2.1563e-08 0 0
-2.1563e-08 0 0
-2.1563e-08 0 0
0.00561506 0 0
0 0 5.81765e-09
3.2342e-14 0 4.16964e-09
-2.62001e-08 0 4.4637e-09
-3.08399e-08 0 -5.73433e-10
-2.57272e-08 0 -1.69912e-09
-1.35645e-08 0 -6.75067e-10
-1.97248e-08 0 4.52332e-10
-1.99899e-08 0 4.63356e-10
-1.89924e-08 0 1.3156e-10
-1.85626e-08 0 -1.31124e-10
-1.97436e-08 0 -1.75891e-10
-2.1581e-08 0 -1.31925e-10
-2.3385e-08 0 -7.92953e-11
-2.49107e-08 0 -4.25705e-11
-2.61228e-08 0 -2.17355e-11
-2.70493e-08 0 -1.12079e-11
-2.77389e-08 0 -6.17234e-12
-2.82434e-08 0 -3.74719e-12
-2.86087e-08 0 -2.49232e-12
-2.8872e-08 0 -1.76263e-12
-2.90616e-08 0 -1.28661e-12
-2.91984e-08 0 -9.50934e-13
-2.92975e-08 0 -7.04847e-13
-2.93694e-08 0 -5.21878e-13
-2.94218e-08 0 -3.85527e-13
-2.94602e-08 0 -2.84143e-13
-2.94884e-08 0 -2.09009e-13
-2.95091e-08 0 -1.53506e-13
-2.95243e-08 0 -1.12611e-13
-2.95356e-08 0 -8.25394e-14
-2.95439e-08 0 -6.0459e-14
-2.95501e-08 0 -4.42648e-14
-2.95547e-08 0 -3.23969e-14
-2.9558e-08 0 -2.37045e-14
-2.95605e-08 0 -1.7341e-14
-2.95624e-08 0 -1.26832e-14
-2.95638e-08 0 -9.27426e-15
-2.95648e-08 0 -6.78038e-15
-2.95655e-08 0 -4.95685e-15
-2.95661e-08 0 -3.62468e-15
-2.95665e-08 0 -2.65548e-15
-2.95668e-08 0 -1.96149e-15
-2.9567e-08 0 -1.49e-15
-2.95672e-08 0 -1.22642e-15
-2.95673e-08 0 -1.18712e-15
-2.95674e-08 0 -1.31021e-15
-2.95675e-08 0 -8.39541e-16
-2.95675e-08 0 3.63483e-15
-2.95676e-08 0 2.37019e-14
-2.95677e-08 0 9.09567e-14
0.0118934 0 -1.9767e-08
0.0036 1.14661e-08 5.97769e-09
0.00359998 -0.00524142 -0.00266646
0.0144066 -0.00968914 -0.00427192
0.0241952 -0.00868654 -0.0024902
0.033876 -0.00811873 -0.00137725
0.0444372 -0.00494296 -0.000706835
0.0460517 -0.000715086 -0.000318884
0.0455343 0.0022614 -0.000158818
0.0402137 0.00404906 -9.54326e-05
0.0352794 0.00392648 -6.60703e-05
0.0314089 0.00309039 -3.86741e-05
0.0287569 0.00215719 -2.1071e-05
0.0270921 0.00138485 -1.10555e-05
0.0261116 0.000831973 -5.64594e-06
0.0255677 0.000470057 -2.83833e-06
0.0252864 0.000248073 -1.42574e-06
0.0251545 0.000119324 -7.26787e-07
0.0251032 4.87077e-05 -3.80937e-07
0.0250924 1.24431e-05 -2.07113e-07
0.0250999 -4.49627e-06 -1.17274e-07
0.0251143 -1.11136e-05 -6.91494e-08
0.0251297 -1.25637e-05 -4.23402e-08
0.0251438 -1.16714e-05 -2.68091e-08
0.0251555 -9.91034e-06 -1.74728e-08
0.025165 -8.00088e-06 -1.16684e-08
0.0251724 -6.25953e-06 -7.95026e-09
0.025178 -4.79642e-06 -5.50583e-09
0.0251822 -3.62315e-06 -3.86281e-09
0.0251854 -2.70943e-06 -2.73788e-09
0.0251877 -2.01153e-06 -1.956e-09
0.0251895 -1.48556e-06 -1.40594e-09
0.0251907 -1.0929e-06 -1.01528e-09
0.0251917 -8.01737e-07 -7.35786e-10
0.0251923 -5.869e-07 -5.34721e-10
0.0251928 -4.28953e-07 -3.89509e-10
0.0251932 -3.13139e-07 -2.8441e-10
0.0251935 -2.28386e-07 -2.08372e-10
0.0251937 -1.66452e-07 -1.53657e-10
0.0251938 -1.21241e-07 -1.14963e-10
0.0251939 -8.82613e-08 -8.88898e-11
0.025194 -6.42145e-08 -7.36828e-11
0.025194 -4.66857e-08 -6.91418e-11
0.0251941 -3.39118e-08 -7.65436e-11
0.0251941 -2.46139e-08 -9.81487e-11
0.0251941 -1.78802e-08 -1.3569e-10
0.0251941 -1.30992e-08 -1.90396e-10
0.0251942 -9.98096e-09 -3.04485e-10
0.0251942 -9.00833e-09 -1.00593e-09
0.0251942 -1.42935e-08 -6.25574e-09
0.0251942 -3.58685e-08 -2.64854e-08
0.0251942 -5.23426e-08 -4.20845e-08
0.01 1.10578e-08 7.53968e-09
0.01 -0.00828635 -0.00475421
0.0180208 -0.0163218 -0.00735293
0.0259655 -0.0166618 -0.00385622
0.0351871 -0.0185674 -0.00189477
0.0525708 -0.0112326 -0.000804655
0.0518198 -0.0005988 -0.000245536
0.0523491 0.00610615 -0.000113825
0.0422266 0.0104003 -8.64629e-05
0.0354527 0.008886 -8.41627e-05
0.0313152 0.00656623 -5.04462e-05
0.0288665 0.00433993 -2.56221e-05
0.0275574 0.00265735 -1.27191e-05
0.0269036 0.00153051 -6.08158e-06
0.0266056 0.000828371 -2.79083e-06
0.0264911 0.000414862 -1.23891e-06
0.026465 0.000184047 -5.37379e-07
0.0264774 6.26103e-05 -2.30073e-07
0.0265034 3.50541e-06 -9.8262e-08
0.0265314 -2.17785e-05 -4.23842e-08
0.0265566 -2.97246e-05 -1.87588e-08
0.0265775 -2.94618e-05 -8.6932e-09
0.0265941 -2.5824e-05 -4.31366e-09
0.0266069 -2.12323e-05 -2.33247e-09
0.0266167 -1.68026e-05 -1.38006e-09
0.026624 -1.29735e-05 -8.83391e-10
0.0266294 -9.85172e-06 -5.99499e-10
0.0266334 -7.39482e-06 -4.22676e-10
0.0266364 -5.50502e-06 -3.04848e-10
0.0266386 -4.07381e-06 -2.22646e-10
0.0266401 -3.0016e-06 -1.6368e-10
0.0266413 -2.20452e-06 -1.20727e-10
0.0266422 -1.61528e-06 -8.92026e-11
0.0266428 -1.18145e-06 -6.60121e-11
0.0266432 -8.62993e-07 -4.89876e-11
0.0266436 -6.29749e-07 -3.65981e-11
0.0266438 -4.59193e-07 -2.77915e-11
0.026644 -3.34628e-07 -2.19201e-11
0.0266441 -2.43731e-07 -1.87332e-11
0.0266442 -1.77445e-07 -1.84382e-11
0.0266443 -1.2913e-07 -2.1836e-11
0.0266443 -9.3934e-08 -3.05064e-11
0.0266443 -6.83271e-08 -4.6928e-11
0.0266444 -4.97695e-08 -7.42218e-11
0.0266444 -3.64969e-08 -1.15257e-10
0.0266444 -2.74364e-08 -1.74877e-10
0.0266444 -2.23123e-08 -3.08581e-10
0.0266444 -2.17769e-08 -1.0878e-09
0.0266444 -2.61697e-08 -6.64775e-09
0.0266444 -3.55498e-08 -2.7114e-08
0.0266444 -4.15573e-08 -4.27013e-08
0.0148 -9.19892e-09 1.77369e-08
0.0148 -0.00907565 -0.0065029
0.019979 -0.018681 -0.0100746
0.0241509 -0.0215593 -0.00519995
0.026296 -0.0323822 -0.00243615
0.0280766 -0.0204285 -0.000858621
0.0269187 -1.55337e-07 -7.28381e-05
0.0276969 0.0121268 -3.52304e-05
0.0331667 0.0210909 -2.97426e-05
0.0297893 0.0149221 -3.74932e-05
0.0273358 0.00972177 -3.51965e-05
0.0261836 0.00593857 -2.2082e-05
0.0258441 0.00335994 -1.14334e-05
0.0258773 0.00179006 -5.17626e-06
0.0260311 0.000885757 -2.06339e-06
0.0261959 0.00039018 -7.12004e-07
0.0263335 0.000133733 -1.90447e-07
0.0264374 1.07336e-05 -1.59886e-08
0.0265121 -4.12752e-05 2.82349e-08
0.0265647 -5.7549e-05 3.01375e-08
0.0266013 -5.71805e-05 2.18993e-08
0.0266268 -5.00757e-05 1.36932e-08
0.0266446 -4.1106e-05 7.81273e-09
0.0266571 -3.24779e-05 4.12678e-09
0.0266659 -2.50418e-05 1.99344e-09
0.0266722 -1.89943e-05 8.33456e-10
0.0266767 -1.42445e-05 2.41822e-10
0.0266799 -1.05969e-05 -3.5018e-11
0.0266822 -7.83778e-06 -1.45935e-10
0.0266838 -5.77268e-06 -1.74399e-10
0.026685 -4.23856e-06 -1.65359e-10
0.0266859 -3.10504e-06 -1.4199e-10
0.0266865 -2.2708e-06 -1.15571e-10
0.026687 -1.65859e-06 -9.11117e-11
0.0266873 -1.21028e-06 -7.04513e-11
0.0266875 -8.82509e-07 -5.39425e-11
0.0266877 -6.43145e-07 -4.13383e-11
0.0266879 -4.68492e-07 -3.22666e-11
0.0266879 -3.41136e-07 -2.65057e-11
0.026688 -2.48311e-07 -2.41853e-11
0.0266881 -1.80678e-07 -2.59866e-11
0.0266881 -1.31422e-07 -3.33486e-11
0.0266881 -9.5589e-08 -4.8578e-11
0.0266881 -6.96038e-08 -7.45186e-11
0.0266882 -5.09393e-08 -1.13305e-10
0.0266882 -3.78802e-08 -1.66788e-10
0.0266882 -2.93176e-08 -2.76945e-10
0.0266882 -2.45914e-08 -9.56528e-10
0.0266882 -2.362e-08 -6.12346e-09
0.0266882 -2.58128e-08 -2.5367e-08
0.0266882 -2.75155e-08 -4.00439e-08
0.018 -2.84481e-08 1.73387e-08
0.018 -0.00783991 -0.00776199
0.0206415 -0.0161824 -0.0121007
0.0208615 -0.0170943 -0.006198
0.0159527 -0.0193202 -0.00280857
-3.05397e-09 -0.0105685 -0.000949212
1.92358e-06 8.84077e-07 1.33695e-09
-9.09281e-07 1.00133e-06 -5.86835e-06
0.0121415 0.00839824 5.92715e-07
0.0211182 0.0147718 6.84281e-06
0.0216444 0.0102053 -7.45841e-06
0.0224997 0.00585061 -1.40505e-05
0.0236667 0.00297398 -9.06431e-06
0.0246684 0.00134888 -3.82941e-06
0.0253988 0.000512425 -1.18362e-06
0.0258861 0.000113786 -1.70695e-07
0.0261949 -5.68223e-05 1.19895e-07
0.0263855 -0.000115696 1.518e-07
0.0265015 -0.000123623 1.1452e-07
0.0265719 -0.000110882 7.23633e-08
0.0266149 -9.18184e-05 4.13239e-08
0.0266413 -7.27564e-05 2.17718e-08
0.0266578 -5.61266e-05 1.04893e-08
0.0266682 -4.25535e-05 4.39056e-09
0.026675 -3.18881e-05 1.29999e-09
0.0266794 -2.37035e-05 -1.38161e-10
0.0266824 -1.75192e-05 -7.12783e-10
0.0266844 -1.28954e-05 -8.6174e-10
0.0266858 -9.46382e-06 -8.1847e-10
0.0266867 -6.93031e-06 -7.02182e-10
0.0266874 -5.06691e-06 -5.70358e-10
0.0266879 -3.70014e-06 -4.48223e-10
0.0266882 -2.69965e-06 -3.44815e-10
0.0266884 -1.96837e-06 -2.61528e-10
0.0266886 -1.43446e-06 -1.96516e-10
0.0266887 -1.04496e-06 -1.4688e-10
0.0266888 -7.60978e-07 -1.09702e-10
0.0266889 -5.54026e-07 -8.25076e-11
0.026689 -4.03251e-07 -6.34662e-11
0.026689 -2.93425e-07 -5.15145e-11
0.026689 -2.13434e-07 -4.64879e-11
0.026689 -1.55174e-07 -4.92865e-11
0.026689 -1.12749e-07 -6.19653e-11
0.0266891 -8.18715e-08 -8.73548e-11
0.0266891 -5.94397e-08 -1.27446e-10
0.0266891 -4.3216e-08 -1.82021e-10
0.0266891 -3.16046e-08 -2.82753e-10
0.0266891 -2.3489e-08 -9.12246e-10
0.0266891 -1.82367e-08 -5.90773e-09
0.0266891 -1.49901e-08 -2.47292e-08
0.0266891 -1.36979e-08 -3.91148e-08
0.0196 -2.84176e-08 6.95635e-09
0.0196 -0.00501948 -0.00841587
0.0209477 -0.0100959 -0.0131514
0.0197067 -0.00973074 -0.00667042
0.0146919 -0.00776947 -0.0028827
0.0044408 -0.00311521 -0.00119103
1.52891e-06 -1.4212e-06 -0.000243268
5.11917e-07 -5.11917e-07 -4.5843e-10
-8.75867e-07 9.42695e-07 -2.69691e-06
0.00840313 0.00544145 -9.36515e-07
0.0147816 0.00835772 -3.36941e-06
0.0184127 0.00392923 -1.12162e-05
0.0215887 0.00119923 -8.91332e-06
0.0237228 6.22503e-05 -3.72224e-06
0.0250168 -0.000329704 -1.02618e-06
0.0257619 -0.000404859 -4.98597e-08
0.0261797 -0.000365171 1.79929e-07
0.0264108 -0.000295551 1.68637e-07
0.0265377 -0.0002276 1.10254e-07
0.026607 -0.000170868 6.10829e-08
0.0266448 -0.000126528 2.96659e-08
0.0266652 -9.2984e-05 1.20687e-08
0.0266763 -6.80411e-05 3.12075e-09
0.0266823 -4.96692e-05 -9.63978e-10
0.0266855 -3.62086e-05 -2.51132e-09
0.0266872 -2.63757e-05 -2.82929e-09
0.0266882 -1.92048e-05 -2.61089e-09
0.0266886 -1.39802e-05 -2.2039e-09
0.0266889 -1.01756e-05 -1.77146e-09
0.026689 -7.40588e-06 -1.38195e-09
0.0266891 -5.3898e-06 -1.05737e-09
0.0266891 -3.92244e-06 -7.98488e-10
0.0266891 -2.85451e-06 -5.97556e-10
0.0266891 -2.07729e-06 -4.44389e-10
0.0266891 -1.51165e-06 -3.29108e-10
0.0266891 -1.1e-06 -2.432e-10
0.0266891 -8.00414e-07 -1.79799e-10
0.0266891 -5.82377e-07 -1.33637e-10
0.0266891 -4.23681e-07 -1.00914e-10
0.0266891 -3.08162e-07 -7.91847e-11
0.0266891 -2.24052e-07 -6.7351e-11
0.0266891 -1.6278e-07 -6.57272e-11
0.0266891 -1.18101e-07 -7.60509e-11
0.0266891 -8.5451e-08 -1.0095e-10
0.0266891 -6.14819e-08 -1.41919e-10
0.0266891 -4.37074e-08 -1.97138e-10
0.0266891 -3.02515e-08 -2.94607e-10
0.0266891 -1.96939e-08 -9.08716e-10
0.0266891 -1.10467e-08 -5.85931e-09
0.0266891 -3.54776e-09 -2.45842e-08
0.0266891 1.057e-11 -3.89059e-08
0.0196 -1.85342e-08 -4.46054e-09
0.0196 -0.00193313 -0.00843069
0.0212646 -0.00383406 -0.0131573
0.0209485 -0.00311586 -0.00666457
0.0179251 -0.000208386 -0.00282704
0.0136242 0.00580571 -0.00135794
0.00862856 0.00479918 -0.000594073
1.53707e-06 -1.30532e-06 -0.00012522
4.29456e-07 -4.29456e-07 -2.82197e-10
-8.48848e-07 9.02885e-07 -1.12139e-06
0.00544338 0.000205622 -1.43072e-06
0.014433 -0.000947088 -1.21457e-05
0.0205088 -0.002329 -1.82227e-05
0.0236532 -0.00207508 -8.66269e-06
0.0252114 -0.00152454 -2.93241e-06
0.0259808 -0.00104806 -8.08488e-07
0.02636 -0.000705315 -1.76506e-07
0.0265452 -0.000473473 -2.52608e-08
0.026634 -0.000319684 -2.98428e-09
0.026675 -0.000217856 -6.38016e-09
0.0266926 -0.000149995 -1.05133e-08
0.0266989 -0.000104303 -1.17508e-08
0.0267001 -7.31809e-05 -1.09622e-08
0.0266992 -5.17397e-05 -9.30079e-09
0.0266976 -3.68134e-05 -7.47436e-09
0.0266959 -2.63277e-05 -5.81299e-09
0.0266943 -1.89054e-05 -4.429e-09
0.0266931 -1.36188e-05 -3.33012e-09
0.0266921 -9.83457e-06 -2.48207e-09
0.0266913 -7.11524e-06 -1.83911e-09
0.0266907 -5.1552e-06 -1.35721e-09
0.0266903 -3.73913e-06 -9.98773e-10
0.02669 -2.71424e-06 -7.33578e-10
0.0266897 -1.97146e-06 -5.38117e-10
0.0266896 -1.43259e-06 -3.94494e-10
0.0266894 -1.04134e-06 -2.8929e-10
0.0266893 -7.57111e-07 -2.12578e-10
0.0266893 -5.50522e-07 -1.5715e-10
0.0266892 -4.00305e-07 -1.17958e-10
0.0266892 -2.91029e-07 -9.17545e-11
0.0266892 -2.11488e-07 -7.69408e-11
0.0266891 -1.53531e-07 -7.35476e-11
0.0266891 -1.1121e-07 -8.31945e-11
0.0266891 -8.01651e-08 -1.08523e-10
0.0266891 -5.71583e-08 -1.51174e-10
0.0266891 -3.97242e-08 -2.09716e-10
0.0266891 -2.58991e-08 -3.13393e-10
0.0266891 -1.40428e-08 -9.41058e-10
0.0266891 -2.85132e-09 -5.92665e-09
0.0266891 8.21666e-09 -2.47278e-08
0.0266891 1.37177e-08 -3.91002e-08
0.018 -1.26652e-08 -1.21135e-08
0.018 0.000580406 -0.00786541
0.0208886 0.00100086 -0.0122305
0.022256 0.00129957 -0.00619038
0.0217539 0.00331403 -0.00266084
0.0211942 0.00811899 -0.00126968
0.0219878 0.0144982 -0.000664841
0.0140327 0.00881412 -0.000294391
1.56868e-06 -1.04196e-06 -6.36874e-05
-7.3521e-07 -1.12144e-06 7.12194e-09
9.58671e-08 -0.0060705 2.85062e-05
0.0145882 -0.011128 1.05562e-05
0.0223129 -0.00801207 -2.89685e-05
0.0251762 -0.00463471 -1.51963e-05
0.026217 -0.00265442 -5.63194e-06
0.0266043 -0.00155207 -1.98829e-06
0.026741 -0.000928921 -7.44792e-07
0.0267789 -0.000569293 -3.13977e-07
0.026779 -0.000357212 -1.52028e-07
0.0267663 -0.000229301 -8.2922e-08
0.026751 -0.000150357 -4.90876e-08
0.0267369 -0.000100505 -3.05577e-08
0.0267252 -6.83187e-05 -1.96278e-08
0.0267159 -4.71061e-05 -1.28856e-08
0.0267088 -3.28645e-05 -8.60778e-09
0.0267034 -2.3148e-05 -5.83738e-09
0.0266994 -1.64281e-05 -4.01195e-09
0.0266964 -1.17283e-05 -2.79001e-09
0.0266942 -8.41162e-06 -1.95997e-09
0.0266926 -6.05419e-06 -1.38858e-09
0.0266914 -4.36919e-06 -9.90592e-10
0.0266905 -3.15959e-06 -7.1061e-10
0.0266899 -2.28838e-06 -5.12026e-10
0.0266894 -1.65931e-06 -3.70272e-10
0.0266891 -1.2042e-06 -2.68623e-10
0.0266888 -8.74461e-07 -1.95569e-10
0.0266887 -6.35296e-07 -1.43152e-10
0.0266885 -4.61672e-07 -1.05916e-10
0.0266884 -3.35535e-07 -8.02593e-11
0.0266884 -2.43832e-07 -6.40924e-11
0.0266883 -1.77099e-07 -5.67196e-11
0.0266883 -1.28462e-07 -5.88891e-11
0.0266883 -9.29006e-08 -7.28464e-11
0.0266882 -6.672e-08 -1.01961e-10
0.0266882 -4.71461e-08 -1.49193e-10
0.0266882 -3.20059e-08 -2.16305e-10
0.0266882 -1.94399e-08 -3.41046e-10
0.0266882 -7.6268e-09 -1.02609e-09
0.0266882 5.29583e-09 -6.17319e-09
0.0266882 1.9899e-08 -2.53649e-08
0.0266882 2.75316e-08 -4.00086e-08
0.0148 -1.15207e-08 -1.77795e-08
0.0148 0.00198037 -0.00682063
0.0195737 0.00348895 -0.0105468
0.0228413 0.00313862 -0.00534262
0.024597 0.0043617 -0.00238257
0.0263069 0.00736873 -0.00117815
0.0295412 0.0129376 -0.000635096
0.0345061 0.0224282 -0.000321734
0.0297419 0.0141277 -6.04365e-05
0.0305111 1.54474e-14 9.18257e-05
0.0328845 -0.0143838 9.0187e-05
0.0312741 -0.0232543 1.89901e-05
0.0294759 -0.0129049 -2.9069e-05
0.028449 -0.00597132 -1.60913e-05
0.0278313 -0.00294859 -6.24195e-06
0.0274358 -0.00157008 -2.31412e-06
0.027177 -0.000879065 -8.83947e-07
0.0270062 -0.000511043 -3.52382e-07
0.0268926 -0.000306845 -1.44665e-07
0.0268163 -0.000189729 -5.91561e-08
0.0267646 -0.000120516 -2.25801e-08
0.0267292 -7.84348e-05 -6.74433e-09
0.0267046 -5.2152e-05 -8.72904e-11
0.0266874 -3.53188e-05 2.42219e-09
0.0266752 -2.42887e-05 3.07513e-09
0.0266666 -1.6914e-05 2.94154e-09
0.0266604 -1.18975e-05 2.52179e-09
0.026656 -8.43544e-06 2.04317e-09
0.0266528 -6.01788e-06 1.6011e-09
0.0266505 -4.31369e-06 1.22829e-09
0.0266488 -3.10341e-06 9.29005e-10
0.0266476 -2.23889e-06 6.95781e-10
0.0266468 -1.61859e-06 5.17489e-10
0.0266461 -1.17199e-06 3.82913e-10
0.0266457 -8.49619e-07 2.82176e-10
0.0266453 -6.16454e-07 2.07121e-10
0.0266451 -4.47555e-07 1.51221e-10
0.0266449 -3.25064e-07 1.09297e-10
0.0266448 -2.36142e-07 7.7158e-11
0.0266447 -1.71527e-07 5.12059e-11
0.0266446 -1.24519e-07 2.79996e-11
0.0266446 -9.02485e-08 3.79114e-12
0.0266445 -6.51619e-08 -2.58883e-11
0.0266445 -4.663e-08 -6.63163e-11
0.0266445 -3.26561e-08 -1.23048e-10
0.0266445 -2.16238e-08 -2.03984e-10
0.0266445 -1.20168e-08 -3.65107e-10
0.0266445 -1.95185e-09 -1.16651e-09
0.0266445 1.15828e-08 -6.70479e-09
0.0266445 3.063e-08 -2.70904e-08
0.0266445 4.15674e-08 -4.2626e-08
0.01 -1.74771e-08 -2.54643e-08
0.01 0.00179218 -0.00541818
0.0169749 0.0030476 -0.00829336
0.0217368 0.00244736 -0.00419723
0.0250809 0.0029749 -0.00197459
0.0287228 0.00480989 -0.00101829
0.0338674 0.00719008 -0.000597099
0.0424609 0.00909302 -0.000336936