# vtk DataFile Version 2.0
Tobias Weinzierl: CPU, Manycore and Cluster Computing
ASCII

DATASET STRUCTURED_POINTS
DIMENSIONS  51 11 6

ORIGIN 0 0 0 

SPACING 0.1 0.1 0.1 

POINT_DATA 3366

VECTORS velocity float
0 0 0
-1.18801e-14 0 0
-7.51646e-09 0 0
-9.83674e-09 0 0
-8.38932e-09 0 0
-3.76141e-09 0 0
-4.75884e-09 0 0
-6.92926e-09 0 0
-8.57798e-09 0 0
-9.15417e-09 0 0
-9.01077e-09 0 0
-8.77027e-09 0 0
-8.64953e-09 0 0
-8.64512e-09 0 0
-8.7133e-09 0 0
-8.81129e-09 0 0
-8.90984e-09 0 0
-8.99483e-09 0 0
-9.06229e-09 0 0
-9.1133e-09 0 0
-9.15076e-09 0 0
-9.17782e-09 0 0
-9.19719e-09 0 0
-9.21101e-09 0 0
-9.22085e-09 0 0
-9.22787e-09 0 0
-9.23289e-09 0 0
-9.23649e-09 0 0
-9.23908e-09 0 0
-9.24095e-09 0 0
-9.2423e-09 0 0
-9.24327e-09 0 0
-9.24398e-09 0 0
-9.24449e-09 0 0
-9.24486e-09 0 0
-9.24514e-09 0 0
-9.24533e-09 0 0
-9.24547e-09 0 0
-9.24558e-09 0 0
-9.24565e-09 0 0
-9.24571e-09 0 0
-9.24575e-09 0 0
-9.24578e-09 0 0
-9.2458e-09 0 0
-9.24581e-09 0 0
-9.24582e-09 0 0
-9.24583e-09 0 0
-9.24584e-09 0 0
-9.24584e-09 0 0
-9.24586e-09 0 0
0.003795 0 0
0 7.79652e-09 0
1.77698e-15 4.85849e-09 0
-1.49154e-08 7.05667e-09 0
-1.85107e-08 3.19963e-09 0
-1.42848e-08 2.30058e-10 0
-5.1376e-09 1.10294e-09 0
-5.52261e-09 3.77174e-09 0
-8.43965e-09 2.9966e-09 0
-1.01477e-08 1.49689e-09 0
-1.13256e-08 3.63472e-10 0
-1.1512e-08 -1.01029e-10 0
-1.18308e-08 -5.78604e-11 0
-1.23803e-08 7.52119e-11 0
-1.29619e-08 1.63849e-10 0
-1.34906e-08 2.03435e-10 0
-1.39317e-08 2.03719e-10 0
-1.42755e-08 1.80013e-10 0
-1.453e-08 1.47083e-10 0
-1.47122e-08 1.14291e-10 0
-1.48399e-08 8.59709e-11 0
-1.49283e-08 6.33367e-11 0
-1.49893e-08 4.60656e-11 0
-1.50314e-08 3.3258e-11 0
-1.50606e-08 2.39241e-11 0
-1.50809e-08 1.71895e-11 0
-1.50952e-08 1.2355e-11 0
-1.51053e-08 8.89084e-12 0
-1.51125e-08 6.40808e-12 0
-1.51176e-08 4.62628e-12 0
-1.51213e-08 3.3451e-12 0
-1.51239e-08 2.42197e-12 0
-1.51259e-08 1.75552e-12 0
-1.51273e-08 1.27354e-12 0
-1.51283e-08 9.24465e-13 0
-1.5129e-08 6.71346e-13 0
-1.51296e-08 4.87645e-13 0
-1.513e-08 3.54237e-13 0
-1.51302e-08 2.5731e-13 0
-1.51304e-08 1.86865e-13 0
-1.51306e-08 1.35654e-13 0
-1.51307e-08 9.84174e-14 0
-1.51308e-08 7.13314e-14 0
-1.51308e-08 5.1617e-14 0
-1.51309e-08 3.72579e-14 0
-1.51309e-08 2.67977e-14 0
-1.51309e-08 1.91959e-14 0
-1.5131e-08 1.38135e-14 0
-1.5131e-08 1.10312e-14 0
-1.5131e-08 1.59602e-14 0
-1.5131e-08 4.13052e-14 0
0.00918652 -9.99312e-09 0
0 1.04369e-09 0
7.35005e-14 6.43203e-09 0
-1.39731e-08 8.55359e-09 0
-1.56105e-08 3.42557e-09 0
-7.85643e-09 4.76697e-10 0
-5.39765e-09 6.13661e-10 0
-7.09758e-09 2.77273e-09 0
-9.84087e-09 6.90429e-10 0
-6.5282e-09 -2.65272e-10 0
-5.27878e-09 1.07138e-09 0
-5.03308e-09 1.82402e-09 0
-5.66797e-09 2.29926e-09 0
-6.73419e-09 2.11329e-09 0
-7.68396e-09 1.64715e-09 0
-8.44656e-09 1.21904e-09 0
-9.02476e-09 8.84139e-10 0
-9.43975e-09 6.30682e-10 0
-9.72562e-09 4.43523e-10 0
-9.91755e-09 3.0871e-10 0
-1.00448e-08 2.13624e-10 0
-1.01289e-08 1.47569e-10 0
-1.01848e-08 1.02102e-10 0
-1.02223e-08 7.09271e-11 0
-1.02477e-08 4.95423e-11 0
-1.02652e-08 3.48202e-11 0
-1.02774e-08 2.46271e-11 0
-1.02859e-08 1.75211e-11 0
-1.0292e-08 1.25316e-11 0
-1.02964e-08 9.00353e-12 0
-1.02995e-08 6.49299e-12 0
-1.03018e-08 4.69657e-12 0
-1.03034e-08 3.40511e-12 0
-1.03047e-08 2.47314e-12 0
-1.03055e-08 1.79858e-12 0
-1.03062e-08 1.30919e-12 0
-1.03066e-08 9.5352e-13 0
-1.0307e-08 6.94704e-13 0
-1.03072e-08 5.06194e-13 0
-1.03074e-08 3.68804e-13 0
-1.03076e-08 2.68625e-13 0
-1.03077e-08 1.95552e-13 0
-1.03077e-08 1.42237e-13 0
-1.03078e-08 1.03337e-13 0
-1.03078e-08 7.49898e-14 0
-1.03078e-08 5.44788e-14 0
-1.03079e-08 4.00748e-14 0
-1.03079e-08 3.09748e-14 0
-1.03079e-08 2.7199e-14 0
-1.03079e-08 2.83243e-14 0
-1.03079e-08 3.48061e-14 0
0.0109757 -9.41006e-09 0
0 -8.51756e-09 0
1.3779e-13 4.42122e-09 0
-1.34747e-08 3.94943e-09 0
-1.51321e-08 -1.42534e-09 0
-5.97845e-09 1.04378e-09 0
-4.02146e-09 1.99732e-09 0
-6.33383e-09 -1.00946e-14 0
-8.33048e-09 -7.30874e-09 0
-1.38258e-08 -1.062e-08 0
-1.03875e-08 -3.10069e-09 0
-8.33413e-09 2.07942e-09 0
-7.59415e-09 3.97657e-09 0
-7.50272e-09 3.72928e-09 0
-7.57499e-09 2.77652e-09 0
-7.77627e-09 1.96197e-09 0
-8.00449e-09 1.36254e-09 0
-8.19456e-09 9.33467e-10 0
-8.33251e-09 6.33597e-10 0
-8.42667e-09 4.28426e-10 0
-8.4896e-09 2.9005e-10 0
-8.53173e-09 1.97364e-10 0
-8.56033e-09 1.35313e-10 0
-8.58011e-09 9.35909e-11 0
-8.59404e-09 6.53229e-11 0
-8.604e-09 4.59882e-11 0
-8.61121e-09 3.26285e-11 0
-8.61646e-09 2.33049e-11 0
-8.62031e-09 1.67379e-11 0
-8.62314e-09 1.20752e-11 0
-8.62523e-09 8.74186e-12 0
-8.62676e-09 6.34562e-12 0
-8.62789e-09 4.61538e-12 0
-8.62872e-09 3.36174e-12 0
-8.62934e-09 2.45105e-12 0
-8.62979e-09 1.78821e-12 0
-8.63012e-09 1.3051e-12 0
-8.63036e-09 9.52647e-13 0
-8.63054e-09 6.95346e-13 0
-8.63067e-09 5.07428e-13 0
-8.63077e-09 3.70144e-13 0
-8.63084e-09 2.69827e-13 0
-8.63089e-09 1.96511e-13 0
-8.63093e-09 1.42926e-13 0
-8.63096e-09 1.03777e-13 0
-8.63097e-09 7.52031e-14 0
-8.63099e-09 5.43915e-14 0
-8.631e-09 3.94516e-14 0
-8.631e-09 2.93593e-14 0
-8.631e-09 2.40336e-14 0
-8.63101e-09 2.2933e-14 0
0.0111844 -6.17626e-09 0
0 -1.60612e-08 0
1.51327e-13 1.58332e-09 0
-1.45755e-08 -3.64741e-10 0
-1.7591e-08 -3.25455e-09 0
-1.01472e-08 -6.22272e-10 0
-3.27709e-14 6.84177e-10 0
-5.1983e-13 -5.60391e-13 0
4.81203e-13 -5.68757e-13 0
-8.86726e-09 -5.84555e-09 0
-1.3444e-08 -7.67477e-09 0
-1.09349e-08 -8.01446e-10 0
-1.04536e-08 2.81626e-09 0
-9.89394e-09 3.27272e-09 0
-9.19544e-09 2.61219e-09 0
-8.77147e-09 1.94425e-09 0
-8.56315e-09 1.38289e-09 0
-8.46382e-09 9.50944e-10 0
-8.41587e-09 6.43522e-10 0
-8.39294e-09 4.34552e-10 0
-8.38283e-09 2.95283e-10 0
-8.37948e-09 2.02739e-10 0
-8.37961e-09 1.40822e-10 0
-8.38139e-09 9.89059e-11 0
-8.38379e-09 7.01455e-11 0
-8.38623e-09 5.01502e-11 0
-8.38845e-09 3.60844e-11 0
-8.39034e-09 2.60915e-11 0
-8.39189e-09 1.89353e-11 0
-8.39312e-09 1.37788e-11 0
-8.39407e-09 1.00456e-11 0
-8.39481e-09 7.33349e-12 0
-8.39536e-09 5.35815e-12 0
-8.39578e-09 3.9169e-12 0
-8.39609e-09 2.86405e-12 0
-8.39633e-09 2.09432e-12 0
-8.3965e-09 1.53133e-12 0
-8.39663e-09 1.11944e-12 0
-8.39672e-09 8.18071e-13 0
-8.39679e-09 5.97569e-13 0
-8.39684e-09 4.36236e-13 0
-8.39688e-09 3.18186e-13 0
-8.3969e-09 2.31779e-13 0
-8.39692e-09 1.68475e-13 0
-8.39694e-09 1.2201e-13 0
-8.39695e-09 8.78152e-14 0
-8.39696e-09 6.26136e-14 0
-8.39696e-09 4.40719e-14 0
-8.39696e-09 3.05637e-14 0
-8.39696e-09 2.11388e-14 0
-8.39696e-09 1.4583e-14 0
0.0112014 -2.9189e-09 0
0 -1.40845e-08 0
1.60216e-13 -1.97181e-10 0
-1.50217e-08 -1.66434e-09 0
-1.90096e-08 -3.1457e-09 0
-1.33739e-08 -3.11483e-09 0
-4.4547e-09 -1.4363e-09 0
-5.17542e-13 4.91856e-13 0
-1.06538e-14 1.06538e-14 0
4.55701e-13 -5.06705e-13 0
-6.16387e-09 -3.12145e-09 0
-8.33925e-09 -1.83983e-09 0
-1.15524e-08 3.19444e-09 0
-1.20794e-08 3.17549e-09 0
-1.09039e-08 2.1448e-09 0
-9.84829e-09 1.50224e-09 0
-9.19843e-09 1.04552e-09 0
-8.83243e-09 7.1587e-10 0
-8.63e-09 4.90752e-10 0
-8.51791e-09 3.40679e-10 0
-8.45558e-09 2.40208e-10 0
-8.42081e-09 1.7175e-10 0
-8.40142e-09 1.24128e-10 0
-8.39062e-09 9.03791e-11 0
-8.38463e-09 6.6119e-11 0
-8.38132e-09 4.85055e-11 0
-8.37951e-09 3.56357e-11 0
-8.37853e-09 2.61962e-11 0
-8.378e-09 1.92583e-11 0
-8.37772e-09 1.41543e-11 0
-8.37757e-09 1.03985e-11 0
-8.3775e-09 7.63537e-12 0
-8.37746e-09 5.60325e-12 0
-8.37745e-09 4.10958e-12 0
-8.37744e-09 3.01232e-12 0
-8.37744e-09 2.20674e-12 0
-8.37744e-09 1.61566e-12 0
-8.37744e-09 1.18222e-12 0
-8.37744e-09 8.64524e-13 0
-8.37744e-09 6.3178e-13 0
-8.37744e-09 4.61323e-13 0
-8.37744e-09 3.36495e-13 0
-8.37744e-09 2.45055e-13 0
-8.37744e-09 1.78005e-13 0
-8.37744e-09 1.28735e-13 0
-8.37744e-09 9.23682e-14 0
-8.37744e-09 6.52906e-14 0
-8.37744e-09 4.48194e-14 0
-8.37744e-09 2.90154e-14 0
-8.37743e-09 1.65214e-14 0
-8.37744e-09 6.07311e-15 0
0.0112025 2.08442e-10 0
0 -9.94487e-09 0
1.58816e-13 -1.5983e-09 0
-1.43392e-08 -3.25969e-09 0
-1.88881e-08 -2.59288e-09 0
-1.43231e-08 -1.90881e-09 0
-9.52652e-09 -3.80771e-09 0
-5.03403e-09 -2.83039e-09 0
-5.2327e-13 4.60443e-13 0
-4.74206e-15 4.74206e-15 0
4.4522e-13 -4.66182e-13 0
-3.20659e-09 4.00225e-09 0
-1.27526e-08 6.75238e-09 0
-1.54385e-08 3.5713e-09 0
-1.29342e-08 1.15093e-09 0
-1.06679e-08 5.53249e-10 0
-9.50843e-09 3.98557e-10 0
-8.97e-09 3.1552e-10 0
-8.71131e-09 2.53499e-10 0
-8.57956e-09 2.03427e-10 0
-8.50855e-09 1.61824e-10 0
-8.46817e-09 1.27177e-10 0
-8.44403e-09 9.87107e-11 0
-8.42895e-09 7.57589e-11 0
-8.41917e-09 5.75937e-11 0
-8.41263e-09 4.34451e-11 0
-8.40814e-09 3.25681e-11 0
-8.40501e-09 2.42926e-11 0
-8.4028e-09 1.80477e-11 0
-8.40121e-09 1.33654e-11 0
-8.40007e-09 9.87237e-12 0
-8.39924e-09 7.27695e-12 0
-8.39863e-09 5.35461e-12 0
-8.39819e-09 3.93444e-12 0
-8.39787e-09 2.88742e-12 0
-8.39763e-09 2.11681e-12 0
-8.39746e-09 1.55042e-12 0
-8.39733e-09 1.13463e-12 0
-8.39724e-09 8.29673e-13 0
-8.39717e-09 6.06182e-13 0
-8.39712e-09 4.42483e-13 0
-8.39708e-09 3.22609e-13 0
-8.39705e-09 2.34807e-13 0
-8.39703e-09 1.70422e-13 0
-8.39702e-09 1.2307e-13 0
-8.39701e-09 8.80057e-14 0
-8.397e-09 6.16407e-14 0
-8.39699e-09 4.11973e-14 0
-8.39699e-09 2.45319e-14 0
-8.39698e-09 1.00611e-14 0
-8.39699e-09 -3.19354e-15 0
0.0112015 3.30924e-09 0
0 -7.207e-09 0
1.26513e-13 -2.71125e-09 0
-1.35194e-08 -4.42815e-09 0
-1.77807e-08 -2.51654e-09 0
-1.41898e-08 -1.52311e-09 0
-1.05735e-08 -2.13038e-09 0
-9.788e-09 -5.81365e-09 0
-6.85043e-09 -4.40675e-09 0
-5.39001e-13 3.81884e-13 0
4.29757e-13 3.03086e-13 0
6.45921e-14 9.38286e-09 0
-1.13832e-08 1.3947e-08 0
-1.63636e-08 4.23892e-09 0
-1.36824e-08 -1.03942e-09 0
-1.08129e-08 -9.96538e-10 0
-9.49995e-09 -3.39789e-10 0
-9.01771e-09 -3.19175e-11 0
-8.84178e-09 7.82326e-11 0
-8.76895e-09 1.0956e-10 0
-8.73131e-09 1.088e-10 0
-8.70708e-09 9.55058e-11 0
-8.6893e-09 7.87157e-11 0
-8.67558e-09 6.25112e-11 0
-8.66489e-09 4.84818e-11 0
-8.6566e-09 3.70095e-11 0
-8.65023e-09 2.79419e-11 0
-8.64538e-09 2.09297e-11 0
-8.64172e-09 1.55863e-11 0
-8.63897e-09 1.15566e-11 0
-8.63691e-09 8.54009e-12 0
-8.63538e-09 6.29456e-12 0
-8.63424e-09 4.6299e-12 0
-8.63339e-09 3.3998e-12 0
-8.63277e-09 2.49309e-12 0
-8.63231e-09 1.82608e-12 0
-8.63197e-09 1.33619e-12 0
-8.63172e-09 9.76842e-13 0
-8.63154e-09 7.13538e-13 0
-8.6314e-09 5.20764e-13 0
-8.6313e-09 3.79712e-13 0
-8.63123e-09 2.76531e-13 0
-8.63118e-09 2.01029e-13 0
-8.63114e-09 1.45703e-13 0
-8.63111e-09 1.0501e-13 0
-8.63109e-09 7.48092e-14 0
-8.63107e-09 5.19136e-14 0
-8.63106e-09 3.36986e-14 0
-8.63106e-09 1.78324e-14 0
-8.63105e-09 2.29143e-15 0
-8.63105e-09 -1.365e-14 0
0.0111844 6.47587e-09 0
0 -6.86098e-09 0
8.17614e-14 -3.24112e-09 0
-1.293e-08 -5.00779e-09 0
-1.67013e-08 -2.31205e-09 0
-1.44956e-08 -9.40995e-10 0
-1.20996e-08 -1.4016e-09 0
-1.04844e-08 -3.08016e-09 0
-1.27815e-08 -8.05887e-09 0
-1.15204e-08 -5.9847e-09 0
-1.34922e-08 -6.47106e-19 0
-1.26128e-08 1.09258e-08 0
-7.99086e-09 1.70855e-08 0
-7.95896e-09 5.13305e-09 0
-9.44474e-09 -2.60202e-09 0
-1.00083e-08 -2.20047e-09 0
-1.02242e-08 -7.67305e-10 0
-1.03432e-08 -1.27007e-10 0
-1.04027e-08 6.91173e-11 0
-1.04216e-08 1.09891e-10 0
-1.04176e-08 1.03639e-10 0
-1.04035e-08 8.57542e-11 0
-1.03866e-08 6.73454e-11 0
-1.03704e-08 5.15523e-11 0
-1.03565e-08 3.88979e-11 0
-1.0345e-08 2.90861e-11 0
-1.0336e-08 2.1617e-11 0
-1.0329e-08 1.59962e-11 0
-1.03236e-08 1.17988e-11 0
-1.03196e-08 8.6814e-12 0
-1.03166e-08 6.37528e-12 0
-1.03143e-08 4.67447e-12 0
-1.03126e-08 3.423e-12 0
-1.03114e-08 2.50388e-12 0
-1.03105e-08 1.82984e-12 0
-1.03098e-08 1.33615e-12 0
-1.03093e-08 9.74929e-13 0
-1.03089e-08 7.1086e-13 0
-1.03087e-08 5.17957e-13 0
-1.03085e-08 3.77123e-13 0
-1.03083e-08 2.74346e-13 0
-1.03082e-08 1.99348e-13 0
-1.03081e-08 1.44592e-13 0
-1.03081e-08 1.04545e-13 0
-1.0308e-08 7.51175e-14 0
-1.0308e-08 5.32515e-14 0
-1.0308e-08 3.65598e-14 0
-1.0308e-08 2.29209e-14 0
-1.0308e-08 9.89663e-15 0
-1.0308e-08 -6.03724e-15 0
-1.0308e-08 -2.73632e-14 0
0.0109757 9.50855e-09 0
0 -7.83334e-09 0
4.23762e-14 -2.35981e-09 0
-1.282e-08 -3.5816e-09 0
-1.69817e-08 -1.67927e-09 0
-1.67459e-08 -7.91559e-10 0
-1.60404e-08 -8.99934e-10 0
-1.49578e-08 -1.36918e-09 0
-1.40982e-08 -8.69644e-10 0
-1.82551e-08 2.0936e-09 0
-1.91879e-08 5.40811e-10 0
-2.09103e-08 -4.66271e-09 0
-1.49842e-08 -3.6525e-09 0
-1.32289e-08 5.00184e-10 0
-1.49383e-08 2.31786e-09 0
-1.57156e-08 1.99031e-09 0
-1.5732e-08 1.20184e-09 0
-1.55981e-08 6.3846e-10 0
-1.54799e-08 3.36458e-10 0
-1.53922e-08 1.87332e-10 0
-1.53272e-08 1.12236e-10 0
-1.52783e-08 7.16944e-11 0
-1.52412e-08 4.79486e-11 0
-1.52131e-08 3.30366e-11 0
-1.51919e-08 2.31901e-11 0
-1.51761e-08 1.64697e-11 0
-1.51643e-08 1.17848e-11 0
-1.51555e-08 8.47407e-12 0
-1.5149e-08 6.11346e-12 0
-1.51442e-08 4.42014e-12 0
-1.51407e-08 3.20048e-12 0
-1.51381e-08 2.31951e-12 0
-1.51362e-08 1.68196e-12 0
-1.51348e-08 1.21998e-12 0
-1.51338e-08 8.84948e-13 0
-1.5133e-08 6.41869e-13 0
-1.51325e-08 4.65463e-13 0
-1.51321e-08 3.37435e-13 0
-1.51318e-08 2.44522e-13 0
-1.51316e-08 1.77098e-13 0
-1.51314e-08 1.2817e-13 0
-1.51313e-08 9.26573e-14 0
-1.51312e-08 6.68593e-14 0
-1.51312e-08 4.80732e-14 0
-1.51311e-08 3.43085e-14 0
-1.51311e-08 2.40675e-14 0
-1.51311e-08 1.6155e-14 0
-1.51311e-08 9.41615e-15 0
-1.5131e-08 1.98936e-15 0
-1.5131e-08 -1.18356e-14 0
-1.51311e-08 -4.19238e-14 0
0.00918652 9.77591e-09 0
0 0 0
1.51483e-14 0 0
-6.41697e-09 0 0
-8.78724e-09 0 0
-9.36106e-09 0 0
-9.44244e-09 0 0
-9.22746e-09 0 0
-8.16712e-09 0 0
-6.73481e-09 0 0
-5.69572e-09 0 0
-8.29748e-09 0 0
-1.17094e-08 0 0
-1.28798e-08 0 0
-1.2158e-08 0 0
-1.1036e-08 0 0
-1.02348e-08 0 0
-9.79166e-09 0 0
-9.5639e-09 0 0
-9.44411e-09 0 0
-9.37657e-09 0 0
-9.33542e-09 0 0
-9.3087e-09 0 0
-9.29057e-09 0 0
-9.27794e-09 0 0
-9.26899e-09 0 0
-9.26259e-09 0 0
-9.25798e-09 0 0
-9.25465e-09 0 0
-9.25223e-09 0 0
-9.25048e-09 0 0
-9.24921e-09 0 0
-9.24829e-09 0 0
-9.24762e-09 0 0
-9.24714e-09 0 0
-9.24678e-09 0 0
-9.24653e-09 0 0
-9.24634e-09 0 0
-9.24621e-09 0 0
-9.24611e-09 0 0
-9.24604e-09 0 0
-9.24599e-09 0 0
-9.24595e-09 0 0
-9.24592e-09 0 0
-9.2459e-09 0 0
-9.24589e-09 0 0
-9.24588e-09 0 0
-9.24588e-09 0 0
-9.24587e-09 0 0
-9.24587e-09 0 0
-9.24589e-09 0 0
0.003795 0 0
0 0 7.13915e-09
2.70915e-14 0 2.65797e-09
-1.60587e-08 0 2.78006e-09
-2.08716e-08 0 -2.32677e-09
-1.70807e-08 0 -6.30539e-09
-1.13726e-09 0 -4.73342e-09
-1.00505e-09 0 -6.0389e-10
-4.13874e-09 0 8.22536e-10
-7.04484e-09 0 7.28017e-10
-8.75728e-09 0 6.93162e-11
-9.79007e-09 0 -2.82868e-10
-1.07893e-08 0 -3.03375e-10
-1.17611e-08 0 -2.00356e-10
-1.25935e-08 0 -1.0008e-10
-1.32679e-08 0 -3.72687e-11
-1.37952e-08 0 -7.17912e-12
-1.4192e-08 0 3.52774e-12
-1.44804e-08 0 5.36663e-12
-1.46849e-08 0 4.17427e-12
-1.48275e-08 0 2.50155e-12
-1.4926e-08 0 1.1903e-12
-1.49937e-08 0 3.65853e-13
-1.50404e-08 0 -7.57149e-14
-1.50727e-08 0 -2.7054e-13
-1.50951e-08 0 -3.25752e-13
-1.51108e-08 0 -3.11349e-13
-1.51219e-08 0 -2.6817e-13
-1.51297e-08 0 -2.17846e-13
-1.51353e-08 0 -1.70594e-13
-1.51393e-08 0 -1.30367e-13
-1.51422e-08 0 -9.7954e-14
-1.51443e-08 0 -7.27207e-14
-1.51458e-08 0 -5.35198e-14
-1.51469e-08 0 -3.91385e-14
-1.51477e-08 0 -2.84867e-14
-1.51483e-08 0 -2.06603e-14
-1.51487e-08 0 -1.49436e-14
-1.5149e-08 0 -1.07855e-14
-1.51493e-08 0 -7.77008e-15
-1.51494e-08 0 -5.58641e-15
-1.51496e-08 0 -4.0047e-15
-1.51496e-08 0 -2.85553e-15
-1.51497e-08 0 -2.01327e-15
-1.51498e-08 0 -1.38555e-15
-1.51498e-08 0 -9.15146e-16
-1.51498e-08 0 -6.0347e-16
-1.51498e-08 0 -4.53536e-16
-1.51498e-08 0 2.41838e-16
-1.51499e-08 0 6.81369e-15
-1.51499e-08 0 3.27034e-14
0.00918552 0 -8.49872e-09
0.0036 7.02354e-09 4.80294e-09
0.00359998 -0.00315487 -0.00137084
0.0104059 -0.00734372 -0.00304732
0.0200956 -0.0090867 -0.00323036
0.0313308 -0.010524 -0.00278689
0.0462441 -0.00629464 -0.0014367
0.0474443 -3.70548e-05 -0.000124101
0.0467837 0.00269884 0.000212069
0.0414225 0.00427578 9.20392e-05
0.0361103 0.00412777 -0.000145973
0.0315734 0.00339412 -0.000196609
0.0281363 0.00250527 -0.000149225
0.0258076 0.00170397 -8.95013e-05
0.0243381 0.00109449 -4.63101e-05
0.0234487 0.000675476 -2.1425e-05
0.0229275 0.000403493 -9.03721e-06
0.0226315 0.000233879 -3.51987e-06
0.0224688 0.000131585 -1.29068e-06
0.0223828 7.17103e-05 -4.76111e-07
0.0223395 3.76407e-05 -2.11489e-07
0.0223193 1.87999e-05 -1.36158e-07
0.022311 8.70466e-06 -1.14691e-07
0.0223087 3.5019e-06 -1.0303e-07
0.022309 9.62004e-07 -9.03534e-08
0.0223104 -1.73943e-07 -7.60945e-08
0.0223119 -5.99533e-07 -6.18093e-08
0.0223134 -6.86761e-07 -4.88e-08
0.0223146 -6.28713e-07 -3.7712e-08
0.0223156 -5.2125e-07 -2.86822e-08
0.0223163 -4.08805e-07 -2.1558e-08
0.0223169 -3.09524e-07 -1.60621e-08
0.0223173 -2.28768e-07 -1.18899e-08
0.0223176 -1.66148e-07 -8.75925e-09
0.0223178 -1.19075e-07 -6.42997e-09
0.022318 -8.44459e-08 -4.7077e-09
0.0223181 -5.93712e-08 -3.44011e-09
0.0223182 -4.14343e-08 -2.51045e-09
0.0223182 -2.87278e-08 -1.8306e-09
0.0223182 -1.98001e-08 -1.33491e-09
0.0223183 -1.35731e-08 -9.75085e-10
0.0223183 -9.26044e-09 -7.1621e-10
0.0223183 -6.29626e-09 -5.33924e-10
0.0223183 -4.27874e-09 -4.12492e-10
0.0223183 -2.9276e-09 -3.43693e-10
0.0223183 -2.05609e-09 -3.26198e-10
0.0223183 -1.5558e-09 -3.583e-10
0.0223183 -1.36874e-09 -3.82679e-10
0.0223183 -1.6289e-09 -3.54808e-10
0.0223183 -4.73033e-09 -2.30702e-09
0.0223184 -1.70103e-08 -1.25679e-08
0.0223184 -2.64697e-08 -2.08522e-08
0.01 7.76799e-09 -2.42224e-09
0.01 -0.00562217 -0.00235822
0.0161062 -0.0139062 -0.00499731
0.0252045 -0.0183297 -0.00476666
0.0360978 -0.0240237 -0.0033233
0.0542953 -0.0148662 -0.00083723
0.0536837 -0.00010933 0.000833372
0.0542947 0.00618805 0.000907201
0.0472446 0.0107851 0.000455878
0.0403571 0.00997573 -0.000144576
0.0351919 0.00808346 -0.000317069
0.0315591 0.0058408 -0.000241484
0.0293382 0.00384192 -0.000141022
0.028084 0.00238149 -7.05924e-05
0.0273989 0.00142116 -3.0923e-05
0.0270369 0.000821729 -1.17403e-05
0.0268539 0.000460455 -3.55696e-06
0.0267671 0.000249314 -5.13057e-07
0.02673 0.000129517 3.89216e-07
0.0267175 6.35813e-05 5.09659e-07
0.0267162 2.85077e-05 4.03277e-07
0.0267195 1.06331e-05 2.69156e-07
0.0267241 2.06766e-06 1.63816e-07
0.0267286 -1.62826e-06 9.34898e-08
0.0267325 -2.88937e-06 5.04468e-08
0.0267356 -3.01359e-06 2.55998e-08
0.0267381 -2.66911e-06 1.19271e-08
0.0267399 -2.18361e-06 4.7548e-09
0.0267413 -1.70574e-06 1.20753e-09
0.0267423 -1.29343e-06 -3.96183e-10
0.026743 -9.61006e-07 -1.00275e-09
0.0267435 -7.03674e-07 -1.12729e-09
0.0267439 -5.09698e-07 -1.04054e-09
0.0267441 -3.66152e-07 -8.78828e-10
0.0267443 -2.6133e-07 -7.06659e-10
0.0267445 -1.85544e-07 -5.51412e-10
0.0267446 -1.3117e-07 -4.2211e-10
0.0267446 -9.23939e-08 -3.19353e-10
0.0267447 -6.48812e-08 -2.40416e-10
0.0267447 -4.54458e-08 -1.81837e-10
0.0267447 -3.17746e-08 -1.40732e-10
0.0267448 -2.22053e-08 -1.15547e-10
0.0267448 -1.55568e-08 -1.06543e-10
0.0267448 -1.10073e-08 -1.15921e-10
0.0267448 -8.01808e-09 -1.46852e-10
0.0267448 -6.34145e-09 -1.98149e-10
0.0267448 -6.25706e-09 -2.25065e-10
0.0267448 -8.76181e-09 -2.07399e-10
0.0267448 -1.41316e-08 -2.62097e-09
0.0267448 -2.19427e-08 -1.47409e-08
0.0267448 -2.64524e-08 -2.44329e-08
0.0148 -1.22212e-08 -1.56663e-09
0.0148 -0.00704403 -0.00309275
0.019144 -0.017654 -0.00668378
0.0248057 -0.0243002 -0.00622989
0.0280125 -0.036135 -0.00381059
0.0272862 -0.0224451 -0.000736274
0.0262767 -1.57222e-07 0.000831365
0.0269709 0.00909504 0.000855211
0.0322909 0.0182469 0.00063751
0.0310917 0.0163191 0.000138679
0.0290296 0.012338 -0.000133849
0.0276594 0.00846149 -0.000166636
0.0270258 0.00523901 -0.000112346
0.026848 0.00306439 -5.66715e-05
0.0268583 0.00173641 -2.12441e-05
0.0269324 0.000953927 -4.45774e-06
0.0270155 0.000505458 1.62487e-06
0.0270866 0.000255849 2.92723e-06
0.0271408 0.000121265 2.54893e-06
0.0271796 5.13212e-05 1.81036e-06
0.0272066 1.66742e-05 1.16339e-06
0.027225 7.18397e-07 7.03747e-07
0.0272375 -5.69841e-06 4.08326e-07
0.0272459 -7.48982e-06 2.2939e-07
0.0272516 -7.21705e-06 1.25253e-07
0.0272554 -6.16532e-06 6.64389e-08
0.0272581 -4.94434e-06 3.40518e-08
0.0272599 -3.81659e-06 1.6647e-08
0.0272611 -2.87317e-06 7.54344e-09
0.027262 -2.12572e-06 2.94372e-09
0.0272626 -1.55318e-06 7.34043e-10
0.027263 -1.12435e-06 -2.40467e-10
0.0272633 -8.08166e-07 -5.99204e-10
0.0272635 -5.77688e-07 -6.67447e-10
0.0272636 -4.11111e-07 -6.11505e-10
0.0272637 -2.91504e-07 -5.13228e-10
0.0272638 -2.06066e-07 -4.10547e-10
0.0272639 -1.45291e-07 -3.19219e-10
0.0272639 -1.02215e-07 -2.44342e-10
0.0272639 -7.17829e-08 -1.86363e-10
0.0272639 -5.03556e-08 -1.44224e-10
0.027264 -3.53344e-08 -1.17031e-10
0.027264 -2.48827e-08 -1.05017e-10
0.027264 -1.77343e-08 -1.1048e-10
0.027264 -1.30761e-08 -1.39718e-10
0.027264 -1.0456e-08 -2.01892e-10
0.027264 -9.56809e-09 -2.74271e-10
0.027264 -1.01451e-08 -3.70564e-10
0.027264 -1.23273e-08 -2.88468e-09
0.027264 -1.6064e-08 -1.45438e-08
0.027264 -1.82456e-08 -2.37533e-08
0.018 -2.98768e-08 -7.72192e-09
0.018 -0.00697958 -0.00386597
0.0195595 -0.0169341 -0.00846943
0.0201594 -0.0199942 -0.00745459
0.0163017 -0.0212976 -0.00443536
-9.47428e-09 -0.011258 -0.00158424
1.73825e-06 6.89578e-07 4.44375e-09
-7.4553e-07 8.00849e-07 0.00013464
0.00905257 0.00656271 0.000281321
0.0181699 0.0132585 0.000232784
0.0207445 0.0115904 7.45297e-05
0.0220909 0.00791562 -5.69517e-05
0.0235887 0.00470086 -7.49159e-05
0.0248424 0.002574 -3.95435e-05
0.0257401 0.00134707 -9.84274e-06
0.0263388 0.000667476 3.55612e-06
0.0267203 0.000306304 6.86273e-06
0.0269558 0.000123247 6.08251e-06
0.027098 3.56327e-05 4.32488e-06
0.0271827 -2.90136e-06 2.75636e-06
0.0272329 -1.7287e-05 1.6435e-06
0.0272625 -2.04666e-05 9.35441e-07
0.02728 -1.89305e-05 5.12965e-07
0.0272903 -1.57989e-05 2.71578e-07
0.0272965 -1.24783e-05 1.38168e-07
0.0273003 -9.5313e-06 6.65883e-08
0.0273026 -7.12245e-06 2.93663e-08
0.027304 -5.2426e-06 1.07544e-08
0.0273049 -3.81741e-06 1.96995e-09
0.0273055 -2.75755e-06 -1.77716e-09
0.0273059 -1.97994e-06 -3.04459e-09
0.0273061 -1.41492e-06 -3.1664e-09
0.0273063 -1.00736e-06 -2.81797e-09
0.0273064 -7.14986e-07 -2.3268e-09
0.0273064 -5.0616e-07 -1.84074e-09
0.0273065 -3.57526e-07 -1.41779e-09
0.0273065 -2.52041e-07 -1.07304e-09
0.0273065 -1.77365e-07 -8.02826e-10
0.0273066 -1.2462e-07 -5.96618e-10
0.0273066 -8.74483e-08 -4.42806e-10
0.0273066 -6.13189e-08 -3.3131e-10
0.0273066 -4.30156e-08 -2.54879e-10
0.0273066 -3.02705e-08 -2.10056e-10
0.0273066 -2.14948e-08 -1.98691e-10
0.0273066 -1.55726e-08 -2.31184e-10
0.0273066 -1.17067e-08 -3.24835e-10
0.0273066 -9.34468e-09 -4.44654e-10
0.0273066 -8.10877e-09 -5.50004e-10
0.0273066 -7.92189e-09 -2.98487e-09
0.0273066 -8.59885e-09 -1.42742e-08
0.0273066 -9.08639e-09 -2.31788e-08
0.0196 -3.43881e-08 -2.39849e-08
0.0196 -0.00490906 -0.00443069
0.0192351 -0.0108916 -0.00949927
0.0175389 -0.0119201 -0.00791214
0.0133167 -0.00974724 -0.00450311
0.00343098 -0.00380973 -0.00203812
1.34638e-06 -1.24867e-06 -0.00037854
5.03137e-07 -5.03137e-07 -9.13171e-10
-7.18938e-07 7.72122e-07 2.31162e-05
0.00655528 0.00457922 6.67827e-05
0.0132426 0.00841425 4.95203e-05
0.0165927 0.0056476 -4.92021e-05
0.0203114 0.00252076 -9.64621e-05
0.0231238 0.000932102 -5.67487e-05
0.0249092 0.000246727 -1.63357e-05
0.0259633 -2.58467e-05 2.55605e-06
0.0265643 -0.00011315 7.28674e-06
0.0269007 -0.000123655 6.46034e-06
0.0270867 -0.000107121 4.43146e-06
0.0271888 -8.45084e-05 2.69446e-06
0.0272445 -6.36212e-05 1.52289e-06
0.0272747 -4.6679e-05 8.15264e-07
0.027291 -3.37426e-05 4.14814e-07
0.0272997 -2.41765e-05 1.98459e-07
0.0273044 -1.72296e-05 8.62198e-08
0.0273068 -1.22379e-05 3.05581e-08
0.0273081 -8.67366e-06 4.63557e-09
0.0273087 -6.13848e-06 -6.18301e-09
0.027309 -4.33959e-06 -9.66076e-09
0.0273091 -3.06513e-06 -9.80592e-09
0.0273092 -2.16323e-06 -8.62235e-09
0.0273092 -1.52552e-06 -7.06677e-09
0.0273092 -1.07495e-06 -5.56214e-09
0.0273092 -7.56823e-07 -4.26798e-09
0.0273092 -5.32373e-07 -3.22025e-09
0.0273092 -3.74134e-07 -2.40191e-09
0.0273092 -2.62668e-07 -1.77735e-09
0.0273092 -1.8422e-07 -1.3083e-09
0.0273092 -1.29068e-07 -9.60473e-10
0.0273092 -9.0343e-08 -7.05865e-10
0.0273092 -6.3194e-08 -5.23212e-10
0.0273091 -4.41998e-08 -3.97906e-10
0.0273091 -3.09459e-08 -3.2212e-10
0.0273091 -2.17228e-08 -2.9533e-10
0.0273091 -1.53097e-08 -3.24656e-10
0.0273091 -1.08119e-08 -4.19638e-10
0.0273091 -7.54266e-09 -5.37926e-10
0.0273091 -4.96014e-09 -6.28826e-10
0.0273091 -2.77361e-09 -3.02239e-09
0.0273091 -8.3926e-10 -1.41808e-08
0.0273091 8.77566e-11 -2.29831e-08
0.0196 -1.93536e-08 -3.79683e-08
0.0196 -0.00246187 -0.00457753
0.0194395 -0.00499069 -0.00947371
0.0189874 -0.00435008 -0.00772756
0.016243 -0.00102774 -0.00427383
0.0122343 0.00470781 -0.00218232
0.00741189 0.00391431 -0.000928938
1.34949e-06 -1.14784e-06 -0.000189105
4.28906e-07 -4.28906e-07 -1.64043e-09
-6.88988e-07 7.48887e-07 6.16114e-06
0.00457755 0.00154636 0.000131668
0.0107791 0.000871107 5.91748e-05
0.0177785 -0.00178994 -0.000161743
0.0224538 -0.00199779 -0.000143664
0.024911 -0.00148219 -6.29581e-05
0.0261234 -0.000985986 -1.66477e-05
0.0267232 -0.000632419 -7.3098e-07
0.0270223 -0.000400858 2.58448e-06
0.0271715 -0.000253853 2.2972e-06
0.0272454 -0.000161569 1.44559e-06
0.0272813 -0.000103708 7.81279e-07
0.0272982 -6.72602e-05 3.76478e-07
0.0273058 -4.41061e-05 1.57268e-07
0.0273087 -2.92396e-05 4.83388e-08
0.0273096 -1.95823e-05 -9.23558e-10
0.0273095 -1.32345e-05 -1.99877e-08
0.0273091 -9.01483e-06 -2.47589e-08
0.0273086 -6.18095e-06 -2.33788e-08
0.0273082 -4.26054e-06 -1.98128e-08
0.0273078 -2.94917e-06 -1.58726e-08
0.0273075 -2.04801e-06 -1.23017e-08
0.0273072 -1.42558e-06 -9.33621e-09
0.0273071 -9.93966e-07 -6.98773e-09
0.0273069 -6.93762e-07 -5.1805e-09
0.0273068 -4.84499e-07 -3.8153e-09
0.0273068 -3.38409e-07 -2.79683e-09
0.0273067 -2.36325e-07 -2.04374e-09
0.0273067 -1.64961e-07 -1.49071e-09
0.0273067 -1.15071e-07 -1.08724e-09
0.0273066 -8.02045e-08 -7.95509e-10
0.0273066 -5.58521e-08 -5.88284e-10
0.0273066 -3.88518e-08 -4.4728e-10
0.0273066 -2.6979e-08 -3.62203e-10
0.0273066 -1.86548e-08 -3.30526e-10
0.0273066 -1.27365e-08 -3.58139e-10
0.0273066 -8.35813e-09 -4.54108e-10
0.0273066 -4.79541e-09 -5.73575e-10
0.0273066 -1.35819e-09 -6.55929e-10
0.0273066 2.53181e-09 -3.03488e-09
0.0273066 6.94902e-09 -1.42232e-08
0.0273066 9.25018e-09 -2.30615e-08
0.018 -1.19779e-08 -3.96411e-08
0.018 -0.000492667 -0.00441619
0.0190872 -0.000512522 -0.00889195
0.020505 0.000662481 -0.00703577
0.0204684 0.00290666 -0.003861
0.0201887 0.0080109 -0.00199836
0.0205174 0.0134269 -0.00101723
0.0127448 0.00764029 -0.000462595
1.38214e-06 -9.13548e-07 -0.00014269
-5.66884e-07 -1.016e-06 1.05568e-08
1.1842e-07 -0.00239902 0.000508108
0.0103775 -0.00755743 0.000510923
0.0192134 -0.00908999 -0.000125329
0.0241325 -0.00614503 -0.000207027
0.0261717 -0.0033956 -0.000109517
0.0269189 -0.0018285 -4.03896e-05
0.0271855 -0.00100985 -1.24945e-05
0.0272766 -0.000572056 -3.42827e-06
0.0273025 -0.000330683 -8.26594e-07
0.0273047 -0.000194691 -1.77004e-07
0.027299 -0.000116718 -5.35095e-08
0.0272918 -7.12542e-05 -4.56719e-08
0.0272852 -4.42868e-05 -5.03812e-08
0.0272797 -2.80056e-05 -4.92049e-08
0.0272755 -1.7999e-05 -4.30528e-08
0.0272724 -1.17393e-05 -3.50909e-08
0.02727 -7.75688e-06 -2.73626e-08
0.0272683 -5.18302e-06 -2.0753e-08
0.0272671 -3.49573e-06 -1.54679e-08
0.0272662 -2.37575e-06 -1.14027e-08
0.0272656 -1.6244e-06 -8.34804e-09
0.0272651 -1.11587e-06 -6.08523e-09
0.0272648 -7.69212e-07 -4.42383e-09
0.0272646 -5.31559e-07 -3.21071e-09
0.0272644 -3.67928e-07 -2.32801e-09
0.0272643 -2.54901e-07 -1.68722e-09
0.0272642 -1.76653e-07 -1.22289e-09
0.0272641 -1.22404e-07 -8.8719e-10
0.0272641 -8.47639e-08 -6.45523e-10
0.0272641 -5.86382e-08 -4.73328e-10
0.027264 -4.05007e-08 -3.53846e-10
0.027264 -2.78977e-08 -2.76773e-10
0.027264 -1.91088e-08 -2.37708e-10
0.027264 -1.29104e-08 -2.38386e-10
0.027264 -8.40312e-09 -2.87909e-10
0.027264 -4.87757e-09 -3.99039e-10
0.027264 -1.67647e-09 -5.31117e-10
0.027264 2.01403e-09 -6.17764e-10
0.027264 7.28981e-09 -3.00312e-09
0.027264 1.44247e-08 -1.44114e-08
0.027264 1.83712e-08 -2.34615e-08
0.0148 -9.23787e-09 -3.59175e-08
0.0148 0.000557551 -0.0040757
0.0176575 0.00165512 -0.00788496
0.0210901 0.00276279 -0.00593642
0.0234703 0.00458555 -0.00325048
0.0252486 0.0074409 -0.00184684
0.0282652 0.0127234 -0.00112989
0.0316514 0.0210447 -0.000597242
0.0261587 0.0128418 5.20399e-06
0.0279229 1.51948e-14 0.000636032
0.0327028 -0.00897924 0.00132822
0.0349661 -0.0184814 0.00109096
0.0324498 -0.0154881 8.42128e-05
0.0299337 -0.00887663 -0.000230598
0.0284929 -0.00422282 -0.000164229
0.0277392 -0.00198026 -7.16239e-05
0.0273315 -0.000982954 -2.61593e-05
0.0271006 -0.000515438 -8.84948e-06
0.0269653 -0.000281116 -2.83881e-06
0.026884 -0.000157851 -8.39771e-07
0.0268342 -9.07928e-05 -1.98354e-07
0.0268031 -5.33631e-05 -4.6908e-09
0.0267833 -3.20073e-05 4.49283e-08
0.0267706 -1.95725e-05 5.02258e-08
0.0267622 -1.21888e-05 4.33931e-08
0.0267567 -7.7199e-06 3.45087e-08
0.026753 -4.96461e-06 2.64879e-08
0.0267504 -3.23581e-06 1.99672e-08
0.0267487 -2.13334e-06 1.48915e-08
0.0267475 -1.41995e-06 1.1027e-08
0.0267467 -9.52395e-07 8.12311e-09
0.0267461 -6.42617e-07 5.96036e-09
0.0267457 -4.35527e-07 4.35995e-09
0.0267455 -2.96088e-07 3.18147e-09
0.0267453 -2.01677e-07 2.31695e-09
0.0267451 -1.37492e-07 1.68454e-09
0.026745 -9.37325e-08 1.22281e-09
0.026745 -6.38458e-08 8.85918e-10
0.0267449 -4.34161e-08 6.397e-10
0.0267449 -2.94464e-08 4.58519e-10
0.0267448 -1.98896e-08 3.22676e-10
0.0267448 -1.33371e-08 2.16187e-10
0.0267448 -8.80745e-09 1.24731e-10
0.0267448 -5.59952e-09 3.35529e-11
0.0267448 -3.18285e-09 -7.50845e-11
0.0267448 -1.10707e-09 -2.20426e-10
0.0267448 1.10481e-09 -3.73485e-10
0.0267448 4.2583e-09 -4.81443e-10
0.0267448 1.02403e-08 -2.8584e-09
0.0267448 2.03897e-08 -1.45562e-08
0.0267448 2.65055e-08 -2.39161e-08
0.01 -1.56831e-08 -3.49363e-08
0.01 0.000486982 -0.00341177
0.0139345 0.00137992 -0.00616794
0.0183061 0.0020635 -0.00423916
0.0220171 0.00319466 -0.00227984
0.0260782 0.00566794 -0.00143069
0.031292 0.00832376 -0.00124839
0.0399197 0.0103003 -0.000894223
0.052892 0.00376906 2.74229e-05
0.0527714 -0.0067763 0.000858759