# vtk DataFile Version 2.0
Tobias Weinzierl: CPU, Manycore and Cluster Computing
ASCII

DATASET STRUCTURED_POINTS
DIMENSIONS  51 11 6

ORIGIN 0 0 0 

SPACING 0.1 0.1 0.1 

POINT_DATA 3366

VECTORS velocity float
0 0 0
-2.26438e-15 0 0
-4.25959e-09 0 0
-6.88371e-09 0 0
-6.31563e-09 0 0
-1.52289e-09 0 0
-5.06278e-10 0 0
-1.41609e-09 0 0
-3.01762e-09 0 0
-4.41567e-09 0 0
-4.97853e-09 0 0
-4.98635e-09 0 0
-4.83886e-09 0 0
-4.72153e-09 0 0
-4.6762e-09 0 0
-4.68708e-09 0 0
-4.72474e-09 0 0
-4.76745e-09 0 0
-4.80455e-09 0 0
-4.83289e-09 0 0
-4.85292e-09 0 0
-4.86637e-09 0 0
-4.87509e-09 0 0
-4.88058e-09 0 0
-4.88397e-09 0 0
-4.88603e-09 0 0
-4.88726e-09 0 0
-4.88798e-09 0 0
-4.8884e-09 0 0
-4.88864e-09 0 0
-4.88878e-09 0 0
-4.88885e-09 0 0
-4.88889e-09 0 0
-4.8889e-09 0 0
-4.88891e-09 0 0
-4.88891e-09 0 0
-4.88891e-09 0 0
-4.8889e-09 0 0
-4.8889e-09 0 0
-4.88889e-09 0 0
-4.88889e-09 0 0
-4.88889e-09 0 0
-4.88888e-09 0 0
-4.88888e-09 0 0
-4.88888e-09 0 0
-4.88888e-09 0 0
-4.88888e-09 0 0
-4.88888e-09 0 0
-4.88888e-09 0 0
-4.88889e-09 0 0
0.00303958 0 0
0 7.61502e-09 0
1.76128e-14 2.41887e-09 0
-8.26025e-09 3.82085e-09 0
-1.35893e-08 2.21156e-09 0
-1.16515e-08 9.30917e-10 0
-3.35401e-09 1.2008e-09 0
-1.28473e-09 2.53097e-09 0
-2.11844e-09 2.67451e-09 0
-3.73522e-09 2.22768e-09 0
-5.96639e-09 1.50487e-09 0
-7.09813e-09 6.45199e-10 0
-7.39792e-09 1.54142e-10 0
-7.52167e-09 -5.95503e-12 0
-7.69312e-09 -1.30486e-11 0
-7.92874e-09 2.59243e-11 0
-8.18542e-09 5.86822e-11 0
-8.41721e-09 6.98691e-11 0
-8.60138e-09 6.47755e-11 0
-8.73569e-09 5.24447e-11 0
-8.82801e-09 3.90368e-11 0
-8.88884e-09 2.74511e-11 0
-8.92773e-09 1.85325e-11 0
-8.95203e-09 1.21357e-11 0
-8.96698e-09 7.76238e-12 0
-8.97606e-09 4.87361e-12 0
-8.98153e-09 3.01372e-12 0
-8.98482e-09 1.83933e-12 0
-8.98679e-09 1.10885e-12 0
-8.98797e-09 6.59865e-13 0
-8.98867e-09 3.86631e-13 0
-8.9891e-09 2.21859e-13 0
-8.98935e-09 1.23439e-13 0
-8.9895e-09 6.53276e-14 0
-8.9896e-09 3.1554e-14 0
-8.98965e-09 1.23813e-14 0
-8.98968e-09 1.89833e-15 0
-8.9897e-09 -3.47084e-15 0
-8.98971e-09 -5.8817e-15 0
-8.98971e-09 -6.62716e-15 0
-8.98972e-09 -6.47596e-15 0
-8.98972e-09 -5.87926e-15 0
-8.98972e-09 -5.09639e-15 0
-8.98972e-09 -4.27134e-15 0
-8.98971e-09 -3.47533e-15 0
-8.98971e-09 -2.72946e-15 0
-8.98971e-09 -2.02753e-15 0
-8.98971e-09 -1.36411e-15 0
-8.98972e-09 -4.26537e-16 0
-8.98972e-09 3.50427e-15 0
-8.98973e-09 1.70593e-14 0
0.00787961 -5.35765e-09 0
0 9.53421e-10 0
6.50904e-14 3.02587e-09 0
-6.48277e-09 3.787e-09 0
-1.13517e-08 6.55371e-10 0
-7.05647e-09 5.55043e-10 0
-1.96594e-09 2.02466e-09 0
-2.7899e-09 2.59451e-09 0
-3.82885e-09 9.72077e-10 0
-3.74526e-09 -5.63406e-11 0
-4.29954e-09 6.57373e-10 0
-4.77084e-09 1.17847e-09 0
-4.86179e-09 1.58031e-09 0
-5.07293e-09 1.60685e-09 0
-5.3704e-09 1.31973e-09 0
-5.72539e-09 9.83004e-10 0
-6.08292e-09 7.04678e-10 0
-6.38682e-09 4.9191e-10 0
-6.6152e-09 3.34681e-10 0
-6.77319e-09 2.22246e-10 0
-6.87652e-09 1.44405e-10 0
-6.94155e-09 9.20852e-11 0
-6.98141e-09 5.78168e-11 0
-7.00543e-09 3.58559e-11 0
-7.01976e-09 2.2031e-11 0
-7.02826e-09 1.34495e-11 0
-7.03332e-09 8.17861e-12 0
-7.03634e-09 4.96473e-12 0
-7.03816e-09 3.01374e-12 0
-7.03926e-09 1.83156e-12 0
-7.03995e-09 1.11502e-12 0
-7.04037e-09 6.79835e-13 0
-7.04065e-09 4.1469e-13 0
-7.04082e-09 2.52548e-13 0
-7.04094e-09 1.53047e-13 0
-7.04101e-09 9.18326e-14 0
-7.04106e-09 5.41494e-14 0
-7.04109e-09 3.10063e-14 0
-7.04112e-09 1.68883e-14 0
-7.04113e-09 8.38793e-15 0
-7.04114e-09 3.38784e-15 0
-7.04115e-09 5.6528e-16 0
-7.04115e-09 -9.06136e-16 0
-7.04115e-09 -1.53758e-15 0
-7.04115e-09 -1.63412e-15 0
-7.04116e-09 -1.33871e-15 0
-7.04116e-09 -5.63419e-16 0
-7.04116e-09 1.21033e-15 0
-7.04116e-09 4.86787e-15 0
-7.04116e-09 1.02652e-14 0
-7.04117e-09 1.71748e-14 0
0.01002 -6.1585e-09 0
0 -8.76676e-09 0
9.30437e-14 1.63106e-09 0
-4.66618e-09 1.95795e-10 0
-9.66798e-09 -4.31848e-09 0
-5.22944e-09 -3.6148e-09 0
-1.34812e-10 -7.31608e-10 0
-2.01146e-09 -2.58096e-14 0
-3.1265e-09 -2.6817e-09 0
-7.03911e-09 -5.18261e-09 0
-7.04753e-09 -3.33604e-09 0
-6.76164e-09 -2.62465e-10 0
-6.33223e-09 1.87482e-09 0
-5.94365e-09 2.5223e-09 0
-5.54759e-09 2.14261e-09 0
-5.33142e-09 1.57832e-09 0
-5.3004e-09 1.10537e-09 0
-5.35614e-09 7.47734e-10 0
-5.42645e-09 4.90564e-10 0
-5.48271e-09 3.13681e-10 0
-5.52036e-09 1.96521e-10 0
-5.54325e-09 1.21219e-10 0
-5.55641e-09 7.39383e-11 0
-5.56374e-09 4.4771e-11 0
-5.56777e-09 2.70061e-11 0
-5.57001e-09 1.62778e-11 0
-5.57129e-09 9.82968e-12 0
-5.57204e-09 5.95973e-12 0
-5.57251e-09 3.63371e-12 0
-5.57281e-09 2.23014e-12 0
-5.57301e-09 1.37815e-12 0
-5.57315e-09 8.57136e-13 0
-5.57325e-09 5.35884e-13 0
-5.57332e-09 3.36134e-13 0
-5.57337e-09 2.10955e-13 0
-5.5734e-09 1.31989e-13 0
-5.57343e-09 8.19453e-14 0
-5.57345e-09 5.0167e-14 0
-5.57346e-09 3.00151e-14 0
-5.57347e-09 1.73104e-14 0
-5.57347e-09 9.3965e-15 0
-5.57348e-09 4.57261e-15 0
-5.57348e-09 1.74848e-15 0
-5.57348e-09 2.35244e-16 0
-5.57348e-09 -3.75134e-16 0
-5.57348e-09 -2.99973e-16 0
-5.57348e-09 3.25826e-16 0
-5.57348e-09 1.37134e-15 0
-5.57348e-09 2.87193e-15 0
-5.57348e-09 5.41728e-15 0
-5.57348e-09 9.51844e-15 0
0.0104059 -4.30578e-09 0
0 -1.6959e-08 0
7.87764e-14 -1.43618e-10 0
-4.7375e-09 -2.35942e-09 0
-1.03297e-08 -4.75392e-09 0
-8.26876e-09 -3.34571e-09 0
-2.78267e-14 -8.07638e-10 0
-3.17031e-13 -3.49028e-13 0
2.95006e-13 -3.40756e-13 0
-4.01144e-09 -3.13106e-09 0
-7.85724e-09 -4.81745e-09 0
-7.6487e-09 -1.50782e-09 0
-7.74027e-09 1.27783e-09 0
-7.57013e-09 2.11793e-09 0
-6.84915e-09 1.78951e-09 0
-6.15546e-09 1.3378e-09 0
-5.72373e-09 9.64569e-10 0
-5.49623e-09 6.61154e-10 0
-5.37908e-09 4.30584e-10 0
-5.31535e-09 2.69649e-10 0
-5.27804e-09 1.64524e-10 0
-5.25508e-09 9.88732e-11 0
-5.24068e-09 5.90296e-11 0
-5.23168e-09 3.52457e-11 0
-5.22615e-09 2.11552e-11 0
-5.22282e-09 1.28126e-11 0
-5.22088e-09 7.84957e-12 0
-5.21976e-09 4.87069e-12 0
-5.21914e-09 3.06154e-12 0
-5.21881e-09 1.94777e-12 0
-5.21865e-09 1.25224e-12 0
-5.21857e-09 8.11781e-13 0
-5.21853e-09 5.29251e-13 0
-5.21852e-09 3.46022e-13 0
-5.21852e-09 2.26156e-13 0
-5.21853e-09 1.47263e-13 0
-5.21853e-09 9.51677e-14 0
-5.21854e-09 6.07556e-14 0
-5.21854e-09 3.80893e-14 0
-5.21855e-09 2.32562e-14 0
-5.21855e-09 1.36546e-14 0
-5.21855e-09 7.54801e-15 0
-5.21855e-09 3.77369e-15 0
-5.21855e-09 1.54891e-15 0
-5.21855e-09 3.38052e-16 0
-5.21855e-09 -2.21706e-16 0
-5.21855e-09 -3.34892e-16 0
-5.21855e-09 -6.16878e-17 0
-5.21855e-09 6.4721e-16 0
-5.21855e-09 2.0807e-15 0
-5.21855e-09 4.3843e-15 0
0.0104564 -1.99235e-09 0
0 -1.51433e-08 0
6.37765e-14 -1.01847e-09 0
-4.89093e-09 -2.74372e-09 0
-1.06197e-08 -3.88319e-09 0
-1.02262e-08 -3.97574e-09 0
-3.2483e-09 -1.8178e-09 0
-3.06191e-13 2.97575e-13 0
-2.56873e-15 2.56873e-15 0
2.73313e-13 -3.16698e-13 0
-3.55852e-09 -1.95205e-09 0
-5.60185e-09 -1.58187e-09 0
-7.3578e-09 1.79133e-09 0
-8.66753e-09 2.38929e-09 0
-8.1882e-09 1.52033e-09 0
-7.11419e-09 8.99099e-10 0
-6.28689e-09 5.68651e-10 0
-5.79677e-09 3.56861e-10 0
-5.52525e-09 2.13619e-10 0
-5.37403e-09 1.23048e-10 0
-5.28809e-09 6.9759e-11 0
-5.23854e-09 3.98211e-11 0
-5.20983e-09 2.33194e-11 0
-5.19318e-09 1.4176e-11 0
-5.18357e-09 8.97754e-12 0
-5.17805e-09 5.90009e-12 0
-5.17489e-09 3.99111e-12 0
-5.1731e-09 2.75325e-12 0
-5.17208e-09 1.92118e-12 0
-5.17151e-09 1.34745e-12 0
-5.17119e-09 9.45601e-13 0
-5.17101e-09 6.61837e-13 0
-5.17091e-09 4.6092e-13 0
-5.17085e-09 3.18803e-13 0
-5.17082e-09 2.18629e-13 0
-5.17081e-09 1.48392e-13 0
-5.1708e-09 9.94729e-14 0
-5.17079e-09 6.56737e-14 0
-5.17079e-09 4.25404e-14 0
-5.17079e-09 2.68834e-14 0
-5.17078e-09 1.64302e-14 0
-5.17078e-09 9.56741e-15 0
-5.17078e-09 5.15708e-15 0
-5.17078e-09 2.40381e-15 0
-5.17078e-09 7.58867e-16 0
-5.17078e-09 -1.54742e-16 0
-5.17078e-09 -6.13674e-16 0
-5.17078e-09 -8.25285e-16 0
-5.17078e-09 -8.77252e-16 0
-5.17078e-09 -6.28365e-16 0
-5.17078e-09 5.37051e-17 0
0.0104612 2.98142e-10 0
0 -1.07832e-08 0
5.86181e-14 -1.42916e-09 0
-4.64205e-09 -3.18427e-09 0
-1.03892e-08 -2.91768e-09 0
-1.06755e-08 -2.12967e-09 0
-7.18409e-09 -2.18245e-09 0
-2.65729e-09 -1.21535e-09 0
-3.07138e-13 2.8801e-13 0
-1.46968e-14 1.46968e-14 0
2.49557e-13 -2.97069e-13 0
-2.06355e-09 1.65521e-09 0
-5.79136e-09 4.28524e-09 0
-9.69574e-09 3.74162e-09 0
-9.84823e-09 1.31853e-09 0
-8.11669e-09 1.89196e-10 0
-6.70104e-09 -6.55222e-11 0
-5.93869e-09 -9.20132e-11 0
-5.57317e-09 -7.85799e-11 0
-5.39852e-09 -5.80244e-11 0
-5.3126e-09 -3.82623e-11 0
-5.26904e-09 -2.27243e-11 0
-5.24636e-09 -1.20955e-11 0
-5.23424e-09 -5.55785e-12 0
-5.22762e-09 -1.89397e-12 0
-5.22391e-09 -3.93189e-14 0
-5.22179e-09 7.67884e-13 0
-5.22054e-09 1.01483e-12 0
-5.2198e-09 9.89791e-13 0
-5.21935e-09 8.52445e-13 0
-5.21907e-09 6.85243e-13 0
-5.2189e-09 5.26814e-13 0
-5.21878e-09 3.92267e-13 0
-5.21871e-09 2.84891e-13 0
-5.21866e-09 2.02613e-13 0
-5.21862e-09 1.41387e-13 0
-5.2186e-09 9.68541e-14 0
-5.21859e-09 6.5076e-14 0
-5.21858e-09 4.27852e-14 0
-5.21857e-09 2.74044e-14 0
-5.21856e-09 1.69698e-14 0
-5.21856e-09 1.00215e-14 0
-5.21856e-09 5.49406e-15 0
-5.21855e-09 2.62117e-15 0
-5.21855e-09 8.53256e-16 0
-5.21855e-09 -2.11e-16 0
-5.21855e-09 -8.94333e-16 0
-5.21855e-09 -1.50102e-15 0
-5.21855e-09 -2.29574e-15 0
-5.21855e-09 -3.34671e-15 0
-5.21855e-09 -4.38484e-15 0
0.0104564 2.54652e-09 0
0 -7.78897e-09 0
4.89228e-14 -1.72624e-09 0
-4.69244e-09 -3.3173e-09 0
-9.95255e-09 -2.43167e-09 0
-1.03463e-08 -1.17682e-09 0
-7.82945e-09 -1.0637e-09 0
-5.77762e-09 -2.65795e-09 0
-3.56215e-09 -1.93048e-09 0
-3.2248e-13 2.53539e-13 0
2.23687e-13 2.31651e-13 0
3.41317e-15 3.29657e-09 0
-2.9745e-09 7.86621e-09 0
-7.86735e-09 5.92823e-09 0
-9.60439e-09 9.85094e-10 0
-8.3135e-09 -8.72562e-10 0
-6.84511e-09 -8.18462e-10 0
-6.05629e-09 -5.06658e-10 0
-5.73403e-09 -2.95527e-10 0
-5.62043e-09 -1.6926e-10 0
-5.58519e-09 -9.39833e-11 0
-5.57621e-09 -5.00784e-11 0
-5.57485e-09 -2.53961e-11 0
-5.57513e-09 -1.20527e-11 0
-5.5754e-09 -5.12561e-12 0
-5.57541e-09 -1.70077e-12 0
-5.57522e-09 -1.25193e-13 0
-5.57495e-09 5.0903e-13 0
-5.57466e-09 6.87378e-13 0
-5.5744e-09 6.62341e-13 0
-5.57418e-09 5.60638e-13 0
-5.574e-09 4.42507e-13 0
-5.57387e-09 3.33947e-13 0
-5.57376e-09 2.43971e-13 0
-5.57368e-09 1.73672e-13 0
-5.57363e-09 1.20845e-13 0
-5.57359e-09 8.22708e-14 0
-5.57356e-09 5.47447e-14 0
-5.57353e-09 3.54938e-14 0
-5.57352e-09 2.22849e-14 0
-5.57351e-09 1.33975e-14 0
-5.5735e-09 7.54483e-15 0
-5.57349e-09 3.78479e-15 0
-5.57349e-09 1.43635e-15 0
-5.57349e-09 7.16263e-18 0
-5.57349e-09 -8.6869e-16 0
-5.57349e-09 -1.4947e-15 0
-5.57348e-09 -2.21987e-15 0
-5.57348e-09 -3.56333e-15 0
-5.57348e-09 -6.10979e-15 0
-5.57348e-09 -9.63209e-15 0
0.0104059 4.71083e-09 0
0 -7.17077e-09 0
3.70164e-14 -1.7495e-09 0
-5.21876e-09 -3.20425e-09 0
-9.91018e-09 -2.06675e-09 0
-1.04879e-08 -8.14964e-10 0
-8.69357e-09 -5.04668e-10 0
-6.63986e-09 -1.43505e-09 0
-6.48187e-09 -4.06673e-09 0
-4.88757e-09 -2.93338e-09 0
-7.34973e-09 1.38057e-18 0
-8.54615e-09 3.12259e-09 0
-5.37658e-09 8.05772e-09 0
-4.14366e-09 6.76079e-09 0
-6.25754e-09 1.36161e-09 0
-7.22459e-09 -1.16691e-09 0
-7.10918e-09 -1.11673e-09 0
-6.9529e-09 -6.12588e-10 0
-6.92812e-09 -2.89131e-10 0
-6.95774e-09 -1.31009e-10 0
-6.99178e-09 -5.85863e-11 0
-7.01607e-09 -2.57151e-11 0
-7.0305e-09 -1.07544e-11 0
-7.03813e-09 -3.9679e-12 0
-7.04173e-09 -9.63845e-13 0
-7.04315e-09 2.75472e-13 0
-7.04347e-09 6.98281e-13 0
-7.04331e-09 7.5794e-13 0
-7.04297e-09 6.71731e-13 0
-7.0426e-09 5.41609e-13 0
-7.04226e-09 4.1266e-13 0
-7.04199e-09 3.02205e-13 0
-7.04177e-09 2.14489e-13 0
-7.0416e-09 1.48077e-13 0
-7.04148e-09 9.94875e-14 0
-7.04138e-09 6.48952e-14 0
-7.04132e-09 4.08525e-14 0
-7.04127e-09 2.45258e-14 0
-7.04123e-09 1.37073e-14 0
-7.04121e-09 6.73848e-15 0
-7.04119e-09 2.40606e-15 0
-7.04118e-09 -1.59357e-16 0
-7.04117e-09 -1.57127e-15 0
-7.04117e-09 -2.26095e-15 0
-7.04116e-09 -2.5352e-15 0
-7.04116e-09 -2.62503e-15 0
-7.04116e-09 -2.7288e-15 0
-7.04116e-09 -3.12109e-15 0
-7.04116e-09 -4.51771e-15 0
-7.04116e-09 -8.63867e-15 0
-7.04116e-09 -1.65452e-14 0
0.01002 6.24339e-09 0
0 -7.80764e-09 0
2.47115e-14 -1.12161e-09 0
-5.69687e-09 -2.02332e-09 0
-9.79241e-09 -1.27615e-09 0
-1.06975e-08 -6.51674e-10 0
-1.02584e-08 -9.53678e-10 0
-9.07339e-09 -1.7601e-09 0
-8.28496e-09 -2.04076e-09 0
-9.72816e-09 1.38303e-09 0
-1.00765e-08 4.72392e-09 0
-1.00123e-08 1.60358e-09 0
-7.35141e-09 -2.80015e-09 0
-6.15996e-09 -2.95962e-09 0
-8.15375e-09 -7.85331e-10 0
-9.40001e-09 6.34121e-10 0
-9.3993e-09 8.44802e-10 0
-9.17379e-09 5.63037e-10 0
-9.04586e-09 2.90622e-10 0
-8.99925e-09 1.33183e-10 0
-8.9878e-09 5.79331e-11 0
-8.98743e-09 2.48995e-11 0
-8.98918e-09 1.08689e-11 0
-8.99055e-09 4.9076e-12 0
-8.99118e-09 2.30978e-12 0
-8.9913e-09 1.12706e-12 0
-8.99114e-09 5.58998e-13 0
-8.99087e-09 2.71529e-13 0
-8.9906e-09 1.20105e-13 0
-8.99036e-09 3.87851e-14 0
-8.99017e-09 -4.48027e-15 0
-8.99002e-09 -2.63251e-14 0
-8.98991e-09 -3.59054e-14 0
-8.98983e-09 -3.84961e-14 0
-8.98978e-09 -3.72267e-14 0
-8.98975e-09 -3.39808e-14 0
-8.98972e-09 -2.98883e-14 0
-8.98971e-09 -2.56124e-14 0
-8.9897e-09 -2.1525e-14 0
-8.9897e-09 -1.78166e-14 0
-8.9897e-09 -1.45668e-14 0
-8.9897e-09 -1.17892e-14 0
-8.9897e-09 -9.46234e-15 0
-8.9897e-09 -7.55026e-15 0
-8.9897e-09 -6.01653e-15 0
-8.9897e-09 -4.84124e-15 0
-8.9897e-09 -4.03653e-15 0
-8.9897e-09 -3.6992e-15 0
-8.98971e-09 -4.38363e-15 0
-8.98971e-09 -8.55159e-15 0
-8.98972e-09 -1.98205e-14 0
0.00787961 5.05194e-09 0
0 0 0
1.08303e-14 0 0
-2.86599e-09 0 0
-4.75738e-09 0 0
-5.34676e-09 0 0
-5.45846e-09 0 0
-5.55387e-09 0 0
-5.36523e-09 0 0
-4.84062e-09 0 0
-2.72683e-09 0 0
-1.46615e-09 0 0
-2.6575e-09 0 0
-4.83886e-09 0 0
-6.14019e-09 0 0
-6.18953e-09 0 0
-5.71316e-09 0 0
-5.30081e-09 0 0
-5.06995e-09 0 0
-4.96276e-09 0 0
-4.91761e-09 0 0
-4.89962e-09 0 0
-4.89268e-09 0 0
-4.89005e-09 0 0
-4.88907e-09 0 0
-4.88872e-09 0 0
-4.8886e-09 0 0
-4.88857e-09 0 0
-4.88859e-09 0 0
-4.88861e-09 0 0
-4.88865e-09 0 0
-4.88868e-09 0 0
-4.88871e-09 0 0
-4.88874e-09 0 0
-4.88876e-09 0 0
-4.88878e-09 0 0
-4.8888e-09 0 0
-4.88881e-09 0 0
-4.88883e-09 0 0
-4.88884e-09 0 0
-4.88884e-09 0 0
-4.88885e-09 0 0
-4.88886e-09 0 0
-4.88886e-09 0 0
-4.88886e-09 0 0
-4.88887e-09 0 0
-4.88887e-09 0 0
-4.88887e-09 0 0
-4.88887e-09 0 0
-4.88887e-09 0 0
-4.88888e-09 0 0
0.00303958 0 0
0 0 8.11679e-09
3.44993e-14 0 1.84072e-09
-8.7815e-09 0 3.06285e-09
-1.56112e-08 0 -1.55525e-10
-1.67221e-08 0 -6.29174e-09
-1.61405e-09 0 -7.01015e-09
2.72323e-09 0 -2.63777e-09
2.11226e-09 0 -1.63171e-10
-4.34286e-10 0 7.71887e-10
-3.19979e-09 0 4.56035e-10
-4.99646e-09 0 -7.45174e-11
-6.06606e-09 0 -2.9381e-10
-6.7986e-09 0 -2.58866e-10
-7.34325e-09 0 -1.49614e-10
-7.76981e-09 0 -6.037e-11
-8.11693e-09 0 -1.01377e-11
-8.39297e-09 0 1.04961e-11
-8.60103e-09 0 1.50368e-11
-8.74968e-09 0 1.29956e-11
-8.85133e-09 0 9.32942e-12
-8.91853e-09 0 6.03595e-12
-8.96182e-09 0 3.63731e-12
-8.98917e-09 0 2.07174e-12
-9.0062e-09 0 1.12031e-12
-9.0167e-09 0 5.72576e-13
-9.02313e-09 0 2.71828e-13
-9.02705e-09 0 1.14484e-13
-9.02945e-09 0 3.68315e-14
-9.03091e-09 0 1.62293e-15
-9.0318e-09 0 -1.20374e-14
-9.03235e-09 0 -1.54349e-14
-9.0327e-09 0 -1.44215e-14
-9.03291e-09 0 -1.18837e-14
-9.03304e-09 0 -9.14471e-15
-9.03312e-09 0 -6.735e-15
-9.03317e-09 0 -4.80682e-15
-9.0332e-09 0 -3.3474e-15
-9.03322e-09 0 -2.28236e-15
-9.03323e-09 0 -1.52471e-15
-9.03324e-09 0 -9.95351e-16
-9.03324e-09 0 -6.2933e-16
-9.03325e-09 0 -3.74773e-16
-9.03325e-09 0 -1.90811e-16
-9.03325e-09 0 -4.24475e-17
-9.03325e-09 0 1.03914e-16
-9.03325e-09 0 2.58001e-16
-9.03325e-09 0 3.42856e-16
-9.03325e-09 0 4.73565e-16
-9.03325e-09 0 3.1457e-15
-9.03327e-09 0 1.5191e-14
0.00787513 0 -4.42018e-09
0.0036 3.43959e-09 3.75683e-09
0.00359999 -0.00202683 -0.000606628
0.00826049 -0.00576103 -0.00192312
0.0170577 -0.00888115 -0.00330585
0.028847 -0.0123715 -0.00422784
0.0465969 -0.0081162 -0.00270713
0.0484708 -3.76058e-05 -0.000310005
0.0477724 0.00322913 0.000550044
0.0424174 0.00484025 0.000521635
0.0368672 0.00454787 2.93233e-05
0.0320054 0.00367932 -0.000269007
0.0281241 0.00272825 -0.000306048
0.0253345 0.00188519 -0.000222754
0.0234902 0.00123692 -0.000128054
0.0223282 0.000786068 -6.21999e-05
0.0216168 0.000488304 -2.60528e-05
0.0211917 0.000297034 -9.19182e-06
0.0209434 0.000177032 -2.38154e-06
0.0208016 0.000103464 -8.52663e-08
0.0207226 5.93413e-05 4.44135e-07
0.0206796 3.34096e-05 4.00659e-07
0.020657 1.84543e-05 2.39257e-07
0.0206455 9.98452e-06 1.02455e-07
0.02064 5.27484e-06 1.64786e-08
0.0206377 2.70651e-06 -2.77733e-08
0.0206368 1.33638e-06 -4.52007e-08
0.0206367 6.24561e-07 -4.77857e-08
0.0206369 2.67163e-07 -4.33223e-08
0.0206371 9.60949e-08 -3.62879e-08
0.0206374 2.00887e-08 -2.89891e-08
0.0206376 -9.35892e-09 -2.24573e-08
0.0206378 -1.73564e-08 -1.70373e-08
0.0206379 -1.64583e-08 -1.27372e-08
0.020638 -1.26362e-08 -9.42305e-09
0.0206381 -8.51042e-09 -6.91844e-09
0.0206381 -5.06329e-09 -5.05137e-09
0.0206382 -2.52562e-09 -3.67317e-09
0.0206382 -8.19414e-10 -2.66315e-09
0.0206382 2.31308e-10 -1.9271e-09
0.0206382 8.07993e-10 -1.39345e-09
0.0206382 1.06288e-09 -1.00904e-09
0.0206382 1.11093e-09 -7.35433e-10
0.0206382 1.03266e-09 -5.45997e-10
0.0206382 8.80348e-10 -4.23596e-10
0.0206382 6.82253e-10 -3.59845e-10
0.0206382 4.36608e-10 -3.57699e-10
0.0206382 1.30608e-10 -3.83763e-10
0.0206382 -2.46937e-10 -2.73644e-10
0.0206383 -2.06416e-09 -1.03416e-09
0.0206383 -9.70391e-09 -6.86817e-09
0.0206383 -1.57352e-08 -1.18211e-08
0.01 3.25589e-09 -1.0236e-08
0.01 -0.00411716 -0.00116904
0.0153124 -0.0120563 -0.00308275
0.0244203 -0.0186936 -0.00440661
0.0365512 -0.0271331 -0.00424059
0.0553348 -0.0178357 -0.00109708
0.0542873 -0.000696599 0.00152672
0.0548591 0.006072 0.00183292
0.0489315 0.0108936 0.00137521
0.0426576 0.0105334 0.000325495
0.0374343 0.0089248 -0.00034557
0.0333072 0.0068302 -0.000471314
0.0304741 0.00474011 -0.000355799
0.0287348 0.00306473 -0.000207402
0.0277131 0.00190065 -0.000100862
0.0271279 0.00114716 -4.18044e-05
0.0268015 0.00067671 -1.41538e-05
0.026625 0.000390566 -2.96897e-06
0.026533 0.000220508 7.66165e-07
0.0264872 0.000121617 1.54892e-06
0.026466 6.53146e-05 1.3577e-06
0.0264572 3.39446e-05 9.63352e-07
0.0264546 1.68722e-05 6.17308e-07
0.0264546 7.83413e-06 3.7158e-07
0.0264557 3.21628e-06 2.13818e-07
0.0264571 9.72958e-07 1.18511e-07
0.0264583 -3.14356e-08 6.33454e-08
0.0264594 -4.14161e-07 3.2489e-08
0.0264602 -5.02594e-07 1.57645e-08
0.0264608 -4.65012e-07 6.99769e-09
0.0264613 -3.8421e-07 2.58841e-09
0.0264616 -2.98226e-07 4.99026e-10
0.0264619 -2.22446e-07 -3.94659e-10
0.026462 -1.61357e-07 -6.98031e-10
0.0264622 -1.14609e-07 -7.28581e-10
0.0264623 -8.00442e-08 -6.47457e-10
0.0264623 -5.51091e-08 -5.32789e-10
0.0264624 -3.7459e-08 -4.19783e-10
0.0264624 -2.51596e-08 -3.22261e-10
0.0264624 -1.6708e-08 -2.44032e-10
0.0264624 -1.09807e-08 -1.84831e-10
0.0264624 -7.16121e-09 -1.43408e-10
0.0264624 -4.67175e-09 -1.1921e-10
0.0264624 -3.1177e-09 -1.12884e-10
0.0264624 -2.24662e-09 -1.24397e-10
0.0264624 -1.94923e-09 -1.54504e-10
0.0264624 -2.4807e-09 -1.88749e-10
0.0264625 -4.74115e-09 -9.48727e-11
0.0264625 -9.15062e-09 -1.21441e-09
0.0264625 -1.52971e-08 -8.78814e-09
0.0264625 -1.87543e-08 -1.51343e-08
0.0148 -1.37267e-08 -1.36256e-08
0.0148 -0.00598674 -0.00168756
0.0193308 -0.0169117 -0.004447
0.0251934 -0.0260945 -0.00587006
0.0292592 -0.0392531 -0.00468779
0.0278687 -0.0240839 -0.000755701
0.0260317 -1.61485e-07 0.00152878
0.0264969 0.00807837 0.00165704
0.031513 0.0167929 0.00149056
0.0312543 0.016132 0.000636763
0.0296058 0.0132702 -3.29451e-05
0.0282665 0.00991455 -0.000280673
0.0275204 0.00661235 -0.000257002
0.0272699 0.00408468 -0.000157696
0.0272279 0.0024341 -7.11796e-05
0.0272602 0.0014162 -2.14754e-05
0.0273144 0.000804803 5.98437e-08
0.0273684 0.000446038 6.61904e-06
0.0274135 0.000240466 6.94093e-06
0.027448 0.000125466 5.36439e-06
0.0274728 6.27164e-05 3.638e-06
0.0274901 2.94143e-05 2.29118e-06
0.0275019 1.23347e-05 1.3751e-06
0.0275098 3.97889e-06 7.97272e-07
0.0275151 1.84187e-07 4.4989e-07
0.0275186 -1.31126e-06 2.47973e-07
0.0275209 -1.70768e-06 1.33594e-07
0.0275224 -1.62363e-06 7.01851e-08
0.0275235 -1.36542e-06 3.5732e-08
0.0275242 -1.07569e-06 1.74014e-08
0.0275247 -8.13948e-07 7.88764e-09
0.027525 -5.99324e-07 3.10954e-09
0.0275252 -4.32683e-07 8.2414e-10
0.0275253 -3.07724e-07 -1.81978e-10
0.0275254 -2.16249e-07 -5.54283e-10
0.0275255 -1.50457e-07 -6.29296e-10
0.0275255 -1.03778e-07 -5.77886e-10
0.0275256 -7.10255e-08 -4.83573e-10
0.0275256 -4.82631e-08 -3.84806e-10
0.0275256 -3.25836e-08 -2.97509e-10
0.0275256 -2.18827e-08 -2.26984e-10
0.0275256 -1.46628e-08 -1.74056e-10
0.0275256 -9.87855e-09 -1.38006e-10
0.0275256 -6.8272e-09 -1.17987e-10
0.0275256 -5.0989e-09 -1.16658e-10
0.0275256 -4.54747e-09 -1.50705e-10
0.0275256 -5.08031e-09 -2.39568e-10
0.0275256 -6.48856e-09 -3.18284e-10
0.0275257 -8.80812e-09 -1.73609e-09
0.0275257 -1.19917e-08 -9.22396e-09
0.0275256 -1.37465e-08 -1.53132e-08
0.018 -3.10529e-08 -1.94754e-08
0.018 -0.00662345 -0.00246195
0.0197253 -0.0172318 -0.00645144
0.0197839 -0.0217662 -0.00736846
0.0160846 -0.0232201 -0.00575977
-1.46013e-08 -0.0120623 -0.00238082
1.64537e-06 5.85728e-07 7.44483e-09
-6.60407e-07 7.00411e-07 0.000302573
0.0079645 0.00573798 0.000597227
0.0166008 0.0123674 0.000477348
0.0197731 0.012019 0.000193585
0.0213127 0.00906206 -7.20947e-05
0.0230006 0.00585182 -0.000158938
0.0245369 0.00342489 -0.000112461
0.0256698 0.00194032 -4.38447e-05
0.026427 0.00106935 -1.77745e-06
0.0269108 0.000568169 1.40079e-05
0.0272119 0.000288388 1.57249e-05
0.0273957 0.000137828 1.24306e-05
0.0275063 5.99965e-05 8.46481e-06
0.027572 2.16287e-05 5.29852e-06
0.0276108 3.92731e-06 3.14016e-06
0.0276335 -3.36119e-06 1.78917e-06
0.0276468 -5.65612e-06 9.87656e-07
0.0276546 -5.73179e-06 5.29594e-07
0.0276592 -4.95528e-06 2.75284e-07
0.0276618 -3.96472e-06 1.37626e-07
0.0276634 -3.03185e-06 6.4995e-08
0.0276644 -2.2515e-06 2.78065e-08
0.0276649 -1.63831e-06 9.52396e-09
0.0276653 -1.17446e-06 1.08763e-09
0.0276655 -8.32354e-07 -2.37446e-09
0.0276656 -5.84515e-07 -3.43147e-09
0.0276657 -4.07343e-07 -3.4066e-09
0.0276657 -2.81992e-07 -2.9599e-09
0.0276658 -1.94045e-07 -2.40499e-09
0.0276658 -1.32777e-07 -1.87893e-09
0.0276658 -9.03646e-08 -1.43182e-09
0.0276658 -6.11796e-08 -1.0733e-09
0.0276658 -4.122e-08 -7.96091e-10
0.0276658 -2.76665e-08 -5.87509e-10
0.0276658 -1.85526e-08 -4.35063e-10
0.0276658 -1.25258e-08 -3.29371e-10
0.0276658 -8.67202e-09 -2.66331e-10
0.0276658 -6.36637e-09 -2.52623e-10
0.0276658 -5.15021e-09 -3.21259e-10
0.0276658 -4.69525e-09 -4.90455e-10
0.0276658 -4.76417e-09 -6.26808e-10
0.0276658 -5.3314e-09 -2.04553e-09
0.0276658 -6.33652e-09 -9.2384e-09
0.0276658 -6.91264e-09 -1.50411e-08
0.0196 -3.74494e-08 -3.59917e-08
0.0196 -0.00500908 -0.00316476
0.0190441 -0.0113775 -0.00767046
0.0165917 -0.0132849 -0.00777933
0.0122695 -0.0114081 -0.00574309
0.00284538 -0.00449178 -0.00305663
1.25784e-06 -1.16262e-06 -0.000587135
5.02214e-07 -5.02214e-07 -8.38231e-10
-6.39199e-07 6.81615e-07 6.59544e-05
0.0057192 0.00421312 0.000148593
0.0123312 0.00853946 0.000119238
0.0152508 0.0067418 -5.55971e-05
0.0189065 0.00346525 -0.000197984
0.0221604 0.00146848 -0.000165256
0.0244254 0.000565898 -7.65216e-05
0.0258187 0.000177783 -1.3821e-05
0.0266319 1.49058e-05 1.16826e-05
0.0270958 -4.51151e-05 1.5984e-05
0.027357 -5.89856e-05 1.27638e-05
0.0275027 -5.43033e-05 8.45622e-06
0.0275833 -4.39486e-05 5.0818e-06
0.0276275 -3.3353e-05 2.87106e-06
0.0276516 -2.44094e-05 1.54889e-06
0.0276646 -1.74783e-05 8.01383e-07
0.0276716 -1.23459e-05 3.95536e-07
0.0276753 -8.64409e-06 1.82707e-07
0.0276772 -6.01662e-06 7.50923e-08
0.0276782 -4.17034e-06 2.31736e-08
0.0276787 -2.88144e-06 -1.05166e-10
0.0276789 -1.98562e-06 -9.16107e-09
0.027679 -1.36501e-06 -1.14975e-08
0.0276791 -9.36139e-07 -1.09165e-08
0.0276791 -6.40427e-07 -9.27708e-09
0.0276791 -4.36957e-07 -7.43899e-09
0.0276791 -2.97255e-07 -5.76189e-09
0.027679 -2.01559e-07 -4.36456e-09
0.027679 -1.36173e-07 -3.2569e-09
0.027679 -9.16298e-08 -2.40535e-09
0.027679 -6.13898e-08 -1.76399e-09
0.027679 -4.09482e-08 -1.28832e-09
0.027679 -2.72078e-08 -9.40789e-10
0.027679 -1.80449e-08 -6.9265e-10
0.027679 -1.20042e-08 -5.24779e-10
0.027679 -8.08309e-09 -4.28314e-10
0.027679 -5.58414e-09 -4.04891e-10
0.027679 -4.0063e-09 -4.73918e-10
0.027679 -2.95742e-09 -6.41322e-10
0.027679 -2.09305e-09 -7.62731e-10
0.027679 -1.22604e-09 -2.14651e-09
0.027679 -3.20335e-10 -9.19757e-09
0.027679 1.46005e-10 -1.48805e-08
0.0196 -1.95795e-08 -4.98412e-08
0.0196 -0.00284178 -0.0034375
0.019106 -0.00586974 -0.0076941
0.0181023 -0.00533214 -0.00743741
0.0150432 -0.00181949 -0.00522831
0.0112388 0.00404363 -0.00317997
0.00689256 0.00355894 -0.00139681
1.2589e-06 -1.06634e-06 -0.000264382
4.27139e-07 -4.27139e-07 -1.97323e-09
-6.13378e-07 6.6502e-07 1.72675e-05
0.00420761 0.002465 0.000276377
0.00913815 0.00252987 0.000247733
0.0155025 -0.000958304 -0.000178158
0.020838 -0.00201313 -0.00030437
0.0241583 -0.00167848 -0.000199295
0.0259097 -0.00112685 -7.82395e-05
0.0267875 -0.000711411 -1.68403e-05
0.0272274 -0.000442349 2.82162e-06
0.0274492 -0.000273963 5.87424e-06
0.027561 -0.00016957 4.50219e-06
0.0276169 -0.000105165 2.73383e-06
0.0276445 -6.55187e-05 1.47444e-06
0.0276577 -4.10903e-05 7.25895e-07
0.0276638 -2.59772e-05 3.21618e-07
0.0276663 -1.65657e-05 1.18333e-07
0.0276672 -1.06563e-05 2.35144e-08
0.0276674 -6.91142e-06 -1.60376e-08
0.0276672 -4.51583e-06 -2.89733e-08
0.027667 -2.96928e-06 -3.00147e-08
0.0276667 -1.96242e-06 -2.64027e-08
0.0276665 -1.30203e-06 -2.15139e-08
0.0276663 -8.66175e-07 -1.67967e-08
0.0276662 -5.77062e-07 -1.27745e-08
0.0276661 -3.84566e-07 -9.55157e-09
0.027666 -2.56074e-07 -7.06036e-09
0.027666 -1.7019e-07 -5.17776e-09
0.0276659 -1.12773e-07 -3.7762e-09
0.0276659 -7.44246e-08 -2.7436e-09
0.0276659 -4.88669e-08 -1.98885e-09
0.0276659 -3.18929e-08 -1.44132e-09
0.0276658 -2.06761e-08 -1.04829e-09
0.0276658 -1.33118e-08 -7.72177e-10
0.0276658 -8.51154e-09 -5.88135e-10
0.0276658 -5.39482e-09 -4.8216e-10
0.0276658 -3.34463e-09 -4.52013e-10
0.0276658 -1.90311e-09 -5.16597e-10
0.0276658 -6.78026e-10 -6.81819e-10
0.0276658 7.64132e-10 -7.88158e-10
0.0276658 2.85485e-09 -2.12626e-09
0.0276658 5.64667e-09 -9.15646e-09
0.0276658 7.18352e-09 -1.48499e-08
0.018 -1.19556e-08 -4.93727e-08
0.018 -0.00109785 -0.00337772
0.01866 -0.0016156 -0.00728439
0.0195149 -9.60111e-05 -0.00668188
0.0193933 0.00251544 -0.00450665
0.0193236 0.00784006 -0.0027454
0.0196494 0.0129515 -0.00144117
0.0121231 0.00720517 -0.000655682
1.2887e-06 -8.43978e-07 -0.000228417
-4.9901e-07 -9.60211e-07 7.7895e-09
1.27997e-07 -0.000688211 0.000854537
0.00954485 -0.0046017 0.00112164
0.0175659 -0.00811232 0.000143993
0.0228635 -0.00703455 -0.00030433
0.025668 -0.00440936 -0.000285305
0.0268775 -0.00241109 -0.000146213
0.0273378 -0.00129164 -5.63676e-05
0.0274994 -0.000706115 -1.85646e-05
0.0275494 -0.000394297 -5.52393e-06
0.0275595 -0.000223627 -1.52375e-06
0.0275565 -0.000128458 -4.20917e-07
0.0275503 -7.46994e-05 -1.58214e-07
0.0275442 -4.39841e-05 -1.07241e-07
0.0275392 -2.62302e-05 -9.54332e-08
0.0275354 -1.58424e-05 -8.44293e-08
0.0275326 -9.68705e-06 -7.04053e-08
0.0275305 -5.99227e-06 -5.58047e-08
0.0275291 -3.74596e-06 -4.26756e-08
0.0275281 -2.36335e-06 -3.18659e-08
0.0275273 -1.50251e-06 -2.343e-08
0.0275268 -9.60928e-07 -1.70607e-08
0.0275265 -6.17113e-07 -1.23495e-08
0.0275262 -3.97212e-07 -8.9084e-09
0.027526 -2.55747e-07 -6.41407e-09
0.0275259 -1.64375e-07 -4.61404e-09
0.0275258 -1.05227e-07 -3.31828e-09
0.0275258 -6.69269e-08 -2.38681e-09
0.0275257 -4.21684e-08 -1.7179e-09
0.0275257 -2.62249e-08 -1.2383e-09
0.0275257 -1.60215e-08 -8.95811e-10
0.0275257 -9.54778e-09 -6.53842e-10
0.0275257 -5.48254e-09 -4.87705e-10
0.0275257 -2.94954e-09 -3.82301e-10
0.0275257 -1.35579e-09 -3.30754e-10
0.0275257 -2.80079e-10 -3.35424e-10
0.0275256 6.07908e-10 -4.1897e-10
0.0275256 1.62615e-09 -5.9311e-10
0.0275256 3.25202e-09 -6.86186e-10
0.0275256 6.3227e-09 -1.94331e-09
0.0275256 1.11487e-08 -9.02959e-09
0.0275256 1.39466e-08 -1.48439e-08
0.0148 -8.06994e-09 -4.28321e-08
0.0148 -0.000165402 -0.00318069
0.0169372 0.000450661 -0.00654755
0.0197923 0.00216201 -0.0056184
0.0222183 0.00452305 -0.00363857
0.0242336 0.00752229 -0.00236505
0.0274453 0.0126459 -0.00150879
0.0304877 0.020357 -0.000824432
0.0247361 0.0122563 -0.000118632
0.0256849 1.49811e-14 0.000533986
0.0303224 -0.00739802 0.00174253
0.0349431 -0.015411 0.00226653
0.03416 -0.01425 0.00102818
0.03139 -0.00993977 -5.07227e-05
0.0292028 -0.00554839 -0.000370561
0.0279492 -0.00272185 -0.000262506
0.0272844 -0.0013029 -0.000123878
0.0269285 -0.000643271 -4.96401e-05
0.0267328 -0.000330633 -1.85573e-05
0.0266224 -0.000175652 -6.71949e-06
0.0265587 -9.56781e-05 -2.38605e-06
0.0265214 -5.31299e-05 -8.27184e-07
0.0264991 -2.99658e-05 -2.71367e-07
0.0264855 -1.71246e-05 -7.51658e-08
0.0264772 -9.89835e-06 -7.81316e-09
0.026472 -5.77851e-06 1.3285e-08
0.0264687 -3.40194e-06 1.78759e-08
0.0264665 -2.01621e-06 1.68079e-08
0.0264652 -1.20038e-06 1.4087e-08
0.0264643 -7.16004e-07 1.1186e-08
0.0264637 -4.26441e-07 8.61326e-09
0.0264633 -2.5249e-07 6.50184e-09
0.026463 -1.47737e-07 4.84022e-09
0.0264628 -8.46971e-08 3.56639e-09
0.0264627 -4.69337e-08 2.6072e-09
0.0264626 -2.4532e-08 1.89417e-09
0.0264626 -1.14675e-08 1.36913e-09
0.0264625 -4.05863e-09 9.85099e-10
0.0264625 -4.76725e-11 7.05269e-10
0.0264625 1.95244e-09 5.01214e-10
0.0264625 2.79438e-09 3.50928e-10
0.0264625 3.00356e-09 2.36865e-10
0.0264625 2.90806e-09 1.44033e-10
0.0264625 2.72273e-09 5.82433e-11
0.0264624 2.60856e-09 -3.6559e-11
0.0264624 2.7213e-09 -1.69144e-10
0.0264624 3.25508e-09 -3.57437e-10
0.0264624 4.61857e-09 -4.48948e-10
0.0264625 8.10647e-09 -1.59034e-09
0.0264625 1.47256e-08 -8.58565e-09
0.0264625 1.88202e-08 -1.44235e-08
0.01 -1.49187e-08 -3.88649e-08
0.01 -6.2898e-05 -0.00269978
0.0126239 0.000525684 -0.00515996
0.016255 0.00167141 -0.00396765
0.0199416 0.00313006 -0.00240332
0.0242315 0.00575339 -0.00172928
0.0296482 0.00842006 -0.00171785
0.0383022 0.0106224 -0.00135322