# vtk DataFile Version 2.0
Tobias Weinzierl: CPU, Manycore and Cluster Computing
ASCII

DATASET STRUCTURED_POINTS
DIMENSIONS  51 11 6

ORIGIN 0 0 0 

SPACING 0.1 0.1 0.1 

POINT_DATA 3366

VECTORS velocity float
0 0 0
-1.36034e-14 0 0
-9.61098e-09 0 0
-1.24507e-08 0 0
-1.13889e-08 0 0
-7.34744e-09 0 0
-9.74994e-09 0 0
-1.18848e-08 0 0
-1.284e-08 0 0
-1.26554e-08 0 0
-1.22098e-08 0 0
-1.19661e-08 0 0
-1.19376e-08 0 0
-1.2037e-08 0 0
-1.21943e-08 0 0
-1.23618e-08 0 0
-1.25131e-08 0 0
-1.26382e-08 0 0
-1.27363e-08 0 0
-1.28109e-08 0 0
-1.28665e-08 0 0
-1.29076e-08 0 0
-1.29376e-08 0 0
-1.29596e-08 0 0
-1.29757e-08 0 0
-1.29874e-08 0 0
-1.29959e-08 0 0
-1.30022e-08 0 0
-1.30067e-08 0 0
-1.30101e-08 0 0
-1.30126e-08 0 0
-1.30144e-08 0 0
-1.30157e-08 0 0
-1.30166e-08 0 0
-1.30174e-08 0 0
-1.30179e-08 0 0
-1.30183e-08 0 0
-1.30185e-08 0 0
-1.30187e-08 0 0
-1.30189e-08 0 0
-1.3019e-08 0 0
-1.30191e-08 0 0
-1.30192e-08 0 0
-1.30192e-08 0 0
-1.30192e-08 0 0
-1.30192e-08 0 0
-1.30193e-08 0 0
-1.30193e-08 0 0
-1.30193e-08 0 0
-1.30193e-08 0 0
0.0043855 0 0
0 7.7354e-09 0
-4.19245e-15 6.54494e-09 0
-1.8626e-08 9.65229e-09 0
-2.16434e-08 4.26819e-09 0
-1.76892e-08 -2.11591e-10 0
-8.0561e-09 1.2866e-09 0
-1.10013e-08 4.36268e-09 0
-1.39926e-08 2.20995e-09 0
-1.4519e-08 2.5862e-10 0
-1.45839e-08 -5.60002e-10 0
-1.46084e-08 -4.0479e-10 0
-1.5305e-08 -1.73138e-11 0
-1.62144e-08 2.30119e-10 0
-1.7055e-08 3.36912e-10 0
-1.77634e-08 3.58351e-10 0
-1.83279e-08 3.30186e-10 0
-1.87582e-08 2.79303e-10 0
-1.90758e-08 2.23765e-10 0
-1.93053e-08 1.73065e-10 0
-1.94694e-08 1.30831e-10 0
-1.95862e-08 9.74735e-11 0
-1.96692e-08 7.19738e-11 0
-1.97285e-08 5.28696e-11 0
-1.97709e-08 3.87307e-11 0
-1.98014e-08 2.83399e-11 0
-1.98234e-08 2.0732e-11 0
-1.98393e-08 1.51705e-11 0
-1.98509e-08 1.11065e-11 0
-1.98594e-08 8.1357e-12 0
-1.98656e-08 5.96269e-12 0
-1.98701e-08 4.37202e-12 0
-1.98735e-08 3.20681e-12 0
-1.98759e-08 2.35272e-12 0
-1.98777e-08 1.72636e-12 0
-1.9879e-08 1.26685e-12 0
-1.988e-08 9.29634e-13 0
-1.98807e-08 6.82125e-13 0
-1.98812e-08 5.00432e-13 0
-1.98816e-08 3.67039e-13 0
-1.98819e-08 2.6909e-13 0
-1.98821e-08 1.97147e-13 0
-1.98823e-08 1.44277e-13 0
-1.98824e-08 1.05392e-13 0
-1.98825e-08 7.67557e-14 0
-1.98825e-08 5.56456e-14 0
-1.98826e-08 4.01172e-14 0
-1.98826e-08 2.90384e-14 0
-1.98826e-08 2.29704e-14 0
-1.98826e-08 2.89316e-14 0
-1.98827e-08 6.4802e-14 0
0.0101191 -1.40661e-08 0
0 6.91553e-10 0
7.17159e-14 8.67082e-09 0
-1.82927e-08 1.21385e-08 0
-1.69037e-08 5.27515e-09 0
-9.39114e-09 -1.42984e-09 0
-9.93669e-09 -4.31144e-10 0
-1.16894e-08 4.11351e-09 0
-1.48516e-08 1.41611e-10 0
-6.28073e-09 -1.1278e-09 0
-4.09119e-09 7.81465e-10 0
-4.44049e-09 2.12157e-09 0
-6.05983e-09 2.7295e-09 0
-7.76251e-09 2.42927e-09 0
-9.07132e-09 1.8974e-09 0
-1.00363e-08 1.43067e-09 0
-1.07277e-08 1.05882e-09 0
-1.12088e-08 7.71015e-10 0
-1.15372e-08 5.54544e-10 0
-1.17595e-08 3.95839e-10 0
-1.191e-08 2.81643e-10 0
-1.20125e-08 2.00413e-10 0
-1.20832e-08 1.42944e-10 0
-1.21324e-08 1.02322e-10 0
-1.21671e-08 7.35483e-11 0
-1.21918e-08 5.30862e-11 0
-1.22095e-08 3.84648e-11 0
-1.22223e-08 2.79647e-11 0
-1.22316e-08 2.03886e-11 0
-1.22384e-08 1.48992e-11 0
-1.22434e-08 1.09074e-11 0
-1.22471e-08 7.99612e-12 0
-1.22498e-08 5.86787e-12 0
-1.22517e-08 4.30922e-12 0
-1.22532e-08 3.16614e-12 0
-1.22543e-08 2.32698e-12 0
-1.22551e-08 1.71049e-12 0
-1.22557e-08 1.25736e-12 0
-1.22561e-08 9.24174e-13 0
-1.22564e-08 6.79121e-13 0
-1.22566e-08 4.98845e-13 0
-1.22568e-08 3.66187e-13 0
-1.22569e-08 2.68535e-13 0
-1.2257e-08 1.96629e-13 0
-1.22571e-08 1.43706e-13 0
-1.22572e-08 1.04928e-13 0
-1.22572e-08 7.70119e-14 0
-1.22572e-08 5.7936e-14 0
-1.22572e-08 4.68991e-14 0
-1.22572e-08 4.37309e-14 0
-1.22573e-08 4.9638e-14 0
0.0115802 -1.19292e-08 0
0 -8.7032e-09 0
1.59045e-13 6.55536e-09 0
-1.96814e-08 7.67392e-09 0
-1.65777e-08 1.95909e-09 0
-6.86817e-09 4.68589e-09 0
-9.22804e-09 3.84538e-09 0
-1.0438e-08 5.22111e-15 0
-1.27437e-08 -1.22894e-08 0
-1.81564e-08 -1.54942e-08 0
-1.13221e-08 -1.96012e-09 0
-8.63237e-09 3.95204e-09 0
-8.20267e-09 5.22301e-09 0
-8.53519e-09 4.3635e-09 0
-8.98667e-09 3.16785e-09 0
-9.43524e-09 2.25531e-09 0
-9.79662e-09 1.59164e-09 0
-1.00566e-08 1.11401e-09 0
-1.0235e-08 7.76453e-10 0
-1.0356e-08 5.41453e-10 0
-1.04388e-08 3.79116e-10 0
-1.04963e-08 2.67084e-10 0
-1.05371e-08 1.89471e-10 0
-1.05664e-08 1.3534e-10 0
-1.05877e-08 9.72863e-11 0
-1.06033e-08 7.0315e-11 0
-1.06149e-08 5.10526e-11 0
-1.06234e-08 3.72028e-11 0
-1.06297e-08 2.71881e-11 0
-1.06344e-08 1.99128e-11 0
-1.06378e-08 1.46082e-11 0
-1.06404e-08 1.07294e-11 0
-1.06423e-08 7.88706e-12 0
-1.06437e-08 5.80091e-12 0
-1.06447e-08 4.26801e-12 0
-1.06455e-08 3.14073e-12 0
-1.06461e-08 2.31128e-12 0
-1.06465e-08 1.70077e-12 0
-1.06468e-08 1.2513e-12 0
-1.0647e-08 9.2033e-13 0
-1.06472e-08 6.76588e-13 0
-1.06473e-08 4.97038e-13 0
-1.06474e-08 3.64723e-13 0
-1.06475e-08 2.67157e-13 0
-1.06475e-08 1.95147e-13 0
-1.06476e-08 1.41913e-13 0
-1.06476e-08 1.02509e-13 0
-1.06476e-08 7.36522e-14 0
-1.06476e-08 5.34614e-14 0
-1.06476e-08 4.11612e-14 0
-1.06476e-08 3.51318e-14 0
0.0116998 -7.6752e-09 0
0 -1.58284e-08 0
1.98703e-13 3.0193e-09 0
-2.23816e-08 1.93093e-09 0
-2.03055e-08 -7.93919e-10 0
-1.03403e-08 2.3929e-09 0
-3.4446e-14 2.09841e-09 0
-6.7636e-13 -7.01661e-13 0
6.07535e-13 -7.27926e-13 0
-1.35547e-08 -8.53592e-09 0
-1.79186e-08 -1.03207e-08 0
-1.28887e-08 -1.31978e-10 0
-1.18974e-08 3.90289e-09 0
-1.12426e-08 4.09635e-09 0
-1.07743e-08 3.24489e-09 0
-1.05658e-08 2.40549e-09 0
-1.04789e-08 1.7114e-09 0
-1.04432e-08 1.19295e-09 0
-1.04316e-08 8.28139e-10 0
-1.0432e-08 5.77759e-10 0
-1.04383e-08 4.06635e-10 0
-1.0447e-08 2.88927e-10 0
-1.04561e-08 2.07084e-10 0
-1.04645e-08 1.49509e-10 0
-1.04719e-08 1.08566e-10 0
-1.0478e-08 7.91848e-11 0
-1.04829e-08 5.79445e-11 0
-1.04867e-08 4.25026e-11 0
-1.04898e-08 3.12283e-11 0
-1.04921e-08 2.29711e-11 0
-1.04938e-08 1.69101e-11 0
-1.04951e-08 1.24542e-11 0
-1.04961e-08 9.17481e-12 0
-1.04969e-08 6.75964e-12 0
-1.04974e-08 4.98017e-12 0
-1.04978e-08 3.66877e-12 0
-1.04981e-08 2.70223e-12 0
-1.04984e-08 1.98986e-12 0
-1.04985e-08 1.46483e-12 0
-1.04986e-08 1.0779e-12 0
-1.04987e-08 7.92715e-13 0
-1.04988e-08 5.82488e-13 0
-1.04989e-08 4.27428e-13 0
-1.04989e-08 3.12922e-13 0
-1.04989e-08 2.28178e-13 0
-1.04989e-08 1.65274e-13 0
-1.04989e-08 1.18449e-13 0
-1.0499e-08 8.35262e-14 0
-1.0499e-08 5.75241e-14 0
-1.0499e-08 3.83949e-14 0
-1.0499e-08 2.37184e-14 0
0.0117066 -3.68505e-09 0
0 -1.36025e-08 0
2.32271e-13 7.03498e-10 0
-2.38438e-08 -5.57174e-11 0
-2.31828e-08 -1.80718e-09 0
-1.46667e-08 -2.06581e-09 0
-5.51275e-09 -1.01785e-09 0
-6.75494e-13 6.34661e-13 0
-2.7129e-14 2.7129e-14 0
5.80922e-13 -6.34145e-13 0
-8.75915e-09 -4.52618e-09 0
-1.08878e-08 -2.79862e-09 0
-1.41015e-08 3.92808e-09 0
-1.38897e-08 3.81332e-09 0
-1.26612e-08 2.80175e-09 0
-1.17449e-08 2.03316e-09 0
-1.11903e-08 1.43517e-09 0
-1.08755e-08 1.00744e-09 0
-1.0701e-08 7.13637e-10 0
-1.0605e-08 5.11783e-10 0
-1.05523e-08 3.70998e-10 0
-1.05235e-08 2.711e-10 0
-1.05078e-08 1.99171e-10 0
-1.04994e-08 1.46816e-10 0
-1.04949e-08 1.0843e-10 0
-1.04925e-08 8.01559e-11 0
-1.04913e-08 5.92748e-11 0
-1.04907e-08 4.38324e-11 0
-1.04905e-08 3.24056e-11 0
-1.04904e-08 2.39493e-11 0
-1.04903e-08 1.76927e-11 0
-1.04904e-08 1.30651e-11 0
-1.04904e-08 9.64376e-12 0
-1.04904e-08 7.11543e-12 0
-1.04904e-08 5.24784e-12 0
-1.04904e-08 3.8689e-12 0
-1.04904e-08 2.85118e-12 0
-1.04905e-08 2.10032e-12 0
-1.04905e-08 1.54653e-12 0
-1.04905e-08 1.13818e-12 0
-1.04905e-08 8.37091e-13 0
-1.04905e-08 6.15065e-13 0
-1.04905e-08 4.51244e-13 0
-1.04905e-08 3.30211e-13 0
-1.04905e-08 2.40559e-13 0
-1.04905e-08 1.73829e-13 0
-1.04905e-08 1.23724e-13 0
-1.04905e-08 8.55457e-14 0
-1.04905e-08 5.58098e-14 0
-1.04905e-08 3.18608e-14 0
-1.04905e-08 1.12725e-14 0
0.0117068 1.35337e-10 0
0 -9.38654e-09 0
2.4224e-13 -1.43169e-09 0
-2.31276e-08 -2.6294e-09 0
-2.31894e-08 -1.93892e-09 0
-1.61586e-08 -1.58587e-09 0
-1.12853e-08 -5.13865e-09 0
-7.19205e-09 -4.29397e-09 0
-6.84547e-13 5.84775e-13 0
-3.85439e-15 3.85439e-15 0
5.82517e-13 -5.79326e-13 0
-4.58958e-09 4.7483e-09 0
-1.75192e-08 7.22358e-09 0
-1.79831e-08 3.43545e-09 0
-1.45903e-08 1.56597e-09 0
-1.24993e-08 1.06317e-09 0
-1.15256e-08 8.15733e-10 0
-1.10655e-08 6.40394e-10 0
-1.08325e-08 5.02645e-10 0
-1.07065e-08 3.91634e-10 0
-1.0634e-08 3.02445e-10 0
-1.059e-08 2.3161e-10 0
-1.0562e-08 1.76069e-10 0
-1.05434e-08 1.33028e-10 0
-1.05308e-08 1.00005e-10 0
-1.0522e-08 7.48753e-11 0
-1.05157e-08 5.58773e-11 0
-1.05113e-08 4.15904e-11 0
-1.0508e-08 3.08912e-11 0
-1.05056e-08 2.29052e-11 0
-1.05039e-08 1.69603e-11 0
-1.05026e-08 1.2544e-11 0
-1.05017e-08 9.26884e-12 0
-1.0501e-08 6.84335e-12 0
-1.05004e-08 5.04911e-12 0
-1.05001e-08 3.72306e-12 0
-1.04998e-08 2.74377e-12 0
-1.04996e-08 2.02103e-12 0
-1.04994e-08 1.4879e-12 0
-1.04993e-08 1.09478e-12 0
-1.04992e-08 8.04957e-13 0
-1.04992e-08 5.91264e-13 0
-1.04991e-08 4.33612e-13 0
-1.04991e-08 3.17128e-13 0
-1.04991e-08 2.30777e-13 0
-1.0499e-08 1.66315e-13 0
-1.0499e-08 1.17503e-13 0
-1.0499e-08 7.95297e-14 0
-1.0499e-08 4.86716e-14 0
-1.0499e-08 2.20322e-14 0
-1.0499e-08 -2.41425e-15 0
0.0117066 3.93915e-09 0
0 -6.69103e-09 0
1.9262e-13 -3.22578e-09 0
-2.14119e-08 -4.76884e-09 0
-2.18468e-08 -2.33195e-09 0
-1.61926e-08 -1.91289e-09 0
-1.26146e-08 -2.83894e-09 0
-1.30283e-08 -8.34417e-09 0
-9.46939e-09 -6.62925e-09 0
-6.94705e-13 4.74844e-13 0
5.93722e-13 3.78379e-13 0
8.70413e-14 1.347e-08 0
-1.86295e-08 1.66167e-08 0
-2.04807e-08 2.18003e-09 0
-1.53542e-08 -1.46426e-09 0
-1.24857e-08 -5.08998e-10 0
-1.14611e-08 1.32798e-10 0
-1.11014e-08 3.16076e-10 0
-1.09503e-08 3.30987e-10 0
-1.08686e-08 2.93058e-10 0
-1.08146e-08 2.41901e-10 0
-1.07749e-08 1.92241e-10 0
-1.07445e-08 1.49292e-10 0
-1.07211e-08 1.14215e-10 0
-1.07031e-08 8.64952e-11 0
-1.06893e-08 6.50378e-11 0
-1.06789e-08 4.86529e-11 0
-1.0671e-08 3.62585e-11 0
-1.0665e-08 2.69449e-11 0
-1.06606e-08 1.99804e-11 0
-1.06573e-08 1.4791e-11 0
-1.06548e-08 1.0935e-11 0
-1.06529e-08 8.07553e-12 0
-1.06516e-08 5.9586e-12 0
-1.06506e-08 4.39339e-12 0
-1.06498e-08 3.23728e-12 0
-1.06493e-08 2.38407e-12 0
-1.06488e-08 1.75482e-12 0
-1.06485e-08 1.29098e-12 0
-1.06483e-08 9.49211e-13 0
-1.06481e-08 6.9743e-13 0
-1.0648e-08 5.11921e-13 0
-1.06479e-08 3.75151e-13 0
-1.06479e-08 2.74139e-13 0
-1.06478e-08 1.99239e-13 0
-1.06478e-08 1.43207e-13 0
-1.06478e-08 1.00458e-13 0
-1.06477e-08 6.6468e-14 0
-1.06477e-08 3.73787e-14 0
-1.06477e-08 9.93515e-15 0
-1.06477e-08 -1.74532e-14 0
0.0116998 7.8739e-09 0
0 -6.49527e-09 0
1.19232e-13 -4.23383e-09 0
-1.93073e-08 -6.03934e-09 0
-2.02287e-08 -2.33175e-09 0
-1.65439e-08 -1.01844e-09 0
-1.4587e-08 -2.15822e-09 0
-1.38334e-08 -4.44446e-09 0
-1.85942e-08 -1.15039e-08 0
-1.7631e-08 -8.72549e-09 0
-1.74689e-08 -5.44606e-18 0
-1.48391e-08 1.90058e-08 0
-7.74006e-09 2.31039e-08 0
-8.66154e-09 1.02273e-09 0
-1.08655e-08 -4.67137e-09 0
-1.1922e-08 -1.91329e-09 0
-1.23474e-08 -2.42085e-10 0
-1.24994e-08 2.26543e-10 0
-1.25303e-08 2.94596e-10 0
-1.25099e-08 2.60805e-10 0
-1.24717e-08 2.09071e-10 0
-1.24309e-08 1.61347e-10 0
-1.23939e-08 1.22315e-10 0
-1.23628e-08 9.18296e-11 0
-1.23378e-08 6.85367e-11 0
-1.23182e-08 5.0954e-11 0
-1.23031e-08 3.77801e-11 0
-1.22915e-08 2.79577e-11 0
-1.22828e-08 2.06589e-11 0
-1.22763e-08 1.52485e-11 0
-1.22714e-08 1.1245e-11 0
-1.22677e-08 8.28663e-12 0
-1.2265e-08 6.10283e-12 0
-1.2263e-08 4.49217e-12 0
-1.22615e-08 3.30507e-12 0
-1.22604e-08 2.43065e-12 0
-1.22596e-08 1.78687e-12 0
-1.2259e-08 1.31308e-12 0
-1.22585e-08 9.64525e-13 0
-1.22582e-08 7.08153e-13 0
-1.2258e-08 5.19598e-13 0
-1.22578e-08 3.8089e-13 0
-1.22577e-08 2.78772e-13 0
-1.22576e-08 2.03443e-13 0
-1.22575e-08 1.47623e-13 0
-1.22574e-08 1.05827e-13 0
-1.22574e-08 7.37628e-14 0
-1.22574e-08 4.76996e-14 0
-1.22574e-08 2.37357e-14 0
-1.22574e-08 -3.0306e-15 0
-1.22574e-08 -3.61899e-14 0
0.0115802 1.20057e-08 0
0 -7.76632e-09 0
5.81842e-14 -3.36248e-09 0
-1.85382e-08 -4.71736e-09 0
-2.17753e-08 -1.84637e-09 0
-2.10244e-08 -6.47634e-10 0
-2.03259e-08 -6.69159e-11 0
-1.9753e-08 -2.44933e-10 0
-1.93064e-08 -2.75212e-10 0
-2.64299e-08 -1.03539e-09 0
-2.85037e-08 -6.98296e-09 0
-3.2586e-08 -7.51631e-09 0
-1.905e-08 4.55188e-10 0
-1.72002e-08 4.45724e-09 0
-1.99196e-08 3.92445e-09 0
-2.08978e-08 2.39836e-09 0
-2.08976e-08 1.30019e-09 0
-2.07002e-08 7.06461e-10 0
-2.05092e-08 4.09425e-10 0
-2.03559e-08 2.55417e-10 0
-2.02377e-08 1.68677e-10 0
-2.0148e-08 1.15621e-10 0
-2.00802e-08 8.1096e-11 0
-2.00294e-08 5.76976e-11 0
-1.99914e-08 4.1429e-11 0
-1.99632e-08 2.99318e-11 0
-1.99422e-08 2.17182e-11 0
-1.99266e-08 1.58065e-11 0
-1.99151e-08 1.1529e-11 0
-1.99065e-08 8.42215e-12 0
-1.99003e-08 6.15924e-12 0
-1.98956e-08 4.50772e-12 0
-1.98922e-08 3.30067e-12 0
-1.98897e-08 2.41758e-12 0
-1.98878e-08 1.77105e-12 0
-1.98865e-08 1.29749e-12 0
-1.98855e-08 9.50526e-13 0
-1.98847e-08 6.96268e-13 0
-1.98842e-08 5.09924e-13 0
-1.98838e-08 3.73339e-13 0
-1.98835e-08 2.73205e-13 0
-1.98833e-08 1.99765e-13 0
-1.98831e-08 1.45849e-13 0
-1.9883e-08 1.06177e-13 0
-1.98829e-08 7.6834e-14 0
-1.98829e-08 5.48645e-14 0
-1.98828e-08 3.79256e-14 0
-1.98828e-08 2.38403e-14 0
-1.98828e-08 9.57642e-15 0
-1.98828e-08 -1.3294e-14 0
-1.98828e-08 -6.16166e-14 0
0.0101191 1.39259e-08 0
0 0 0
1.96398e-14 0 0
-9.38113e-09 0 0
-1.1948e-08 0 0
-1.26182e-08 0 0
-1.25808e-08 0 0
-1.17559e-08 0 0
-1.01816e-08 0 0
-8.79903e-09 0 0
-1.10347e-08 0 0
-1.77468e-08 0 0
-2.0106e-08 0 0
-1.87328e-08 0 0
-1.66383e-08 0 0
-1.51093e-08 0 0
-1.42322e-08 0 0
-1.3762e-08 0 0
-1.35016e-08 0 0
-1.33467e-08 0 0
-1.3248e-08 0 0
-1.3182e-08 0 0
-1.31362e-08 0 0
-1.31039e-08 0 0
-1.30808e-08 0 0
-1.30641e-08 0 0
-1.3052e-08 0 0
-1.30432e-08 0 0
-1.30368e-08 0 0
-1.30321e-08 0 0
-1.30287e-08 0 0
-1.30262e-08 0 0
-1.30244e-08 0 0
-1.3023e-08 0 0
-1.3022e-08 0 0
-1.30213e-08 0 0
-1.30208e-08 0 0
-1.30204e-08 0 0
-1.30201e-08 0 0
-1.30199e-08 0 0
-1.30197e-08 0 0
-1.30196e-08 0 0
-1.30195e-08 0 0
-1.30195e-08 0 0
-1.30194e-08 0 0
-1.30194e-08 0 0
-1.30194e-08 0 0
-1.30194e-08 0 0
-1.30194e-08 0 0
-1.30194e-08 0 0
-1.30194e-08 0 0
0.00438551 0 0
0 0 6.49549e-09
2.45209e-14 0 3.06605e-09
-1.99794e-08 0 2.79837e-09
-2.37063e-08 0 -2.4903e-09
-1.86733e-08 0 -4.89164e-09
-3.89377e-09 0 -2.92553e-09
-6.66763e-09 0 1.74675e-10
-9.66179e-09 0 8.80103e-10
-1.15179e-08 0 5.11995e-10
-1.22627e-08 0 -7.02161e-11
-1.31398e-08 0 -2.84533e-10
-1.43519e-08 0 -2.54886e-10
-1.55823e-08 0 -1.5924e-10
-1.66411e-08 0 -8.01476e-11
-1.7494e-08 0 -3.34956e-11
-1.8153e-08 0 -1.14302e-11
-1.86451e-08 0 -2.97612e-12
-1.90034e-08 0 -5.77977e-13
-1.926e-08 0 -3.281e-13
-1.9442e-08 0 -5.82846e-13
-1.95706e-08 0 -7.97213e-13
-1.96615e-08 0 -8.65917e-13
-1.97259e-08 0 -8.20945e-13
-1.97718e-08 0 -7.15722e-13
-1.98046e-08 0 -5.90908e-13
-1.98281e-08 0 -4.70235e-13
-1.98452e-08 0 -3.64767e-13
-1.98575e-08 0 -2.77883e-13
-1.98665e-08 0 -2.08964e-13
-1.9873e-08 0 -1.55665e-13
-1.98778e-08 0 -1.15167e-13
-1.98813e-08 0 -8.47761e-14
-1.98839e-08 0 -6.21727e-14
-1.98858e-08 0 -4.54703e-14
-1.98872e-08 0 -3.31865e-14
-1.98882e-08 0 -2.41837e-14
-1.9889e-08 0 -1.7603e-14
-1.98895e-08 0 -1.28005e-14
-1.98899e-08 0 -9.29941e-15
-1.98902e-08 0 -6.74806e-15
-1.98905e-08 0 -4.88866e-15
-1.98906e-08 0 -3.53144e-15
-1.98907e-08 0 -2.5391e-15
-1.98908e-08 0 -1.81917e-15
-1.98909e-08 0 -1.32591e-15
-1.98909e-08 0 -1.06132e-15
-1.9891e-08 0 -8.79626e-16
-1.9891e-08 0 5.93712e-16
-1.9891e-08 0 1.10005e-14
-1.98911e-08 0 4.94309e-14
0.0101188 0 -1.19727e-08
0.0036 8.69049e-09 5.0678e-09
0.00359998 -0.00393252 -0.00186595
0.0119212 -0.00824672 -0.00356889
0.0217919 -0.00896019 -0.00294749
0.03248 -0.00949408 -0.00207873
0.045714 -0.00558891 -0.00101537
0.046796 -0.000269029 -0.000192758
0.0462266 0.00241799 1.0398e-05
0.0408932 0.00408991 -3.99691e-05
0.0357459 0.00400939 -0.000132968
0.0314432 0.00327747 -0.000121303
0.0283004 0.00238059 -7.9697e-05
0.0262365 0.00159012 -4.47484e-05
0.0249655 0.00100093 -2.26311e-05
0.0242161 0.000602141 -1.05971e-05
0.0237916 0.000347899 -4.71124e-06
0.0235611 0.000192953 -2.051e-06
0.0234425 0.000102136 -9.15628e-07
0.0233857 5.08454e-05 -4.4698e-07
0.0233618 2.29884e-05 -2.52382e-07
0.0233545 8.54768e-06 -1.65336e-07
0.0233549 1.52908e-06 -1.19731e-07
0.0233584 -1.53539e-06 -9.08259e-08
0.0233627 -2.5907e-06 -6.97981e-08
0.0233668 -2.6933e-06 -5.3517e-08
0.0233703 -2.39616e-06 -4.07264e-08
0.0233731 -1.97483e-06 -3.07353e-08
0.0233753 -1.55659e-06 -2.30219e-08
0.023377 -1.1924e-06 -1.71375e-08
0.0233782 -8.95902e-07 -1.26946e-08
0.0233792 -6.64002e-07 -9.36769e-09
0.0233798 -4.87278e-07 -6.89261e-09
0.0233803 -3.54974e-07 -5.06036e-09
0.0233807 -2.57163e-07 -3.70908e-09
0.0233809 -1.85513e-07 -2.71535e-09
0.0233811 -1.33383e-07 -1.98621e-09
0.0233813 -9.56503e-08 -1.45222e-09
0.0233814 -6.84474e-08 -1.06196e-09
0.0233814 -4.88972e-08 -7.77663e-10
0.0233815 -3.48825e-08 -5.71947e-10
0.0233815 -2.48577e-08 -4.25495e-10
0.0233815 -1.77017e-08 -3.25487e-10
0.0233815 -1.26062e-08 -2.6468e-10
0.0233816 -8.9948e-09 -2.40798e-10
0.0233816 -6.46614e-09 -2.54972e-10
0.0233816 -4.75998e-09 -3.02095e-10
0.0233816 -3.73941e-09 -3.3785e-10
0.0233816 -3.64901e-09 -4.82597e-10
0.0233816 -7.54434e-09 -3.4839e-09
0.0233816 -2.30433e-08 -1.70912e-08
0.0233816 -3.49051e-08 -2.78364e-08
0.01 9.70865e-09 1.612e-09
0.01 -0.00665625 -0.00323529
0.0167939 -0.014925 -0.006011
0.0256149 -0.017812 -0.00454866
0.0357897 -0.022016 -0.00270016
0.0536884 -0.0132465 -0.000785372
0.0531191 -5.3658e-05 0.00035653
0.0536792 0.00612977 0.000391536
0.0456585 0.0106202 0.000113005
0.0386223 0.00955972 -0.000183535
0.0337374 0.00752154 -0.000200215
0.0305292 0.00525286 -0.000125035
0.0286784 0.00336038 -6.6431e-05
0.0276772 0.00203342 -3.15587e-05
0.0271567 0.00118016 -1.34087e-05
0.0269001 0.000657844 -5.0093e-06
0.0267837 0.000350398 -1.52115e-06
0.0267386 0.000176041 -2.4572e-07
0.0267275 8.09266e-05 1.30485e-07
0.0267313 3.13334e-05 1.8461e-07
0.0267404 6.9988e-06 1.46439e-07
0.0267504 -3.83115e-06 9.66504e-08
0.0267594 -7.75994e-06 5.76963e-08
0.0267669 -8.38149e-06 3.19791e-08
0.0267729 -7.5831e-06 1.64848e-08
0.0267774 -6.31109e-06 7.73045e-09
0.0267808 -5.0081e-06 3.05947e-09
0.0267834 -3.85646e-06 7.24574e-10
0.0267853 -2.91039e-06 -3.3613e-10
0.0267867 -2.16572e-06 -7.35221e-10
0.0267877 -1.59537e-06 -8.11777e-10
0.0267884 -1.16654e-06 -7.46236e-10
0.0267889 -8.4826e-07 -6.30332e-10
0.0267893 -6.14239e-07 -5.07809e-10
0.0267896 -4.43348e-07 -3.97361e-10
0.0267897 -3.192e-07 -3.05191e-10
0.0267899 -2.29362e-07 -2.31708e-10
0.02679 -1.64549e-07 -1.75008e-10
0.0267901 -1.17902e-07 -1.3264e-10
0.0267901 -8.43952e-08 -1.02503e-10
0.0267902 -6.03711e-08 -8.33766e-11
0.0267902 -4.31817e-08 -7.53146e-11
0.0267902 -3.09246e-08 -7.99799e-11
0.0267902 -2.2254e-08 -1.00651e-10
0.0267902 -1.62627e-08 -1.4069e-10
0.0267902 -1.24694e-08 -1.95708e-10
0.0267902 -1.10218e-08 -2.30458e-10
0.0267902 -1.28442e-08 -3.99599e-10
0.0267903 -1.81619e-08 -3.87534e-09
0.0267903 -2.66716e-08 -1.90462e-08
0.0267903 -3.17547e-08 -3.09056e-08
0.0148 -1.11224e-08 5.81062e-09
0.0148 -0.00780823 -0.00425879
0.0193108 -0.0180615 -0.00805339
0.0246235 -0.0231828 -0.00603347
0.0272777 -0.0345573 -0.00323671
0.0273315 -0.0216279 -0.00077174
0.0265526 -1.56016e-07 0.0004332
0.0272753 0.010013 0.000416899
0.0326757 0.0192598 0.000265151
0.0307491 0.0160563 8.67415e-06
0.0284872 0.0114672 -0.000103865
0.0271616 0.00749846 -9.47945e-05
0.0266234 0.00447416 -5.64689e-05
0.0265148 0.00253853 -2.60715e-05
0.0265753 0.00138648 -8.98792e-06
0.0266828 0.000723897 -1.54879e-06
0.0267862 0.000355648 9.29229e-07
0.0268692 0.000158737 1.35531e-06
0.0269305 5.82306e-05 1.11896e-06
0.0269738 1.01253e-05 7.71347e-07
0.0270038 -1.05475e-05 4.85198e-07
0.0270243 -1.75152e-05 2.88367e-07
0.0270383 -1.80913e-05 1.64583e-07
0.027048 -1.60351e-05 9.08666e-08
0.0270546 -1.31882e-05 4.85971e-08
0.0270592 -1.03868e-05 2.50718e-08
0.0270624 -7.95835e-06 1.23279e-08
0.0270646 -5.98586e-06 5.61892e-09
0.0270662 -4.44439e-06 2.20923e-09
0.0270673 -3.26937e-06 5.61434e-10
0.027068 -2.38868e-06 -1.70669e-10
0.0270686 -1.73639e-06 -4.43635e-10
0.027069 -1.25739e-06 -4.98531e-10
0.0270693 -9.07848e-07 -4.59274e-10
0.0270695 -6.5398e-07 -3.8723e-10
0.0270696 -4.70255e-07 -3.11063e-10
0.0270697 -3.37658e-07 -2.42834e-10
0.0270698 -2.42168e-07 -1.86551e-10
0.0270699 -1.7352e-07 -1.4266e-10
0.0270699 -1.24243e-07 -1.10391e-10
0.0270699 -8.89229e-08 -8.90338e-11
0.0270699 -6.36561e-08 -7.87174e-11
0.02707 -4.56462e-08 -8.09835e-11
0.02707 -3.29215e-08 -9.92698e-11
0.02707 -2.41472e-08 -1.38824e-10
0.02707 -1.84833e-08 -2.0092e-10
0.02707 -1.53756e-08 -2.60925e-10
0.02707 -1.44472e-08 -4.74997e-10
0.02707 -1.58084e-08 -3.87772e-09
0.02707 -1.927e-08 -1.83149e-08
0.02707 -2.14173e-08 -2.95396e-08
0.018 -2.91098e-08 9.49621e-10
0.018 -0.00730282 -0.00512724
0.0197698 -0.0166994 -0.00984598
0.0205079 -0.0188373 -0.0071687
0.0162828 -0.0203718 -0.0037038
-6.77224e-09 -0.0109312 -0.00125385
1.80215e-06 7.59453e-07 2.99068e-09
-8.03812e-07 8.71346e-07 5.73149e-05
0.00999976 0.00715374 0.000138819
0.0192334 0.013795 0.000125302
0.0212018 0.0111654 2.95685e-05
0.0223733 0.00716015 -4.0445e-05
0.0237287 0.00403366 -4.03002e-05
0.0248528 0.00209492 -1.80237e-05
0.0256637 0.00101784 -3.3914e-06
0.0262062 0.000448749 2.27786e-06
0.0265513 0.000164274 3.33029e-06
0.0267639 3.16016e-05 2.7492e-06
0.0268923 -2.39011e-05 1.87922e-06
0.0269691 -4.21472e-05 1.16494e-06
0.0270149 -4.36344e-05 6.78983e-07
0.0270422 -3.84868e-05 3.78165e-07
0.0270587 -3.14675e-05 2.02411e-07
0.0270687 -2.4649e-05 1.0385e-07
0.0270748 -1.88001e-05 5.04208e-08
0.0270786 -1.40889e-05 2.24152e-08
0.0270811 -1.04312e-05 8.31324e-09
0.0270826 -7.6572e-06 1.60825e-09
0.0270836 -5.58607e-06 -1.28039e-09
0.0270843 -4.05649e-06 -2.27788e-09
0.0270848 -2.93562e-06 -2.39444e-09
0.0270851 -2.1189e-06 -2.14461e-09
0.0270853 -1.5263e-06 -1.77961e-09
0.0270855 -1.09768e-06 -1.41402e-09
0.0270856 -7.88416e-07 -1.09356e-09
0.0270856 -5.65697e-07 -8.30922e-10
0.0270857 -4.05542e-07 -6.24054e-10
0.0270857 -2.90518e-07 -4.65428e-10
0.0270857 -2.0799e-07 -3.4643e-10
0.0270858 -1.48834e-07 -2.59397e-10
0.0270858 -1.06472e-07 -1.9855e-10
0.0270858 -7.61781e-08 -1.60553e-10
0.0270858 -5.45636e-08 -1.4509e-10
0.0270858 -3.92115e-08 -1.55691e-10
0.0270858 -2.83981e-08 -2.00146e-10
0.0270858 -2.08903e-08 -2.82888e-10
0.0270858 -1.58229e-08 -3.66981e-10
0.0270858 -1.25997e-08 -5.67366e-10
0.0270858 -1.09957e-08 -3.85351e-09
0.0270858 -1.06288e-08 -1.78906e-08
0.0270858 -1.06539e-08 -2.88086e-08
0.0196 -3.21695e-08 -1.38836e-08
0.0196 -0.00493109 -0.0056627
0.0196442 -0.0106006 -0.0108302
0.0183373 -0.0110596 -0.00764429
0.0139077 -0.00888721 -0.00377037
0.00379496 -0.00349714 -0.0015951
1.40923e-06 -1.30863e-06 -0.000301518
5.04816e-07 -5.04816e-07 -8.56532e-10
-7.74425e-07 8.33198e-07 8.5007e-06
0.00715179 0.00483879 3.3625e-05
0.0137902 0.00833481 2.10649e-05
0.0173703 0.00499336 -3.51375e-05
0.0209393 0.00201379 -4.92672e-05
0.023462 0.000613804 -2.34281e-05
0.0250254 3.68617e-05 -4.71213e-06
0.0259379 -0.000163141 2.47785e-06
0.0264539 -0.000202528 3.69309e-06
0.0267408 -0.000182867 2.93017e-06
0.0268987 -0.000147468 1.90413e-06
0.026985 -0.000112777 1.116e-06
0.027032 -8.38722e-05 6.10894e-07
0.0270574 -6.1415e-05 3.15692e-07
0.0270712 -4.4573e-05 1.53027e-07
0.0270785 -3.2183e-05 6.7482e-08
0.0270824 -2.31669e-05 2.45787e-08
0.0270845 -1.66468e-05 4.35972e-09
0.0270855 -1.19488e-05 -4.22572e-09
0.0270861 -8.57084e-06 -7.10146e-09
0.0270863 -6.14509e-06 -7.35212e-09
0.0270864 -4.40444e-06 -6.53261e-09
0.0270865 -3.15599e-06 -5.39271e-09
0.0270865 -2.26085e-06 -4.26888e-09
0.0270865 -1.61922e-06 -3.29192e-09
0.0270865 -1.15939e-06 -2.4951e-09
0.0270865 -8.29931e-07 -1.86903e-09
0.0270865 -5.93931e-07 -1.38873e-09
0.0270865 -4.2492e-07 -1.02625e-09
0.0270865 -3.03913e-07 -7.56074e-10
0.0270865 -2.17301e-07 -5.57054e-10
0.0270865 -1.55326e-07 -4.12781e-10
0.0270865 -1.10996e-07 -3.11471e-10
0.0270865 -7.92983e-08 -2.45843e-10
0.0270865 -5.664e-08 -2.13248e-10
0.0270865 -4.0436e-08 -2.15883e-10
0.0270865 -2.88142e-08 -2.596e-10
0.0270865 -2.03933e-08 -3.44247e-10
0.0270865 -1.41241e-08 -4.27372e-10
0.0270865 -9.20314e-09 -6.14383e-10
0.0270865 -5.14427e-09 -3.85786e-09
0.0270865 -1.62133e-09 -1.77755e-08
0.0270865 5.26169e-11 -2.86053e-08
0.0196 -1.90947e-08 -2.73815e-08
0.0196 -0.0022489 -0.00573831
0.0199062 -0.00451036 -0.0108015
0.0197182 -0.00382806 -0.00754873
0.0169349 -0.00064737 -0.00364883
0.0127856 0.00512245 -0.0017554
0.00781141 0.00420323 -0.000749021
1.41416e-06 -1.2031e-06 -0.000156949
4.28675e-07 -4.28675e-07 -1.19165e-09
-7.44514e-07 8.04336e-07 2.13675e-06
0.00483876 0.00094811 5.46877e-05
0.0121136 2.74318e-05 -9.29104e-07
0.0190203 -0.00203725 -0.000100902
0.0230794 -0.00197895 -6.66527e-05
0.0251176 -0.0014533 -2.40533e-05
0.0261202 -0.00097882 -5.04121e-06
0.0266167 -0.00063901 4.76575e-07
0.0268632 -0.000413769 1.30367e-06
0.0269849 -0.000268619 9.83296e-07
0.0270441 -0.000175777 5.71312e-07
0.027072 -0.000116234 2.86375e-07
0.0270844 -7.77364e-05 1.23357e-07
0.0270894 -5.25704e-05 3.98172e-08
0.0270908 -3.5918e-05 1.15066e-09
0.0270907 -2.47636e-05 -1.42459e-08
0.02709 -1.72054e-05 -1.84287e-08
0.0270892 -1.20308e-05 -1.76897e-08
0.0270885 -8.45615e-06 -1.51371e-08
0.0270878 -5.96816e-06 -1.22121e-08
0.0270873 -4.22575e-06 -9.51889e-09
0.0270869 -2.99943e-06 -7.26056e-09
0.0270866 -2.13296e-06 -5.45928e-09
0.0270864 -1.51888e-06 -4.06501e-09
0.0270862 -1.08267e-06 -3.00632e-09
0.0270861 -7.72259e-07 -2.21277e-09
0.027086 -5.51092e-07 -1.62332e-09
0.027086 -3.93365e-07 -1.18846e-09
0.0270859 -2.80809e-07 -8.69561e-10
0.0270859 -2.00453e-07 -6.37395e-10
0.0270859 -1.43069e-07 -4.70515e-10
0.0270859 -1.02075e-07 -3.53983e-10
0.0270858 -7.27725e-08 -2.78555e-10
0.0270858 -5.1791e-08 -2.40315e-10
0.0270858 -3.66985e-08 -2.40551e-10
0.0270858 -2.57109e-08 -2.84556e-10
0.0270858 -1.74721e-08 -3.71639e-10
0.0270858 -1.08758e-08 -4.57457e-10
0.0270858 -4.94132e-09 -6.43374e-10
0.0270858 1.12006e-09 -3.89273e-09
0.0270858 7.50733e-09 -1.78627e-08
0.0270858 1.07524e-08 -2.87367e-08
0.018 -1.21453e-08 -3.10023e-08
0.018 -8.95493e-05 -0.00545699
0.0195835 0.000112351 -0.0100915
0.0212036 0.000983353 -0.00692784
0.0210343 0.00308329 -0.00337363
0.0206238 0.00808766 -0.00164757
0.0210728 0.0137988 -0.000842849
0.0131933 0.00801295 -0.0003739
1.44776e-06 -9.58441e-07 -9.82778e-05
-6.21949e-07 -1.0498e-06 1.16892e-08
1.07965e-07 -0.00379046 0.000263522
0.0115569 -0.00918233 0.000218011
0.0204898 -0.00891783 -0.000119
0.0247007 -0.00545842 -0.000107783
0.0262733 -0.00299249 -4.59061e-05
0.0268382 -0.00165829 -1.50436e-05
0.0270412 -0.000944601 -4.33984e-06
0.0271088 -0.000551021 -1.1399e-06
0.0271249 -0.000328442 -2.81586e-07
0.027122 -0.00019994 -8.29894e-08
0.0271134 -0.000124273 -4.76495e-08
0.0271042 -7.88167e-05 -4.30002e-08
0.027096 -5.09491e-05 -3.96727e-08
0.0270894 -3.35144e-05 -3.41446e-08
0.0270843 -2.23902e-05 -2.76955e-08
0.0270805 -1.516e-05 -2.15787e-08
0.0270776 -1.03809e-05 -1.63821e-08
0.0270755 -7.17459e-06 -1.22336e-08
0.027074 -4.99589e-06 -9.04123e-09
0.0270729 -3.49953e-06 -6.63839e-09
0.0270721 -2.46276e-06 -4.85424e-09
0.0270715 -1.73936e-06 -3.54055e-09
0.0270711 -1.23178e-06 -2.5783e-09
0.0270708 -8.74088e-07 -1.87578e-09
0.0270705 -6.21182e-07 -1.36399e-09
0.0270704 -4.41912e-07 -9.91766e-10
0.0270703 -3.146e-07 -7.21531e-10
0.0270702 -2.2406e-07 -5.2595e-10
0.0270701 -1.59605e-07 -3.854e-10
0.0270701 -1.1368e-07 -2.86183e-10
0.0270701 -8.09274e-08 -2.19389e-10
0.02707 -5.75307e-08 -1.80334e-10
0.02707 -4.07567e-08 -1.68498e-10
0.02707 -2.86245e-08 -1.87745e-10
0.02707 -1.96624e-08 -2.45667e-10
0.02707 -1.27136e-08 -3.44699e-10
0.02707 -6.74755e-09 -4.44842e-10
0.02707 -6.28859e-10 -6.51889e-10
0.02707 6.97965e-09 -3.96929e-09
0.02707 1.6414e-08 -1.82413e-08
0.02707 2.1494e-08 -2.93621e-08
0.0148 -1.00588e-08 -3.01415e-08
0.0148 0.00107312 -0.00492357
0.018278 0.00238104 -0.00885004
0.0218569 0.00298165 -0.00587742
0.0240361 0.0045362 -0.00291975
0.0257163 0.00740125 -0.00155718
0.0287376 0.0127988 -0.000918078
0.0325878 0.021545 -0.000457975
0.0274092 0.0132849 5.28643e-05
0.0292832 1.53087e-14 0.000513066
0.0334472 -0.0106754 0.000777681
0.0338986 -0.0205145 0.000454443
0.0311901 -0.0151424 -7.34568e-05
0.0292511 -0.00772455 -0.000128674
0.0282151 -0.0035713 -6.43438e-05
0.027652 -0.0017387 -2.38679e-05
0.0273272 -0.000906726 -7.93304e-06
0.0271321 -0.000496438 -2.47671e-06
0.0270117 -0.000281458 -7.07137e-07
0.026936 -0.000164205 -1.55186e-07
0.0268875 -9.82989e-05 5.83447e-09
0.026856 -6.0282e-05 4.45206e-08
0.0268352 -3.78154e-05 4.67711e-08
0.0268213 -2.42246e-05 3.95952e-08
0.0268119 -1.58151e-05 3.11955e-08
0.0268054 -1.04985e-05 2.38312e-08
0.0268009 -7.06949e-06 1.79227e-08
0.0267978 -4.81778e-06 1.3356e-08
0.0267956 -3.31563e-06 9.89279e-09
0.026794 -2.2999e-06 7.2959e-09
0.026793 -1.60531e-06 5.36324e-09
0.0267922 -1.12594e-06 3.93271e-09
0.0267916 -7.92661e-07 2.87814e-09
0.0267912 -5.59595e-07 2.10313e-09
0.026791 -3.95874e-07 1.53488e-09
0.0267907 -2.80468e-07 1.11889e-09
0.0267906 -1.98907e-07 8.1457e-10
0.0267905 -1.41151e-07 5.91741e-10
0.0267904 -1.00192e-07 4.27891e-10
0.0267904 -7.11067e-08 3.05955e-10
0.0267903 -5.04214e-08 2.12491e-10
0.0267903 -3.56707e-08 1.36054e-10
0.0267903 -2.50896e-08 6.56647e-11
0.0267903 -1.73917e-08 -1.06377e-11
0.0267903 -1.16036e-08 -1.06365e-10
0.0267903 -6.92366e-09 -2.30186e-10
0.0267903 -2.55723e-09 -3.54382e-10
0.0267903 2.65418e-09 -6.0499e-10
0.0267903 1.10016e-08 -4.03587e-09
0.0267903 2.40696e-08 -1.89189e-08
0.0267903 3.17917e-08 -3.05669e-08
0.01 -1.62544e-08 -3.19083e-08
0.01 0.000919581 -0.00404497
0.0149668 0.00197135 -0.00690726
0.0196212 0.00224936 -0.0042894
0.0232243 0.00316832 -0.00216182
0.0271255 0.00547167 -0.00125139
0.0322709 0.00803523 -0.000964224
0.0408957 0.00984987 -0.000633074
0.0543194 0.00339695 4.39879e-05
0.0542758 -0.00616193 0.00062505
0.0541818 -0.00859713 0.00072016