# vtk DataFile Version 2.0
Tobias Weinzierl: CPU, Manycore and Cluster Computing
ASCII

DATASET STRUCTURED_POINTS
DIMENSIONS  51 11 6

ORIGIN 0 0 0 

SPACING 0.1 0.1 0.1 

POINT_DATA 3366

VECTORS velocity float
0 0 0
-1.19182e-14 0 0
-7.54403e-09 0 0
-9.86589e-09 0 0
-8.41956e-09 0 0
-3.79827e-09 0 0
-4.8154e-09 0 0
-6.98993e-09 0 0
-8.63239e-09 0 0
-9.1988e-09 0 0
-9.0504e-09 0 0
-8.8092e-09 0 0
-8.6894e-09 0 0
-8.68624e-09 0 0
-8.75552e-09 0 0
-8.85436e-09 0 0
-8.95354e-09 0 0
-9.039e-09 0 0
-9.10682e-09 0 0
-9.1581e-09 0 0
-9.19578e-09 0 0
-9.22301e-09 0 0
-9.24251e-09 0 0
-9.25642e-09 0 0
-9.26634e-09 0 0
-9.27341e-09 0 0
-9.27848e-09 0 0
-9.28211e-09 0 0
-9.28473e-09 0 0
-9.28661e-09 0 0
-9.28797e-09 0 0
-9.28896e-09 0 0
-9.28967e-09 0 0
-9.29019e-09 0 0
-9.29057e-09 0 0
-9.29084e-09 0 0
-9.29104e-09 0 0
-9.29118e-09 0 0
-9.29129e-09 0 0
-9.29137e-09 0 0
-9.29142e-09 0 0
-9.29146e-09 0 0
-9.29149e-09 0 0
-9.29151e-09 0 0
-9.29153e-09 0 0
-9.29154e-09 0 0
-9.29155e-09 0 0
-9.29155e-09 0 0
-9.29156e-09 0 0
-9.29157e-09 0 0
0.00380243 0 0
0 7.79617e-09 0
1.68955e-15 4.88047e-09 0
-1.49683e-08 7.08823e-09 0
-1.85493e-08 3.2114e-09 0
-1.43199e-08 2.23774e-10 0
-5.16871e-09 1.10411e-09 0
-5.58372e-09 3.78173e-09 0
-8.50965e-09 2.99145e-09 0
-1.02067e-08 1.48347e-09 0
-1.13703e-08 3.51213e-10 0
-1.15517e-08 -1.06257e-10 0
-1.18742e-08 -5.81486e-11 0
-1.24284e-08 7.68267e-11 0
-1.30136e-08 1.65883e-10 0
-1.35447e-08 2.05306e-10 0
-1.39875e-08 2.0525e-10 0
-1.43323e-08 1.81211e-10 0
-1.45876e-08 1.48006e-10 0
-1.47704e-08 1.14999e-10 0
-1.48985e-08 8.65126e-11 0
-1.49873e-08 6.37507e-11 0
-1.50485e-08 4.63814e-11 0
-1.50908e-08 3.34981e-11 0
-1.51202e-08 2.41061e-11 0
-1.51406e-08 1.7327e-11 0
-1.5155e-08 1.24586e-11 0
-1.51652e-08 8.96858e-12 0
-1.51724e-08 6.46629e-12 0
-1.51776e-08 4.66976e-12 0
-1.51813e-08 3.37751e-12 0
-1.5184e-08 2.44609e-12 0
-1.51859e-08 1.77345e-12 0
-1.51873e-08 1.28685e-12 0
-1.51884e-08 9.34336e-13 0
-1.51891e-08 6.78662e-13 0
-1.51896e-08 4.93063e-13 0
-1.519e-08 3.58247e-13 0
-1.51903e-08 2.60275e-13 0
-1.51905e-08 1.89057e-13 0
-1.51907e-08 1.37274e-13 0
-1.51908e-08 9.96129e-14 0
-1.51909e-08 7.22123e-14 0
-1.51909e-08 5.22646e-14 0
-1.5191e-08 3.77321e-14 0
-1.5191e-08 2.71435e-14 0
-1.5191e-08 1.94463e-14 0
-1.51911e-08 1.39944e-14 0
-1.51911e-08 1.117e-14 0
-1.51911e-08 1.61091e-14 0
-1.51911e-08 4.15794e-14 0
0.00919866 -1.00422e-08 0
0 1.04082e-09 0
7.3525e-14 6.46232e-09 0
-1.40356e-08 8.59902e-09 0
-1.56324e-08 3.45066e-09 0
-7.86885e-09 4.60913e-10 0
-5.4471e-09 5.97409e-10 0
-7.15268e-09 2.78409e-09 0
-9.90637e-09 6.8739e-10 0
-6.53909e-09 -2.72147e-10 0
-5.27168e-09 1.07008e-09 0
-5.02762e-09 1.82786e-09 0
-5.67344e-09 2.30486e-09 0
-6.74845e-09 2.11741e-09 0
-7.70355e-09 1.65023e-09 0
-8.46918e-09 1.22157e-09 0
-9.04902e-09 8.86212e-10 0
-9.46492e-09 6.32349e-10 0
-9.75134e-09 4.4485e-10 0
-9.94365e-09 3.0976e-10 0
-1.00712e-08 2.14451e-10 0
-1.01555e-08 1.48217e-10 0
-1.02116e-08 1.02608e-10 0
-1.02492e-08 7.13185e-11 0
-1.02748e-08 4.98435e-11 0
-1.02924e-08 3.50505e-11 0
-1.03046e-08 2.48021e-11 0
-1.03132e-08 1.76535e-11 0
-1.03194e-08 1.26313e-11 0
-1.03237e-08 9.07841e-12 0
-1.03269e-08 6.54905e-12 0
-1.03292e-08 4.73843e-12 0
-1.03309e-08 3.43632e-12 0
-1.03321e-08 2.49637e-12 0
-1.0333e-08 1.81585e-12 0
-1.03336e-08 1.32201e-12 0
-1.03341e-08 9.63038e-13 0
-1.03344e-08 7.01762e-13 0
-1.03347e-08 5.11425e-13 0
-1.03349e-08 3.72678e-13 0
-1.0335e-08 2.71491e-13 0
-1.03351e-08 1.9767e-13 0
-1.03352e-08 1.43801e-13 0
-1.03352e-08 1.04489e-13 0
-1.03353e-08 7.58372e-14 0
-1.03353e-08 5.50994e-14 0
-1.03353e-08 4.05279e-14 0
-1.03353e-08 3.13056e-14 0
-1.03354e-08 2.74431e-14 0
-1.03354e-08 2.85163e-14 0
-1.03354e-08 3.49897e-14 0
0.0109839 -9.4419e-09 0
0 -8.5182e-09 0
1.38129e-13 4.44854e-09 0
-1.3558e-08 3.99244e-09 0
-1.51617e-08 -1.38714e-09 0
-5.98533e-09 1.0915e-09 0
-4.07666e-09 2.02252e-09 0
-6.38437e-09 -9.93936e-15 0
-8.38665e-09 -7.3646e-09 0
-1.38861e-08 -1.06787e-08 0
-1.04065e-08 -3.09136e-09 0
-8.34095e-09 2.10296e-09 0
-7.60285e-09 3.99387e-09 0
-7.51628e-09 3.73833e-09 0
-7.59353e-09 2.78173e-09 0
-7.79835e-09 1.96564e-09 0
-8.02854e-09 1.36532e-09 0
-8.21962e-09 9.35636e-10 0
-8.35814e-09 6.35318e-10 0
-8.45266e-09 4.298e-10 0
-8.51585e-09 2.91144e-10 0
-8.55818e-09 1.9823e-10 0
-8.58694e-09 1.35992e-10 0
-8.60684e-09 9.41184e-11 0
-8.62087e-09 6.5729e-11 0
-8.6309e-09 4.62986e-11 0
-8.63817e-09 3.28642e-11 0
-8.64347e-09 2.34829e-11 0
-8.64735e-09 1.68719e-11 0
-8.6502e-09 1.21756e-11 0
-8.65231e-09 8.81698e-12 0
-8.65385e-09 6.40168e-12 0
-8.655e-09 4.65715e-12 0
-8.65584e-09 3.39282e-12 0
-8.65645e-09 2.47415e-12 0
-8.65691e-09 1.80537e-12 0
-8.65724e-09 1.31784e-12 0
-8.65749e-09 9.62093e-13 0
-8.65767e-09 7.02348e-13 0
-8.6578e-09 5.12615e-13 0
-8.6579e-09 3.73983e-13 0
-8.65797e-09 2.72667e-13 0
-8.65802e-09 1.98608e-13 0
-8.65806e-09 1.4447e-13 0
-8.65809e-09 1.04911e-13 0
-8.65811e-09 7.60292e-14 0
-8.65812e-09 5.49859e-14 0
-8.65813e-09 3.98729e-14 0
-8.65813e-09 2.96545e-14 0
-8.65813e-09 2.42413e-14 0
-8.65814e-09 2.30804e-14 0
0.0111913 -6.19493e-09 0
0 -1.60561e-08 0
1.51976e-13 1.6014e-09 0
-1.46755e-08 -3.39037e-10 0
-1.76393e-08 -3.22875e-09 0
-1.01542e-08 -5.87042e-10 0
-3.28302e-14 7.01232e-10 0
-5.20025e-13 -5.60768e-13 0
4.81352e-13 -5.69265e-13 0
-8.92124e-09 -5.87609e-09 0
-1.34995e-08 -7.70588e-09 0
-1.09624e-08 -7.94217e-10 0
-1.04747e-08 2.83001e-09 0
-9.91258e-09 3.28323e-09 0
-9.21632e-09 2.62025e-09 0
-8.79526e-09 1.95018e-09 0
-8.58873e-09 1.38708e-09 0
-8.49036e-09 9.53987e-10 0
-8.44294e-09 6.45832e-10 0
-8.42035e-09 4.36351e-10 0
-8.41048e-09 2.96692e-10 0
-8.40729e-09 2.03837e-10 0
-8.40755e-09 1.41671e-10 0
-8.40943e-09 9.95571e-11 0
-8.41189e-09 7.06413e-11 0
-8.41438e-09 5.05255e-11 0
-8.41664e-09 3.63671e-11 0
-8.41856e-09 2.63036e-11 0
-8.42012e-09 1.90941e-11 0
-8.42137e-09 1.38973e-11 0
-8.42233e-09 1.0134e-11 0
-8.42307e-09 7.39926e-12 0
-8.42363e-09 5.40707e-12 0
-8.42406e-09 3.95324e-12 0
-8.42437e-09 2.89103e-12 0
-8.42461e-09 2.11435e-12 0
-8.42478e-09 1.54618e-12 0
-8.42491e-09 1.13045e-12 0
-8.42501e-09 8.26234e-13 0
-8.42508e-09 6.03615e-13 0
-8.42513e-09 4.40712e-13 0
-8.42516e-09 3.21495e-13 0
-8.42519e-09 2.34222e-13 0
-8.42521e-09 1.70275e-13 0
-8.42523e-09 1.23329e-13 0
-8.42524e-09 8.87751e-14 0
-8.42524e-09 6.33043e-14 0
-8.42525e-09 4.45589e-14 0
-8.42525e-09 3.08955e-14 0
-8.42525e-09 2.13508e-14 0
-8.42525e-09 1.46951e-14 0
0.0112082 -2.92837e-09 0
0 -1.40767e-08 0
1.61152e-13 -1.86586e-10 0
-1.51305e-08 -1.6472e-09 0
-1.90738e-08 -3.13178e-09 0
-1.3394e-08 -3.10241e-09 0
-4.46717e-09 -1.43125e-09 0
-5.17873e-13 4.92002e-13 0
-1.06498e-14 1.06498e-14 0
4.55851e-13 -5.06852e-13 0
-6.19314e-09 -3.13638e-09 0
-8.36909e-09 -1.84831e-09 0
-1.15882e-08 3.2044e-09 0
-1.21052e-08 3.18291e-09 0
-1.09272e-08 2.15252e-09 0
-9.87329e-09 1.50891e-09 0
-9.22493e-09 1.0505e-09 0
-8.85977e-09 7.19601e-10 0
-8.65779e-09 4.93618e-10 0
-8.54596e-09 3.42894e-10 0
-8.48379e-09 2.41911e-10 0
-8.44913e-09 1.7305e-10 0
-8.42979e-09 1.25111e-10 0
-8.41903e-09 9.11187e-11 0
-8.41306e-09 6.66729e-11 0
-8.40977e-09 4.89191e-11 0
-8.40797e-09 3.5944e-11 0
-8.40699e-09 2.64256e-11 0
-8.40647e-09 1.94289e-11 0
-8.40619e-09 1.4281e-11 0
-8.40605e-09 1.04927e-11 0
-8.40597e-09 7.70523e-12 0
-8.40594e-09 5.6551e-12 0
-8.40592e-09 4.14804e-12 0
-8.40592e-09 3.04084e-12 0
-8.40591e-09 2.22789e-12 0
-8.40591e-09 1.63134e-12 0
-8.40591e-09 1.19383e-12 0
-8.40591e-09 8.73129e-13 0
-8.40592e-09 6.38152e-13 0
-8.40592e-09 4.66038e-13 0
-8.40592e-09 3.39982e-13 0
-8.40592e-09 2.47629e-13 0
-8.40592e-09 1.799e-13 0
-8.40592e-09 1.30124e-13 0
-8.40592e-09 9.33776e-14 0
-8.40592e-09 6.60132e-14 0
-8.40591e-09 4.53227e-14 0
-8.40591e-09 2.93462e-14 0
-8.40591e-09 1.67114e-14 0
-8.40591e-09 6.13905e-15 0
0.0112092 2.07491e-10 0
0 -9.93723e-09 0
1.59864e-13 -1.59741e-09 0
-1.44459e-08 -3.25452e-09 0
-1.89542e-08 -2.58593e-09 0
-1.43492e-08 -1.9051e-09 0
-9.54856e-09 -3.82408e-09 0
-5.05979e-09 -2.84779e-09 0
-5.23626e-13 4.60377e-13 0
-4.52599e-15 4.52599e-15 0
4.45534e-13 -4.66167e-13 0
-3.22126e-09 4.01725e-09 0
-1.2817e-08 6.76418e-09 0
-1.5478e-08 3.5682e-09 0
-1.29569e-08 1.15409e-09 0
-1.06915e-08 5.59243e-10 0
-9.53486e-09 4.03857e-10 0
-8.99784e-09 3.19742e-10 0
-8.73968e-09 2.56784e-10 0
-8.6081e-09 2.05932e-10 0
-8.53711e-09 1.63702e-10 0
-8.4967e-09 1.28573e-10 0
-8.47253e-09 9.97415e-11 0
-8.4574e-09 7.65191e-11 0
-8.44759e-09 5.81541e-11 0
-8.44101e-09 4.38586e-11 0
-8.4365e-09 3.28734e-11 0
-8.43336e-09 2.45182e-11 0
-8.43113e-09 1.82146e-11 0
-8.42953e-09 1.34889e-11 0
-8.42838e-09 9.96377e-12 0
-8.42754e-09 7.34464e-12 0
-8.42694e-09 5.40476e-12 0
-8.42649e-09 3.97159e-12 0
-8.42617e-09 2.91494e-12 0
-8.42593e-09 2.1372e-12 0
-8.42575e-09 1.56553e-12 0
-8.42562e-09 1.14581e-12 0
-8.42553e-09 8.37957e-13 0
-8.42546e-09 6.12314e-13 0
-8.42541e-09 4.47019e-13 0
-8.42537e-09 3.25963e-13 0
-8.42534e-09 2.37282e-13 0
-8.42532e-09 1.72244e-13 0
-8.42531e-09 1.24405e-13 0
-8.4253e-09 8.89738e-14 0
-8.42529e-09 6.23303e-14 0
-8.42528e-09 4.16701e-14 0
-8.42528e-09 2.48305e-14 0
-8.42527e-09 1.02109e-14 0
-8.42527e-09 -3.18079e-15 0
0.0112082 3.31695e-09 0
0 -7.2007e-09 0
1.2734e-13 -2.71893e-09 0
-1.36155e-08 -4.43457e-09 0
-1.78425e-08 -2.51491e-09 0
-1.42182e-08 -1.5273e-09 0
-1.05992e-08 -2.13995e-09 0
-9.82847e-09 -5.84513e-09 0
-6.88321e-09 -4.43321e-09 0
-5.393e-13 3.81454e-13 0
4.30367e-13 3.02207e-13 0
6.51147e-14 9.43907e-09 0
-1.14721e-08 1.39904e-08 0
-1.64266e-08 4.21432e-09 0
-1.37078e-08 -1.05e-09 0
-1.08344e-08 -9.91989e-10 0
-9.5253e-09 -3.33751e-10 0
-9.04524e-09 -2.72279e-11 0
-8.86995e-09 8.16805e-11 0
-8.79713e-09 1.12068e-10 0
-8.75932e-09 1.10613e-10 0
-8.7349e-09 9.68144e-11 0
-8.71696e-09 7.9663e-11 0
-8.7031e-09 6.31998e-11 0
-8.69231e-09 4.89844e-11 0
-8.68395e-09 3.73778e-11 0
-8.67753e-09 2.82125e-11 0
-8.67264e-09 2.11289e-11 0
-8.66894e-09 1.57333e-11 0
-8.66616e-09 1.16651e-11 0
-8.66409e-09 8.62031e-12 0
-8.66254e-09 6.35389e-12 0
-8.6614e-09 4.6738e-12 0
-8.66055e-09 3.4323e-12 0
-8.65992e-09 2.51715e-12 0
-8.65945e-09 1.84389e-12 0
-8.65911e-09 1.34937e-12 0
-8.65886e-09 9.86604e-13 0
-8.65867e-09 7.20763e-13 0
-8.65854e-09 5.26111e-13 0
-8.65844e-09 3.83666e-13 0
-8.65836e-09 2.79452e-13 0
-8.65831e-09 2.03184e-13 0
-8.65827e-09 1.47289e-13 0
-8.65824e-09 1.06171e-13 0
-8.65822e-09 7.56501e-14 0
-8.65821e-09 5.251e-14 0
-8.6582e-09 3.41011e-14 0
-8.65819e-09 1.80733e-14 0
-8.65818e-09 2.38783e-15 0
-8.65819e-09 -1.36926e-14 0
0.0111913 6.49327e-09 0
0 -6.85685e-09 0
8.22391e-14 -3.25454e-09 0
-1.30099e-08 -5.02233e-09 0
-1.67546e-08 -2.31265e-09 0
-1.45254e-08 -9.42023e-10 0
-1.21311e-08 -1.41063e-09 0
-1.05241e-08 -3.09644e-09 0
-1.28496e-08 -8.10043e-09 0
-1.15922e-08 -6.01745e-09 0
-1.3547e-08 2.53416e-18 0
-1.26513e-08 1.10192e-08 0
-8.0045e-09 1.71687e-08 0
-7.97584e-09 5.09396e-09 0
-9.46361e-09 -2.63454e-09 0
-1.00329e-08 -2.20073e-09 0
-1.02528e-08 -7.60914e-10 0
-1.03731e-08 -1.22116e-10 0
-1.04325e-08 7.22917e-11 0
-1.04509e-08 1.11988e-10 0
-1.04465e-08 1.05077e-10 0
-1.0432e-08 8.67692e-11 0
-1.04148e-08 6.80744e-11 0
-1.03985e-08 5.20814e-11 0
-1.03844e-08 3.92843e-11 0
-1.03728e-08 2.93693e-11 0
-1.03637e-08 2.18252e-11 0
-1.03566e-08 1.61496e-11 0
-1.03512e-08 1.19119e-11 0
-1.03472e-08 8.76488e-12 0
-1.03441e-08 6.43695e-12 0
-1.03418e-08 4.72005e-12 0
-1.03401e-08 3.45671e-12 0
-1.03389e-08 2.5288e-12 0
-1.0338e-08 1.84828e-12 0
-1.03373e-08 1.34979e-12 0
-1.03368e-08 9.85016e-13 0
-1.03364e-08 7.18321e-13 0
-1.03361e-08 5.23473e-13 0
-1.03359e-08 3.81201e-13 0
-1.03358e-08 2.77359e-13 0
-1.03357e-08 2.01572e-13 0
-1.03356e-08 1.46232e-13 0
-1.03355e-08 1.0575e-13 0
-1.03355e-08 7.59992e-14 0
-1.03355e-08 5.38896e-14 0
-1.03355e-08 3.70105e-14 0
-1.03354e-08 2.32215e-14 0
-1.03354e-08 1.00654e-14 0
-1.03354e-08 -5.99985e-15 0
-1.03354e-08 -2.74709e-14 0
0.0109839 9.54023e-09 0
0 -7.8328e-09 0
4.2579e-14 -2.37224e-09 0
-1.2892e-08 -3.59609e-09 0
-1.70458e-08 -1.68196e-09 0
-1.68012e-08 -7.911e-10 0
-1.6095e-08 -8.93316e-10 0
-1.50162e-08 -1.35796e-09 0
-1.41587e-08 -8.58303e-10 0
-1.83486e-08 2.07394e-09 0
-1.9293e-08 4.63516e-10 0
-2.10483e-08 -4.71456e-09 0
-1.50537e-08 -3.62274e-09 0
-1.32841e-08 5.48869e-10 0
-1.49992e-08 2.34318e-09 0
-1.57792e-08 1.99788e-09 0
-1.57965e-08 1.20352e-09 0
-1.56624e-08 6.39218e-10 0
-1.55435e-08 3.37254e-10 0
-1.5455e-08 1.88122e-10 0
-1.53894e-08 1.12916e-10 0
-1.53399e-08 7.22336e-11 0
-1.53024e-08 4.83585e-11 0
-1.5274e-08 3.3342e-11 0
-1.52526e-08 2.34156e-11 0
-1.52366e-08 1.66357e-11 0
-1.52247e-08 1.19068e-11 0
-1.52158e-08 8.56383e-12 0
-1.52093e-08 6.17952e-12 0
-1.52044e-08 4.46879e-12 0
-1.52009e-08 3.23633e-12 0
-1.51982e-08 2.34594e-12 0
-1.51963e-08 1.70145e-12 0
-1.51949e-08 1.23435e-12 0
-1.51939e-08 8.95554e-13 0
-1.51931e-08 6.49694e-13 0
-1.51926e-08 4.71236e-13 0
-1.51922e-08 3.41694e-13 0
-1.51919e-08 2.47664e-13 0
-1.51917e-08 1.79414e-13 0
-1.51915e-08 1.29878e-13 0
-1.51914e-08 9.39152e-14 0
-1.51913e-08 6.77841e-14 0
-1.51913e-08 4.87517e-14 0
-1.51912e-08 3.48037e-14 0
-1.51912e-08 2.4425e-14 0
-1.51912e-08 1.64071e-14 0
-1.51912e-08 9.58239e-15 0
-1.51911e-08 2.0755e-15 0
-1.51911e-08 -1.18579e-14 0
-1.51912e-08 -4.21602e-14 0
0.00919866 9.82603e-09 0
0 0 0
1.52042e-14 0 0
-6.45352e-09 0 0
-8.82666e-09 0 0
-9.40124e-09 0 0
-9.48172e-09 0 0
-9.26083e-09 0 0
-8.19231e-09 0 0
-6.75646e-09 0 0
-5.74602e-09 0 0
-8.39698e-09 0 0
-1.18123e-08 0 0
-1.29564e-08 0 0
-1.22147e-08 0 0
-1.10856e-08 0 0
-1.0283e-08 0 0
-9.83957e-09 0 0
-9.61153e-09 0 0
-9.49137e-09 0 0
-9.42347e-09 0 0
-9.38202e-09 0 0
-9.35507e-09 0 0
-9.33677e-09 0 0
-9.32401e-09 0 0
-9.31497e-09 0 0
-9.30849e-09 0 0
-9.30383e-09 0 0
-9.30046e-09 0 0
-9.29803e-09 0 0
-9.29626e-09 0 0
-9.29497e-09 0 0
-9.29404e-09 0 0
-9.29336e-09 0 0
-9.29287e-09 0 0
-9.29251e-09 0 0
-9.29225e-09 0 0
-9.29206e-09 0 0
-9.29193e-09 0 0
-9.29183e-09 0 0
-9.29176e-09 0 0
-9.29171e-09 0 0
-9.29167e-09 0 0
-9.29164e-09 0 0
-9.29162e-09 0 0
-9.29161e-09 0 0
-9.2916e-09 0 0
-9.29159e-09 0 0
-9.29159e-09 0 0
-9.29159e-09 0 0
-9.29161e-09 0 0
0.00380243 0 0
0 0 7.12996e-09
2.70649e-14 0 2.66357e-09
-1.61154e-08 0 2.77764e-09
-2.09083e-08 0 -2.33587e-09
-1.70915e-08 0 -6.29139e-09
-1.15852e-09 0 -4.70827e-09
-1.06788e-09 0 -5.90075e-10
-4.20891e-09 0 8.25543e-10
-7.10557e-09 0 7.254e-10
-8.80469e-09 0 6.67919e-11
-9.83337e-09 0 -2.83349e-10
-1.08345e-08 0 -3.02847e-10
-1.18094e-08 0 -1.99781e-10
-1.26447e-08 0 -9.97657e-11
-1.33214e-08 0 -3.71888e-11
-1.38504e-08 0 -7.2289e-12
-1.42483e-08 0 3.434e-12
-1.45377e-08 0 5.27509e-12
-1.47428e-08 0 4.10182e-12
-1.48859e-08 0 2.45e-12
-1.49847e-08 0 1.15582e-12
-1.50528e-08 0 3.43616e-13
-1.50996e-08 0 -8.97725e-14
-1.51321e-08 0 -2.7936e-13
-1.51546e-08 0 -3.31298e-13
-1.51704e-08 0 -3.14871e-13
-1.51816e-08 0 -2.70442e-13
-1.51895e-08 0 -2.19342e-13
-1.51951e-08 0 -1.716e-13
-1.51992e-08 0 -1.31057e-13
-1.52021e-08 0 -9.84369e-14
-1.52042e-08 0 -7.3064e-14
-1.52057e-08 0 -5.37677e-14
-1.52068e-08 0 -3.9319e-14
-1.52076e-08 0 -2.86192e-14
-1.52082e-08 0 -2.07585e-14
-1.52087e-08 0 -1.50162e-14
-1.5209e-08 0 -1.08394e-14
-1.52092e-08 0 -7.81012e-15
-1.52094e-08 0 -5.61603e-15
-1.52095e-08 0 -4.02707e-15
-1.52096e-08 0 -2.87256e-15
-1.52096e-08 0 -2.02613e-15
-1.52097e-08 0 -1.39531e-15
-1.52097e-08 0 -9.23001e-16
-1.52097e-08 0 -6.10854e-16
-1.52098e-08 0 -4.60248e-16
-1.52098e-08 0 2.43048e-16
-1.52098e-08 0 6.85872e-15
-1.52098e-08 0 3.2898e-14
0.00919768 0 -8.54104e-09
0.0036 7.04823e-09 4.8072e-09
0.00359998 -0.00316535 -0.00137764
0.0104262 -0.00735652 -0.00305529
0.0201202 -0.00908575 -0.0032271
0.0313485 -0.0105089 -0.0027758
0.0462382 -0.00628291 -0.0014292
0.047435 -3.94785e-05 -0.000124536
0.0467755 0.00269431 0.000208917
0.0414146 0.00427229 8.95224e-05
0.0361047 0.00412556 -0.000146201
0.031571 0.00339236 -0.000195551
0.0281378 0.00250356 -0.00014808
0.0258129 0.00170244 -8.87162e-05
0.0243463 0.00109324 -4.58812e-05
0.023459 0.000674496 -2.1226e-05
0.0229392 0.000402748 -8.95797e-06
0.0226441 0.000233331 -3.494e-06
0.022482 0.000131191 -1.28527e-06
0.0223964 7.14335e-05 -4.77012e-07
0.0223534 3.74483e-05 -2.13439e-07
0.0223334 1.8667e-05 -1.37619e-07
0.0223253 8.61294e-06 -1.15467e-07
0.022323 3.4385e-06 -1.03298e-07
0.0223234 9.17976e-07 -9.03272e-08
0.0223247 -2.04695e-07 -7.59294e-08
0.0223263 -6.21152e-07 -6.15995e-08
0.0223278 -7.02057e-07 -4.85947e-08
0.0223291 -6.39601e-07 -3.75329e-08
0.02233 -5.29042e-07 -2.85354e-08
0.0223308 -4.14406e-07 -2.14424e-08
0.0223313 -3.13567e-07 -1.59734e-08
0.0223318 -2.31694e-07 -1.1823e-08
0.0223321 -1.6827e-07 -8.7095e-09
0.0223323 -1.20618e-07 -6.39329e-09
0.0223324 -8.55684e-08 -4.68084e-09
0.0223325 -6.01888e-08 -3.42054e-09
0.0223326 -4.203e-08 -2.49624e-09
0.0223327 -2.9162e-08 -1.82032e-09
0.0223327 -2.01166e-08 -1.32749e-09
0.0223327 -1.38038e-08 -9.6974e-10
0.0223328 -9.42853e-09 -7.12379e-10
0.0223328 -6.41861e-09 -5.31199e-10
0.0223328 -4.36768e-09 -4.10586e-10
0.0223328 -2.99214e-09 -3.42407e-10
0.0223328 -2.10286e-09 -3.2538e-10
0.0223328 -1.58973e-09 -3.57737e-10
0.0223328 -1.39382e-09 -3.82163e-10
0.0223328 -1.65045e-09 -3.55945e-10
0.0223328 -4.76272e-09 -2.32096e-09
0.0223328 -1.70849e-08 -1.26246e-08
0.0223328 -2.65758e-08 -2.09406e-08
0.01 7.80011e-09 -2.36306e-09
0.01 -0.00563621 -0.00236978
0.0161149 -0.013921 -0.0050123
0.0252109 -0.0183238 -0.00476543
0.0360938 -0.0239966 -0.00331445
0.054287 -0.0148425 -0.000835913
0.0536771 -0.000106662 0.000826781
0.0542875 0.00618769 0.0008994
0.0472255 0.010783 0.000449838
0.0403346 0.00997012 -0.000146138
0.0351721 0.00807582 -0.000315627
0.0315447 0.00583254 -0.000239616
0.029329 0.00383494 -0.000139713
0.0280786 0.00237639 -6.98734e-05
0.0273959 0.00141763 -3.05895e-05
0.0270355 0.000819339 -1.16081e-05
0.0268536 0.00045886 -3.51503e-06
0.0267674 0.000248262 -5.06133e-07
0.0267307 0.000128827 3.85184e-07
0.0267183 6.31303e-05 5.03838e-07
0.0267172 2.82121e-05 3.98499e-07
0.0267206 1.04381e-05 2.65874e-07
0.0267252 1.93789e-06 1.6176e-07
0.0267298 -1.71562e-06 9.22762e-08
0.0267337 -2.94889e-06 4.97621e-08
0.0267369 -3.05464e-06 2.52289e-08
0.0267393 -2.69775e-06 1.17347e-08
0.0267412 -2.20379e-06 4.6604e-09
0.0267425 -1.72009e-06 1.16505e-09
0.0267435 -1.3037e-06 -4.12284e-10
0.0267443 -9.6841e-07 -1.00622e-09
0.0267448 -7.09033e-07 -1.12526e-09
0.0267452 -5.13591e-07 -1.03658e-09
0.0267454 -3.68987e-07 -8.74598e-10
0.0267456 -2.63399e-07 -7.0286e-10
0.0267458 -1.87056e-07 -5.48265e-10
0.0267459 -1.32275e-07 -4.19622e-10
0.0267459 -9.32028e-08 -3.17443e-10
0.026746 -6.54732e-08 -2.38981e-10
0.026746 -4.58789e-08 -1.80779e-10
0.026746 -3.20914e-08 -1.39971e-10
0.026746 -2.24368e-08 -1.15021e-10
0.0267461 -1.57258e-08 -1.0621e-10
0.0267461 -1.11307e-08 -1.15758e-10
0.0267461 -8.10837e-09 -1.46849e-10
0.0267461 -6.40883e-09 -1.98241e-10
0.0267461 -6.3106e-09 -2.25122e-10
0.0267461 -8.81015e-09 -2.09182e-10
0.0267461 -1.41823e-08 -2.6361e-09
0.0267461 -2.20044e-08 -1.4797e-08
0.0267461 -2.65223e-08 -2.45182e-08
0.0148 -1.22066e-08 -1.46409e-09
0.0148 -0.00705419 -0.00310746
0.0191449 -0.0176599 -0.00670306
0.0248033 -0.0242845 -0.0062292
0.028002 -0.0361116 -0.00380256
0.0272847 -0.0224331 -0.000736506
0.0262802 -1.57201e-07 0.000825687
0.0269752 0.00910603 0.000848654
0.0322968 0.0182603 0.000631398
0.0310882 0.0163175 0.000136082
0.029023 0.0123273 -0.000133709
0.0276531 0.00844835 -0.000165555
0.0270207 0.00522801 -0.000111403
0.0268437 0.00305669 -5.6119e-05
0.0268547 0.00173126 -2.10081e-05
0.0269292 0.000950549 -4.39363e-06
0.0270126 0.000503272 1.61858e-06
0.0270838 0.000254445 2.90153e-06
0.0271381 0.000120367 2.52395e-06
0.027177 5.0745e-05 1.79167e-06
0.027204 1.63013e-05 1.15096e-06
0.0272225 4.74153e-07 6.96036e-07
0.0272349 -5.8607e-06 4.03751e-07
0.0272434 -7.59931e-06 2.26764e-07
0.027249 -7.29203e-06 1.23785e-07
0.0272529 -6.21738e-06 6.56369e-08
0.0272556 -4.98093e-06 3.3624e-08
0.0272574 -3.84258e-06 1.64249e-08
0.0272586 -2.89178e-06 7.43224e-09
0.0272595 -2.13914e-06 2.89092e-09
0.0272601 -1.56291e-06 7.1118e-10
0.0272605 -1.13143e-06 -2.48561e-10
0.0272608 -8.13332e-07 -6.00433e-10
0.027261 -5.81466e-07 -6.65816e-10
0.0272612 -4.13878e-07 -6.08959e-10
0.0272613 -2.93532e-07 -5.10651e-10
0.0272613 -2.07553e-07 -4.08291e-10
0.0272614 -1.46382e-07 -3.17383e-10
0.0272614 -1.03015e-07 -2.42911e-10
0.0272614 -7.23693e-08 -1.85285e-10
0.0272615 -5.07853e-08 -1.4344e-10
0.0272615 -3.56489e-08 -1.1649e-10
0.0272615 -2.51126e-08 -1.04689e-10
0.0272615 -1.7902e-08 -1.10356e-10
0.0272615 -1.31984e-08 -1.39792e-10
0.0272615 -1.05449e-08 -2.02041e-10
0.0272615 -9.63292e-09 -2.74171e-10
0.0272615 -1.01939e-08 -3.71393e-10
0.0272615 -1.23685e-08 -2.89668e-09
0.0272615 -1.61043e-08 -1.45932e-08
0.0272615 -1.82869e-08 -2.383e-08
0.018 -2.98653e-08 -7.60893e-09
0.018 -0.00698369 -0.00388139
0.0195607 -0.0169312 -0.00848805
0.0201641 -0.0199782 -0.0074524
0.0163023 -0.0212833 -0.00442459
-9.43458e-09 -0.0112528 -0.00157887
1.73908e-06 6.9051e-07 4.42173e-09
-7.46303e-07 8.01776e-07 0.000133393
0.00906403 0.00657028 0.00027906
0.0181841 0.0132658 0.000231112
0.0207516 0.0115853 7.37867e-05
0.0220959 0.00790542 -5.67438e-05
0.0235917 0.0046915 -7.43522e-05
0.0248433 0.00256722 -3.91514e-05
0.0257395 0.00134239 -9.70519e-06
0.0263373 0.000664352 3.5484e-06
0.0267183 0.000304282 6.80643e-06
0.0269533 0.000121957 6.02497e-06
0.0270953 3.48102e-05 4.28117e-06
0.0271799 -3.43138e-06 2.72731e-06
0.02723 -1.76343e-05 1.62562e-06
0.0272595 -2.06985e-05 9.24981e-07
0.027277 -1.90884e-05 5.07068e-07
0.0272873 -1.59083e-05 2.68352e-07
0.0272935 -1.25552e-05 1.36454e-07
0.0272973 -9.58601e-06 6.57061e-08
0.0272996 -7.16174e-06 2.89308e-08
0.027301 -5.27102e-06 1.05527e-08
0.0273019 -3.83808e-06 1.88681e-09
0.0273025 -2.77264e-06 -1.80281e-09
0.0273029 -1.99098e-06 -3.0443e-09
0.0273031 -1.42303e-06 -3.15594e-09
0.0273033 -1.01331e-06 -2.80487e-09
0.0273034 -7.19357e-07 -2.31434e-09
0.0273034 -5.09373e-07 -1.83014e-09
0.0273035 -3.59888e-07 -1.40928e-09
0.0273035 -2.53777e-07 -1.06645e-09
0.0273036 -1.78641e-07 -7.97835e-10
0.0273036 -1.25557e-07 -5.92904e-10
0.0273036 -8.81361e-08 -4.4008e-10
0.0273036 -6.18233e-08 -3.2934e-10
0.0273036 -4.33849e-08 -2.53489e-10
0.0273036 -3.05402e-08 -2.09118e-10
0.0273036 -2.1691e-08 -1.98113e-10
0.0273036 -1.57142e-08 -2.30858e-10
0.0273036 -1.18078e-08 -3.24461e-10
0.0273036 -9.41602e-09 -4.43704e-10
0.0273036 -8.15852e-09 -5.49635e-10
0.0273036 -7.9568e-09 -2.99511e-09
0.0273036 -8.62351e-09 -1.43213e-08
0.0273036 -9.10667e-09 -2.32531e-08
0.0196 -3.43589e-08 -2.38587e-08
0.0196 -0.00490901 -0.00444532
0.019239 -0.0108877 -0.00951685
0.0175491 -0.0119082 -0.00791026
0.0133253 -0.00973445 -0.00449248
0.00343593 -0.0038049 -0.00203101
1.3472e-06 -1.24945e-06 -0.000377241
5.03151e-07 -5.03151e-07 -9.13096e-10
-7.19669e-07 7.72936e-07 2.28617e-05
0.00656293 0.00458247 6.62509e-05
0.01325 0.0084129 4.90524e-05
0.0166039 0.00563844 -4.90443e-05
0.0203214 0.00251354 -9.57039e-05
0.0231296 0.000927762 -5.61337e-05
0.0249116 0.000243918 -1.60851e-05
0.0259634 -2.76786e-05 2.58081e-06
0.0265631 -0.000114326 7.23303e-06
0.0268987 -0.000124415 6.39996e-06
0.0270842 -0.000107625 4.38615e-06
0.0271861 -8.48527e-05 2.66541e-06
0.0272416 -6.38632e-05 1.5058e-06
0.0272717 -4.68528e-05 8.05751e-07
0.027288 -3.38693e-05 4.09743e-07
0.0272967 -2.42696e-05 1.95864e-07
0.0273013 -1.72984e-05 8.49546e-08
0.0273038 -1.22889e-05 2.9984e-08
0.027305 -8.71147e-06 4.40772e-09
0.0273057 -6.16652e-06 -6.24591e-09
0.027306 -4.36036e-06 -9.65118e-09
0.0273061 -3.08052e-06 -9.76938e-09
0.0273062 -2.17462e-06 -8.58006e-09
0.0273062 -1.53394e-06 -7.02774e-09
0.0273062 -1.08117e-06 -5.52944e-09
0.0273062 -7.61413e-07 -4.24198e-09
0.0273062 -5.35758e-07 -3.20022e-09
0.0273061 -3.76629e-07 -2.3868e-09
0.0273061 -2.64504e-07 -1.76612e-09
0.0273061 -1.85571e-07 -1.30004e-09
0.0273061 -1.30062e-07 -9.54436e-10
0.0273061 -9.10723e-08 -7.01487e-10
0.0273061 -6.37288e-08 -5.20061e-10
0.0273061 -4.45913e-08 -3.9566e-10
0.0273061 -3.12316e-08 -3.2054e-10
0.0273061 -2.19302e-08 -2.94226e-10
0.0273061 -1.54588e-08 -3.23843e-10
0.0273061 -1.09174e-08 -4.18787e-10
0.0273061 -7.61475e-09 -5.36508e-10
0.0273061 -5.00631e-09 -6.28006e-10
0.0273061 -2.79925e-09 -3.03215e-09
0.0273061 -8.4776e-10 -1.42275e-08
0.0273061 8.72535e-11 -2.30573e-08
0.0196 -1.93507e-08 -3.78391e-08
0.0196 -0.00245882 -0.00459108
0.0194444 -0.00498374 -0.00949109
0.0189968 -0.00434245 -0.00772702
0.0162529 -0.00102192 -0.00426505
0.0122422 0.00471351 -0.00217544
0.00741695 0.00391793 -0.000925968
1.35033e-06 -1.14858e-06 -0.000188603
4.28906e-07 -4.28906e-07 -1.63554e-09
-6.89708e-07 7.4963e-07 6.09301e-06
0.00458082 0.00153785 0.000130443
0.0107963 0.000858261 5.79933e-05
0.0177971 -0.00179429 -0.000161033
0.0224642 -0.00199725 -0.000142395
0.0249149 -0.00148132 -6.22179e-05
0.0261239 -0.000985547 -1.63986e-05
0.026722 -0.000632278 -6.91856e-07
0.0270203 -0.000400875 2.56675e-06
0.0271691 -0.000253943 2.27453e-06
0.0272427 -0.000161685 1.4296e-06
0.0272785 -0.000103825 7.71915e-07
0.0272954 -6.73654e-05 3.71534e-07
0.0273028 -4.41949e-05 1.54872e-07
0.0273058 -2.93118e-05 4.72958e-08
0.0273066 -1.96395e-05 -1.29542e-09
0.0273065 -1.32789e-05 -2.00504e-08
0.0273061 -9.04883e-06 -2.46949e-08
0.0273056 -6.20674e-06 -2.32752e-08
0.0273052 -4.27997e-06 -1.97079e-08
0.0273048 -2.96373e-06 -1.57813e-08
0.0273045 -2.05887e-06 -1.22277e-08
0.0273043 -1.43366e-06 -9.27864e-09
0.0273041 -9.99955e-07 -6.94405e-09
0.0273039 -6.98193e-07 -5.1479e-09
0.0273039 -4.87773e-07 -3.79124e-09
0.0273038 -3.40823e-07 -2.77921e-09
0.0273037 -2.38104e-07 -2.03092e-09
0.0273037 -1.6627e-07 -1.48141e-09
0.0273037 -1.16033e-07 -1.08052e-09
0.0273037 -8.09107e-08 -7.90673e-10
0.0273036 -5.63697e-08 -5.84815e-10
0.0273036 -3.92304e-08 -4.44802e-10
0.0273036 -2.7255e-08 -3.60441e-10
0.0273036 -1.88548e-08 -3.29278e-10
0.0273036 -1.28797e-08 -3.57215e-10
0.0273036 -8.45826e-09 -4.53173e-10
0.0273036 -4.86159e-09 -5.72093e-10
0.0273036 -1.39627e-09 -6.5513e-10
0.0273036 2.51831e-09 -3.04495e-09
0.0273036 6.95775e-09 -1.42706e-08
0.0273036 9.26953e-09 -2.31365e-08
0.018 -1.19795e-08 -3.95359e-08
0.018 -0.000487217 -0.00442838
0.0190927 -0.000503552 -0.00890763
0.0205144 0.000667636 -0.00703606
0.0204768 0.00290936 -0.00385444
0.0201952 0.00801216 -0.00199291
0.020525 0.0134316 -0.00101445
0.0127506 0.00764487 -0.000461211
1.383e-06 -9.14149e-07 -0.000141997
-5.67568e-07 -1.01645e-06 1.05834e-08
1.18283e-07 -0.00241718 0.000504531
0.0103902 -0.00758167 0.000506095
0.0192307 -0.00909091 -0.000125908
0.0241418 -0.00613526 -0.000205585
0.0261741 -0.0033888 -0.000108375
0.0269182 -0.00182537 -3.98875e-05
0.0271838 -0.00100853 -1.23227e-05
0.0272745 -0.000571528 -3.37701e-06
0.0273002 -0.000330508 -8.13127e-07
0.0273023 -0.000194672 -1.74086e-07
0.0272966 -0.000116763 -5.30515e-08
0.0272894 -7.1319e-05 -4.55639e-08
0.0272827 -4.43518e-05 -5.02143e-08
0.0272773 -2.80629e-05 -4.89765e-08
0.0272731 -1.80463e-05 -4.28158e-08
0.0272699 -1.17771e-05 -3.48794e-08
0.0272676 -7.78625e-06 -2.71894e-08
0.0272658 -5.20551e-06 -2.06181e-08
0.0272646 -3.51276e-06 -1.53661e-08
0.0272637 -2.38856e-06 -1.13274e-08
0.0272631 -1.63397e-06 -8.29292e-09
0.0272626 -1.12299e-06 -6.0452e-09
0.0272623 -7.7449e-07 -4.39489e-09
0.0272621 -5.35463e-07 -3.18985e-09
0.0272619 -3.70809e-07 -2.31299e-09
0.0272618 -2.57024e-07 -1.67642e-09
0.0272617 -1.78215e-07 -1.21513e-09
0.0272616 -1.23552e-07 -8.81615e-10
0.0272616 -8.56065e-08 -6.4152e-10
0.0272616 -5.9256e-08 -4.70458e-10
0.0272615 -4.09529e-08 -3.51795e-10
0.0272615 -2.82279e-08 -2.75316e-10
0.0272615 -1.93492e-08 -2.36687e-10
0.0272615 -1.30842e-08 -2.37687e-10
0.0272615 -8.52707e-09 -2.87422e-10
0.0272615 -4.96328e-09 -3.98499e-10
0.0272615 -1.73117e-09 -5.30052e-10
0.0272615 1.98698e-09 -6.17582e-10
0.0272615 7.28993e-09 -3.01464e-09
0.0272615 1.4452e-08 -1.44615e-08
0.0272615 1.84118e-08 -2.35398e-08
0.0148 -9.24882e-09 -3.58461e-08
0.0148 0.000564359 -0.00408581
0.0176651 0.0016653 -0.00789768
0.0211012 0.00276655 -0.00593699
0.0234793 0.00458525 -0.00324619
0.0252557 0.00744029 -0.00184264
0.0282717 0.0127244 -0.00112687
0.031663 0.0210512 -0.000595236
0.0261743 0.0128475 6.30912e-06
0.027943 1.51979e-14 0.000635573
0.0327179 -0.00899911 0.00132135
0.0349561 -0.01851 0.00108059
0.0324323 -0.0154893 8.00807e-05
0.029923 -0.00886191 -0.000229539
0.0284885 -0.00421247 -0.000162463
0.027738 -0.00197593 -7.06612e-05
0.0273317 -0.000981431 -2.57674e-05
0.0271015 -0.000514954 -8.70622e-06
0.0269665 -0.000281005 -2.78873e-06
0.0268853 -0.000157871 -8.22679e-07
0.0268355 -9.08539e-05 -1.92654e-07
0.0268045 -5.34302e-05 -2.87438e-09
0.0267847 -3.20679e-05 4.54367e-08
0.0267719 -1.96229e-05 5.03045e-08
0.0267636 -1.2229e-05 4.33409e-08
0.026758 -7.75105e-06 3.44267e-08
0.0267543 -4.9884e-06 2.6409e-08
0.0267518 -3.25378e-06 1.99008e-08
0.02675 -2.1468e-06 1.48388e-08
0.0267488 -1.42998e-06 1.09864e-08
0.026748 -9.59834e-07 8.09251e-09
0.0267474 -6.48118e-07 5.93762e-09
0.026747 -4.39585e-07 4.34324e-09
0.0267468 -2.99075e-07 3.16929e-09
0.0267466 -2.03873e-07 2.30812e-09
0.0267464 -1.39104e-07 1.67818e-09
0.0267463 -9.49143e-08 1.21825e-09
0.0267462 -6.47114e-08 8.82655e-10
0.0267462 -4.40496e-08 6.37371e-10
0.0267462 -2.99094e-08 4.56856e-10
0.0267461 -2.02276e-08 3.21483e-10
0.0267461 -1.35832e-08 2.15318e-10
0.0267461 -8.98614e-09 1.24076e-10
0.0267461 -5.72831e-09 3.30256e-11
0.0267461 -3.27428e-09 -7.5534e-11
0.0267461 -1.16966e-09 -2.20696e-10
0.0267461 1.06619e-09 -3.73277e-10
0.0267461 4.24314e-09 -4.82355e-10
0.0267461 1.02535e-08 -2.87239e-09
0.0267461 2.04392e-08 -1.46128e-08
0.0267461 2.65752e-08 -2.40038e-08
0.01 -1.56903e-08 -3.48982e-08
0.01 0.000492454 -0.00341947
0.0139476 0.00138775 -0.00617755
0.0183241 0.00206636 -0.00424045
0.0220341 0.00319469 -0.00227832
0.0260931 0.00566614 -0.00142813
0.0313056 0.00832107 -0.00124436
0.0399333 0.010295 -0.000890407
0.0529113 0.00376119 2.81351e-05