# vtk DataFile Version 2.0
Tobias Weinzierl: CPU, Manycore and Cluster Computing
ASCII

DATASET STRUCTURED_POINTS
DIMENSIONS  51 11 6

ORIGIN 0 0 0 

SPACING 0.1 0.1 0.1 

POINT_DATA 3366

VECTORS velocity float
0 0 0
-1.29399e-15 0 0
-3.924e-09 0 0
-6.57483e-09 0 0
-6.20083e-09 0 0
-1.48876e-09 0 0
-3.41232e-10 0 0
-1.06461e-09 0 0
-2.56468e-09 0 0
-3.98548e-09 0 0
-4.62154e-09 0 0
-4.6756e-09 0 0
-4.539e-09 0 0
-4.41567e-09 0 0
-4.36069e-09 0 0
-4.36376e-09 0 0
-4.39635e-09 0 0
-4.43604e-09 0 0
-4.47132e-09 0 0
-4.49845e-09 0 0
-4.51762e-09 0 0
-4.53039e-09 0 0
-4.53856e-09 0 0
-4.5436e-09 0 0
-4.54662e-09 0 0
-4.54839e-09 0 0
-4.54939e-09 0 0
-4.54993e-09 0 0
-4.55022e-09 0 0
-4.55035e-09 0 0
-4.55041e-09 0 0
-4.55042e-09 0 0
-4.55042e-09 0 0
-4.5504e-09 0 0
-4.55038e-09 0 0
-4.55037e-09 0 0
-4.55035e-09 0 0
-4.55034e-09 0 0
-4.55033e-09 0 0
-4.55032e-09 0 0
-4.55031e-09 0 0
-4.55031e-09 0 0
-4.5503e-09 0 0
-4.5503e-09 0 0
-4.5503e-09 0 0
-4.55029e-09 0 0
-4.55029e-09 0 0
-4.55029e-09 0 0
-4.55029e-09 0 0
-4.5503e-09 0 0
0.00297534 0 0
0 7.56483e-09 0
1.86773e-14 2.18898e-09 0
-7.56059e-09 3.52595e-09 0
-1.29594e-08 2.13448e-09 0
-1.14421e-08 9.82895e-10 0
-3.34629e-09 1.22567e-09 0
-1.17794e-09 2.42231e-09 0
-1.75257e-09 2.56248e-09 0
-3.20028e-09 2.19842e-09 0
-5.41798e-09 1.56414e-09 0
-6.65324e-09 7.23569e-10 0
-7.00435e-09 1.96174e-10 0
-7.1117e-09 7.00987e-13 0
-7.24704e-09 -2.2924e-11 0
-7.45236e-09 1.26565e-11 0
-7.69006e-09 4.75941e-11 0
-7.91168e-09 6.19499e-11 0
-8.09074e-09 5.93452e-11 0
-8.22236e-09 4.86566e-11 0
-8.31303e-09 3.62895e-11 0
-8.37265e-09 2.53825e-11 0
-8.41051e-09 1.69349e-11 0
-8.43391e-09 1.08867e-11 0
-8.44806e-09 6.78394e-12 0
-8.45647e-09 4.1104e-12 0
-8.46139e-09 2.42284e-12 0
-8.46423e-09 1.38584e-12 0
-8.46584e-09 7.63808e-13 0
-8.46675e-09 3.99446e-13 0
-8.46725e-09 1.91481e-13 0
-8.46751e-09 7.65201e-14 0
-8.46765e-09 1.57596e-14 0
-8.46771e-09 -1.41031e-14 0
-8.46774e-09 -2.68266e-14 0
-8.46774e-09 -3.03989e-14 0
-8.46774e-09 -2.93719e-14 0
-8.46773e-09 -2.62802e-14 0
-8.46772e-09 -2.24896e-14 0
-8.46771e-09 -1.87001e-14 0
-8.4677e-09 -1.52391e-14 0
-8.4677e-09 -1.22304e-14 0
-8.46769e-09 -9.69141e-15 0
-8.46769e-09 -7.58785e-15 0
-8.46768e-09 -5.86085e-15 0
-8.46768e-09 -4.43657e-15 0
-8.46768e-09 -3.23818e-15 0
-8.46768e-09 -2.21357e-15 0
-8.46768e-09 -1.05427e-15 0
-8.46768e-09 2.76518e-15 0
-8.46769e-09 1.54026e-14 0
0.0077608 -5.0025e-09 0
0 8.97992e-10 0
6.27395e-14 2.71238e-09 0
-5.76539e-09 3.36655e-09 0
-1.07014e-08 4.02856e-10 0
-6.94032e-09 3.85622e-10 0
-1.82992e-09 2.04246e-09 0
-2.60187e-09 2.65988e-09 0
-3.47112e-09 1.03847e-09 0
-3.41528e-09 -5.50614e-11 0
-4.03214e-09 5.68739e-10 0
-4.61688e-09 1.08002e-09 0
-4.74111e-09 1.48991e-09 0
-4.90511e-09 1.54616e-09 0
-5.1424e-09 1.2865e-09 0
-5.45195e-09 9.64376e-10 0
-5.78342e-09 6.93398e-10 0
-6.07506e-09 4.84599e-10 0
-6.29839e-09 3.29512e-10 0
-6.45435e-09 2.18236e-10 0
-6.55667e-09 1.41079e-10 0
-6.62093e-09 8.92413e-11 0
-6.66005e-09 5.53785e-11 0
-6.68333e-09 3.37927e-11 0
-6.69696e-09 2.03192e-11 0
-6.70486e-09 1.20584e-11 0
-6.70941e-09 7.06988e-12 0
-6.71201e-09 4.09599e-12 0
-6.7135e-09 2.34279e-12 0
-6.71435e-09 1.31957e-12 0
-6.71484e-09 7.2814e-13 0
-6.71512e-09 3.89814e-13 0
-6.71528e-09 1.98673e-13 0
-6.71537e-09 9.24803e-14 0
-6.71542e-09 3.49286e-14 0
-6.71545e-09 4.96051e-15 0
-6.71547e-09 -9.56917e-15 0
-6.71548e-09 -1.56265e-14 0
-6.71548e-09 -1.71781e-14 0
-6.71548e-09 -1.64587e-14 0
-6.71548e-09 -1.47075e-14 0
-6.71548e-09 -1.25931e-14 0
-6.71548e-09 -1.04584e-14 0
-6.71548e-09 -8.45685e-15 0
-6.71548e-09 -6.63156e-15 0
-6.71548e-09 -4.93896e-15 0
-6.71548e-09 -3.16414e-15 0
-6.71548e-09 -7.06086e-16 0
-6.71548e-09 3.37162e-15 0
-6.71548e-09 8.97521e-15 0
-6.71549e-09 1.58396e-14 0
0.00992639 -5.88101e-09 0
0 -8.82158e-09 0
8.74212e-14 1.40371e-09 0
-3.9428e-09 -5.03262e-11 0
-8.92969e-09 -4.43122e-09 0
-5.08644e-09 -3.94267e-09 0
2.76229e-11 -9.65509e-10 0
-1.76518e-09 -2.71193e-14 0
-2.78317e-09 -2.39337e-09 0
-6.43858e-09 -4.7796e-09 0
-6.61597e-09 -3.28169e-09 0
-6.50082e-09 -4.44666e-10 0
-6.15909e-09 1.65866e-09 0
-5.77995e-09 2.38039e-09 0
-5.35808e-09 2.07136e-09 0
-5.10405e-09 1.5423e-09 0
-5.04428e-09 1.08624e-09 0
-5.08433e-09 7.36897e-10 0
-5.1474e-09 4.83471e-10 0
-5.20033e-09 3.08181e-10 0
-5.23618e-09 1.9179e-10 0
-5.25779e-09 1.17034e-10 0
-5.26989e-09 7.02821e-11 0
-5.27631e-09 4.16604e-11 0
-5.27958e-09 2.44333e-11 0
-5.2812e-09 1.42027e-11 0
-5.28198e-09 8.1912e-12 0
-5.28236e-09 4.68805e-12 0
-5.28254e-09 2.66024e-12 0
-5.28263e-09 1.49305e-12 0
-5.28267e-09 8.24834e-13 0
-5.2827e-09 4.44587e-13 0
-5.28271e-09 2.29932e-13 0
-5.28272e-09 1.10191e-13 0
-5.28272e-09 4.46539e-14 0
-5.28272e-09 9.91194e-15 0
-5.28272e-09 -7.47717e-15 0
-5.28272e-09 -1.52216e-14 0
-5.28272e-09 -1.77281e-14 0
-5.28272e-09 -1.75036e-14 0
-5.28272e-09 -1.59587e-14 0
-5.28272e-09 -1.38697e-14 0
-5.28272e-09 -1.1644e-14 0
-5.28272e-09 -9.46839e-15 0
-5.28272e-09 -7.38328e-15 0
-5.28272e-09 -5.33092e-15 0
-5.28272e-09 -3.24206e-15 0
-5.28272e-09 -1.115e-15 0
-5.28272e-09 1.15981e-15 0
-5.28271e-09 4.20758e-15 0
-5.28271e-09 8.59689e-15 0
0.010332 -4.14854e-09 0
0 -1.70754e-08 0
7.15128e-14 -2.65472e-10 0
-3.99917e-09 -2.45196e-09 0
-9.48942e-09 -4.74065e-09 0
-7.94951e-09 -3.44877e-09 0
-2.72295e-14 -8.9465e-10 0
-3.05862e-13 -3.34882e-13 0
2.83364e-13 -3.25878e-13 0
-3.65891e-09 -2.93026e-09 0
-7.37757e-09 -4.59763e-09 0
-7.3107e-09 -1.56932e-09 0
-7.44162e-09 1.12393e-09 0
-7.31315e-09 2.00414e-09 0
-6.61952e-09 1.72003e-09 0
-5.91336e-09 1.2883e-09 0
-5.45978e-09 9.31308e-10 0
-5.21745e-09 6.4014e-10 0
-5.0924e-09 4.16553e-10 0
-5.02442e-09 2.59178e-10 0
-4.9845e-09 1.5607e-10 0
-4.95969e-09 9.18737e-11 0
-4.9439e-09 5.32746e-11 0
-4.93385e-09 3.06019e-11 0
-4.92755e-09 1.74832e-11 0
-4.92366e-09 9.96072e-12 0
-4.92131e-09 5.66691e-12 0
-4.9199e-09 3.21943e-12 0
-4.91908e-09 1.82342e-12 0
-4.91861e-09 1.02576e-12 0
-4.91834e-09 5.69216e-13 0
-4.91819e-09 3.07822e-13 0
-4.91811e-09 1.5856e-13 0
-4.91806e-09 7.40102e-14 0
-4.91804e-09 2.69297e-14 0
-4.91802e-09 1.56575e-15 0
-4.91801e-09 -1.12527e-14 0
-4.91801e-09 -1.6895e-14 0
-4.91801e-09 -1.85178e-14 0
-4.91801e-09 -1.79748e-14 0
-4.918e-09 -1.63483e-14 0
-4.918e-09 -1.42601e-14 0
-4.918e-09 -1.20521e-14 0
-4.918e-09 -9.90531e-15 0
-4.918e-09 -7.91433e-15 0
-4.918e-09 -6.12047e-15 0
-4.918e-09 -4.50074e-15 0
-4.918e-09 -2.94778e-15 0
-4.918e-09 -1.28847e-15 0
-4.918e-09 8.49827e-16 0
-4.918e-09 3.70466e-15 0
0.0103875 -1.9173e-09 0
0 -1.52571e-08 0
5.54257e-14 -1.05011e-09 0
-4.18241e-09 -2.75142e-09 0
-9.74276e-09 -3.85749e-09 0
-9.80073e-09 -3.98128e-09 0
-3.14191e-09 -1.82511e-09 0
-2.94127e-13 2.86101e-13 0
-2.73393e-15 2.73393e-15 0
2.62284e-13 -3.04446e-13 0
-3.36123e-09 -1.87885e-09 0
-5.38774e-09 -1.61466e-09 0
-6.95524e-09 1.61533e-09 0
-8.27286e-09 2.30377e-09 0
-7.90123e-09 1.48755e-09 0
-6.85978e-09 8.63257e-10 0
-6.02011e-09 5.35569e-10 0
-5.51485e-09 3.31372e-10 0
-5.23422e-09 1.93901e-10 0
-5.07801e-09 1.07156e-10 0
-4.98911e-09 5.68331e-11 0
-4.9377e-09 2.94709e-11 0
-4.90778e-09 1.52158e-11 0
-4.89037e-09 7.95969e-12 0
-4.88027e-09 4.28436e-12 0
-4.87445e-09 2.39743e-12 0
-4.87112e-09 1.39779e-12 0
-4.86921e-09 8.43537e-13 0
-4.86814e-09 5.19909e-13 0
-4.86753e-09 3.21703e-13 0
-4.86719e-09 1.95918e-13 0
-4.867e-09 1.14504e-13 0
-4.86689e-09 6.16164e-14 0
-4.86683e-09 2.76526e-14 0
-4.8668e-09 6.42931e-15 0
-4.86678e-09 -6.20966e-15 0
-4.86677e-09 -1.31256e-14 0
-4.86677e-09 -1.63049e-14 0
-4.86677e-09 -1.71219e-14 0
-4.86676e-09 -1.65169e-14 0
-4.86676e-09 -1.51209e-14 0
-4.86676e-09 -1.33471e-14 0
-4.86676e-09 -1.14607e-14 0
-4.86676e-09 -9.61893e-15 0
-4.86676e-09 -7.90124e-15 0
-4.86676e-09 -6.34378e-15 0
-4.86676e-09 -4.97192e-15 0
-4.86676e-09 -3.80794e-15 0
-4.86676e-09 -2.80655e-15 0
-4.86676e-09 -1.72482e-15 0
-4.86676e-09 -3.30812e-16 0
0.0103929 3.04634e-10 0
0 -1.0858e-08 0
5.08818e-14 -1.38424e-09 0
-3.98314e-09 -3.10567e-09 0
-9.52213e-09 -2.89079e-09 0
-1.02196e-08 -2.12313e-09 0
-6.95681e-09 -2.04962e-09 0
-2.48315e-09 -1.09584e-09 0
-2.94433e-13 2.77771e-13 0
-1.5484e-14 1.5484e-14 0
2.38095e-13 -2.86474e-13 0
-1.99268e-09 1.39099e-09 0
-5.20628e-09 3.93067e-09 0
-9.00919e-09 3.69945e-09 0
-9.45019e-09 1.38668e-09 0
-7.86808e-09 2.01218e-10 0
-6.45389e-09 -8.75209e-11 0
-5.6657e-09 -1.19567e-10 0
-5.28377e-09 -1.0375e-10 0
-5.10151e-09 -7.92341e-11 0
-5.0124e-09 -5.52376e-11 0
-4.96761e-09 -3.57636e-11 0
-4.94458e-09 -2.18238e-11 0
-4.93249e-09 -1.26849e-11 0
-4.92602e-09 -7.06287e-12 0
-4.92251e-09 -3.77038e-12 0
-4.92057e-09 -1.92121e-12 0
-4.91948e-09 -9.23736e-13 0
-4.91886e-09 -4.09215e-13 0
-4.91851e-09 -1.58549e-13 0
-4.9183e-09 -4.63496e-14 0
-4.91818e-09 -3.23729e-15 0
-4.91811e-09 7.84308e-15 0
-4.91806e-09 5.85818e-15 0
-4.91804e-09 -4.41602e-17 0
-4.91802e-09 -5.86255e-15 0
-4.91801e-09 -1.01646e-14 0
-4.91801e-09 -1.2712e-14 0
-4.918e-09 -1.37542e-14 0
-4.918e-09 -1.36823e-14 0
-4.918e-09 -1.28746e-14 0
-4.918e-09 -1.16402e-14 0
-4.918e-09 -1.02069e-14 0
-4.918e-09 -8.73138e-15 0
-4.918e-09 -7.31842e-15 0
-4.918e-09 -6.04228e-15 0
-4.918e-09 -4.98066e-15 0
-4.918e-09 -4.25515e-15 0
-4.918e-09 -3.99694e-15 0
-4.918e-09 -4.17086e-15 0
-4.918e-09 -4.42382e-15 0
0.0103875 2.48291e-09 0
0 -7.8309e-09 0
4.29415e-14 -1.62325e-09 0
-4.07886e-09 -3.17083e-09 0
-9.16068e-09 -2.38734e-09 0
-9.88646e-09 -1.15209e-09 0
-7.5657e-09 -9.68766e-10 0
-5.45518e-09 -2.4008e-09 0
-3.29708e-09 -1.74437e-09 0
-3.08852e-13 2.46691e-13 0
2.13174e-13 2.30359e-13 0
-1.58717e-15 2.789e-09 0
-2.41403e-09 7.185e-09 0
-6.96362e-09 5.91897e-09 0
-9.02545e-09 1.24384e-09 0
-8.02522e-09 -7.70693e-10 0
-6.60768e-09 -8.26815e-10 0
-5.793e-09 -5.39688e-10 0
-5.44866e-09 -3.26926e-10 0
-5.32557e-09 -1.94299e-10 0
-5.28788e-09 -1.12681e-10 0
-5.27922e-09 -6.35505e-11 0
-5.27901e-09 -3.4929e-11 0
-5.28046e-09 -1.87557e-11 0
-5.28173e-09 -9.84132e-12 0
-5.28251e-09 -5.03084e-12 0
-5.2829e-09 -2.48814e-12 0
-5.28304e-09 -1.17568e-12 0
-5.28306e-09 -5.18856e-13 0
-5.28302e-09 -2.04363e-13 0
-5.28297e-09 -6.38896e-14 0
-5.28291e-09 -8.53105e-15 0
-5.28286e-09 7.63394e-15 0
-5.28282e-09 7.58121e-15 0
-5.28279e-09 2.25601e-15 0
-5.28277e-09 -3.54086e-15 0
-5.28275e-09 -8.02984e-15 0
-5.28274e-09 -1.08276e-14 0
-5.28273e-09 -1.21247e-14 0
-5.28272e-09 -1.22909e-14 0
-5.28272e-09 -1.16986e-14 0
-5.28272e-09 -1.0657e-14 0
-5.28271e-09 -9.39881e-15 0
-5.28271e-09 -8.08823e-15 0
-5.28271e-09 -6.84082e-15 0
-5.28271e-09 -5.74541e-15 0
-5.28271e-09 -4.89514e-15 0
-5.28271e-09 -4.47374e-15 0
-5.28271e-09 -4.86906e-15 0
-5.28271e-09 -6.56509e-15 0
-5.28271e-09 -9.28043e-15 0
0.010332 4.55923e-09 0
0 -7.18376e-09 0
3.33859e-14 -1.61417e-09 0
-4.63883e-09 -3.01613e-09 0
-9.20939e-09 -2.01673e-09 0
-1.00225e-08 -8.01141e-10 0
-8.36615e-09 -4.31489e-10 0
-6.32583e-09 -1.29166e-09 0
-6.01692e-09 -3.75097e-09 0
-4.40152e-09 -2.70443e-09 0
-6.75452e-09 4.91317e-18 0
-8.18963e-09 2.66434e-09 0
-5.20272e-09 7.27706e-09 0
-3.67979e-09 6.60299e-09 0
-5.76351e-09 1.69759e-09 0
-6.90362e-09 -9.53836e-10 0
-6.82255e-09 -1.08522e-09 0
-6.63732e-09 -6.39762e-10 0
-6.59294e-09 -3.19363e-10 0
-6.61716e-09 -1.53325e-10 0
-6.65226e-09 -7.37224e-11 0
-6.67938e-09 -3.5876e-11 0
-6.69658e-09 -1.76526e-11 0
-6.70644e-09 -8.72367e-12 0
-6.71171e-09 -4.28694e-12 0
-6.71433e-09 -2.0703e-12 0
-6.71553e-09 -9.69811e-13 0
-6.71599e-09 -4.34561e-13 0
-6.7161e-09 -1.84111e-13 0
-6.71606e-09 -7.44232e-14 0
-6.71596e-09 -3.17502e-14 0
-6.71585e-09 -1.89441e-14 0
-6.71576e-09 -1.78857e-14 0
-6.71568e-09 -2.02244e-14 0
-6.71562e-09 -2.24919e-14 0
-6.71557e-09 -2.35522e-14 0
-6.71554e-09 -2.32973e-14 0
-6.71552e-09 -2.20061e-14 0
-6.7155e-09 -2.00433e-14 0
-6.71549e-09 -1.77354e-14 0
-6.71548e-09 -1.53327e-14 0
-6.71548e-09 -1.3006e-14 0
-6.71548e-09 -1.08612e-14 0
-6.71548e-09 -8.96032e-15 0
-6.71547e-09 -7.34131e-15 0
-6.71547e-09 -6.03596e-15 0
-6.71547e-09 -5.09239e-15 0
-6.71547e-09 -4.6579e-15 0
-6.71547e-09 -5.31977e-15 0
-6.71547e-09 -8.65223e-15 0
-6.71548e-09 -1.56213e-14 0
0.00992639 5.96169e-09 0
0 -7.79517e-09 0
2.31383e-14 -1.02096e-09 0
-5.13511e-09 -1.88146e-09 0
-9.1163e-09 -1.22584e-09 0
-1.01267e-08 -6.23955e-10 0
-9.73689e-09 -8.99403e-10 0
-8.56707e-09 -1.69915e-09 0
-7.80202e-09 -2.08624e-09 0
-9.07608e-09 1.10948e-09 0
-9.40157e-09 4.64677e-09 0
-9.41286e-09 2.07677e-09 0
-6.84694e-09 -2.35215e-09 0
-5.4884e-09 -2.98591e-09 0
-7.4417e-09 -1.04373e-09 0
-8.83389e-09 4.47088e-10 0
-8.88585e-09 7.77879e-10 0
-8.65023e-09 5.5104e-10 0
-8.51091e-09 2.90319e-10 0
-8.46132e-09 1.32438e-10 0
-8.45146e-09 5.5809e-11 0
-8.454e-09 2.23508e-11 0
-8.45856e-09 8.54177e-12 0
-8.4622e-09 3.02535e-12 0
-8.46456e-09 8.75447e-13 0
-8.46595e-09 6.63247e-14 0
-8.46671e-09 -2.13956e-13 0
-8.46711e-09 -2.87874e-13 0
-8.46731e-09 -2.83609e-13 0
-8.46742e-09 -2.52323e-13 0
-8.46747e-09 -2.144e-13 0
-8.4675e-09 -1.77756e-13 0
-8.46753e-09 -1.4519e-13 0
-8.46754e-09 -1.17393e-13 0
-8.46756e-09 -9.41994e-14 0
-8.46758e-09 -7.51264e-14 0
-8.46759e-09 -5.96035e-14 0
-8.4676e-09 -4.70696e-14 0
-8.46761e-09 -3.70146e-14 0
-8.46762e-09 -2.89935e-14 0
-8.46763e-09 -2.26261e-14 0
-8.46764e-09 -1.75943e-14 0
-8.46764e-09 -1.36366e-14 0
-8.46765e-09 -1.05421e-14 0
-8.46765e-09 -8.14732e-15 0
-8.46765e-09 -6.3383e-15 0
-8.46766e-09 -5.05585e-15 0
-8.46766e-09 -4.33065e-15 0
-8.46766e-09 -4.62286e-15 0
-8.46766e-09 -8.15225e-15 0
-8.46768e-09 -1.81603e-14 0
0.0077608 4.69289e-09 0
0 0 0
1.03778e-14 0 0
-2.58924e-09 0 0
-4.41165e-09 0 0
-5.00974e-09 0 0
-5.12151e-09 0 0
-5.21328e-09 0 0
-5.08218e-09 0 0
-4.67459e-09 0 0
-2.64708e-09 0 0
-1.22323e-09 0 0
-2.11231e-09 0 0
-4.1703e-09 0 0
-5.58221e-09 0 0
-5.77758e-09 0 0
-5.36458e-09 0 0
-4.96222e-09 0 0
-4.72839e-09 0 0
-4.61884e-09 0 0
-4.57338e-09 0 0
-4.55614e-09 0 0
-4.55024e-09 0 0
-4.54857e-09 0 0
-4.54836e-09 0 0
-4.54859e-09 0 0
-4.5489e-09 0 0
-4.54918e-09 0 0
-4.54942e-09 0 0
-4.54961e-09 0 0
-4.54976e-09 0 0
-4.54987e-09 0 0
-4.54996e-09 0 0
-4.55003e-09 0 0
-4.55009e-09 0 0
-4.55013e-09 0 0
-4.55017e-09 0 0
-4.55019e-09 0 0
-4.55022e-09 0 0
-4.55023e-09 0 0
-4.55024e-09 0 0
-4.55025e-09 0 0
-4.55026e-09 0 0
-4.55027e-09 0 0
-4.55027e-09 0 0
-4.55027e-09 0 0
-4.55028e-09 0 0
-4.55028e-09 0 0
-4.55028e-09 0 0
-4.55028e-09 0 0
-4.55029e-09 0 0
0.00297534 0 0
0 0 8.19122e-09
3.46367e-14 0 1.73501e-09
-8.00682e-09 0 3.04887e-09
-1.48794e-08 0 1.42358e-10
-1.66344e-08 0 -6.06897e-09
-1.91625e-09 0 -7.08527e-09
2.66744e-09 0 -2.84645e-09
2.43199e-09 0 -3.39037e-10
1.09576e-10 0 7.22445e-10
-2.6474e-09 0 4.92719e-10
-4.52499e-09 0 -3.34425e-11
-5.6377e-09 0 -2.78715e-10
-6.36746e-09 0 -2.60635e-10
-6.89182e-09 0 -1.55378e-10
-7.29665e-09 0 -6.45707e-11
-7.62738e-09 0 -1.19375e-11
-7.89324e-09 0 1.03318e-11
-8.09548e-09 0 1.56203e-11
-8.24075e-09 0 1.37588e-11
-8.34024e-09 0 1.00106e-11
-8.40586e-09 0 6.55768e-12
-8.44788e-09 0 4.00572e-12
-8.47417e-09 0 2.32001e-12
-8.4903e-09 0 1.28325e-12
-8.50006e-09 0 6.78146e-13
-8.50589e-09 0 3.40011e-13
-8.50933e-09 0 1.58696e-13
-8.51134e-09 0 6.57596e-14
-8.51251e-09 0 2.07845e-14
-8.51318e-09 0 8.32994e-16
-8.51356e-09 0 -6.66632e-15
-8.51377e-09 0 -8.36767e-15
-8.51389e-09 0 -7.65469e-15
-8.51395e-09 0 -6.16008e-15
-8.51398e-09 0 -4.61159e-15
-8.51399e-09 0 -3.28672e-15
-8.51399e-09 0 -2.25344e-15
-8.51399e-09 0 -1.49221e-15
-8.51399e-09 0 -9.52228e-16
-8.51399e-09 0 -5.79923e-16
-8.51398e-09 0 -3.27774e-16
-8.51398e-09 0 -1.55536e-16
-8.51397e-09 0 -3.17667e-17
-8.51397e-09 0 7.18447e-17
-8.51397e-09 0 1.8575e-16
-8.51397e-09 0 3.20227e-16
-8.51397e-09 0 3.9972e-16
-8.51397e-09 0 5.03627e-16
-8.51397e-09 0 2.9061e-15
-8.51398e-09 0 1.39294e-14
0.0077557 0 -4.09814e-09
0.0036 2.98824e-09 3.56508e-09
0.00359999 -0.00193154 -0.000537991
0.00808465 -0.00559733 -0.00179103
0.016752 -0.00881223 -0.00326348
0.0285524 -0.0125531 -0.00436944
0.0465935 -0.00834699 -0.00287539
0.0485569 -7.82297e-05 -0.000365104
0.0478661 0.00326769 0.000566821
0.042518 0.00490657 0.00057361
0.0369512 0.00460931 6.74295e-05
0.032064 0.00372146 -0.000263835
0.0281437 0.00275625 -0.000320966
0.0253073 0.00190482 -0.000240574
0.0234213 0.00125112 -0.000140713
0.0222274 0.000796799 -6.90912e-05
0.0214934 0.000496644 -2.9118e-05
0.0210526 0.0003034 -1.02796e-05
0.0207939 0.000181688 -2.61962e-06
0.0206453 0.000106724 -2.76161e-08
0.0205619 6.15407e-05 5.66527e-07
0.0205163 3.48494e-05 5.08766e-07
0.020492 1.93748e-05 3.15848e-07
0.0204796 1.05622e-05 1.51124e-07
0.0204736 5.63224e-06 4.5329e-08
0.0204708 2.9252e-06 -1.1555e-08
0.0204698 1.46913e-06 -3.65085e-08
0.0204696 7.0469e-07 -4.33573e-08
0.0204697 3.15355e-07 -4.12058e-08
0.0204699 1.25015e-07 -3.53705e-08
0.0204701 3.74211e-08 -2.86612e-08
0.0204703 1.01624e-09 -2.23982e-08
0.0204705 -1.11581e-08 -1.70856e-08
0.0204706 -1.27699e-08 -1.28165e-08
0.0204707 -1.04576e-08 -9.50046e-09
0.0204708 -7.24036e-09 -6.98221e-09
0.0204708 -4.33935e-09 -5.09945e-09
0.0204709 -2.12855e-09 -3.70733e-09
0.0204709 -6.16237e-10 -2.6863e-09
0.0204709 3.214e-10 -1.94209e-09
0.0204709 8.34077e-10 -1.40261e-09
0.0204709 1.05467e-09 -1.01411e-09
0.0204709 1.08629e-09 -7.37576e-10
0.0204709 1.00225e-09 -5.45878e-10
0.0204709 8.50594e-10 -4.21364e-10
0.0204709 6.57668e-10 -3.5492e-10
0.0204709 4.21312e-10 -3.49355e-10
0.0204709 1.27462e-10 -3.75257e-10
0.0204709 -2.26492e-10 -2.66525e-10
0.0204709 -1.91292e-09 -9.41118e-10
0.020471 -9.12062e-09 -6.39552e-09
0.020471 -1.48336e-08 -1.10545e-08
0.01 2.76667e-09 -1.11019e-08
0.01 -0.00399106 -0.00107498
0.0152611 -0.0118688 -0.00288353
0.0243516 -0.0186894 -0.00430542
0.0365993 -0.0274357 -0.00430039
0.0554524 -0.0181497 -0.00112765
0.0543343 -0.000774687 0.00158425
0.0548833 0.00604349 0.00191516
0.0490339 0.0108837 0.00148026
0.0428383 0.0105693 0.000406695
0.037641 0.00899646 -0.000322755
0.0334874 0.00692767 -0.000488988
0.0305979 0.00483839 -0.000383042
0.0288059 0.00314432 -0.000228183
0.0277445 0.00195816 -0.000112633
0.0271318 0.00118669 -4.72564e-05
0.0267872 0.000703102 -1.62336e-05
0.0265992 0.000407765 -3.54215e-06
0.0265001 0.000231475 7.58423e-07
0.0264501 0.000128477 1.69846e-06
0.0264264 6.95357e-05 1.5133e-06
0.0264162 3.65061e-05 1.08268e-06
0.0264127 1.84093e-05 6.97982e-07
0.0264123 8.74861e-06 4.22443e-07
0.0264132 3.75704e-06 2.44487e-07
0.0264144 1.29156e-06 1.3644e-07
0.0264155 1.56039e-07 7.35883e-08
0.0264165 -3.03732e-07 3.8238e-08
0.0264174 -4.37339e-07 1.89454e-08
0.026418 -4.26251e-07 8.73707e-09
0.0264184 -3.6103e-07 3.53014e-09
0.0264188 -2.84253e-07 1.00473e-09
0.026419 -2.13952e-07 -1.24829e-10
0.0264192 -1.5615e-07 -5.54612e-10
0.0264193 -1.11394e-07 -6.5235e-10
0.0264194 -7.80489e-08 -6.06682e-10
0.0264194 -5.38678e-08 -5.10619e-10
0.0264195 -3.66879e-08 -4.07338e-10
0.0264195 -2.46836e-08 -3.14883e-10
0.0264195 -1.64177e-08 -2.39269e-10
0.0264195 -1.0807e-08 -1.81355e-10
0.0264195 -7.05963e-09 -1.40429e-10
0.0264196 -4.61317e-09 -1.16157e-10
0.0264196 -3.08208e-09 -1.09243e-10
0.0264196 -2.21817e-09 -1.1931e-10
0.0264196 -1.90816e-09 -1.4649e-10
0.0264196 -2.38752e-09 -1.80207e-10
0.0264196 -4.5285e-09 -8.88857e-11
0.0264196 -8.76246e-09 -1.10969e-09
0.0264196 -1.46941e-08 -8.26119e-09
0.0264196 -1.80322e-08 -1.4285e-08
0.0148 -1.38499e-08 -1.47933e-08
0.0148 -0.00590073 -0.00158718
0.0193777 -0.0168352 -0.00423892
0.0252558 -0.0262593 -0.00578648
0.0293845 -0.0396025 -0.00476099
0.0279656 -0.024278 -0.000760953
0.0260293 -1.62177e-07 0.00160404
0.0264584 0.00800311 0.00173677
0.0314282 0.0166606 0.00158388
0.031244 0.0160749 0.000707795
0.0296403 0.0133215 -4.57556e-06
0.0283115 0.0100423 -0.000286606
0.0275571 0.00675593 -0.000274408
0.027302 0.00420089 -0.000172623
0.0272577 0.00251682 -7.96216e-05
0.0272876 0.00147223 -2.483e-05
0.0273395 0.00084152 -5.90413e-07
0.027392 0.000469384 7.02544e-06
0.0274364 0.000254929 7.58346e-06
0.0274707 0.000134238 5.92881e-06
0.0274955 6.7949e-05 4.04878e-06
0.0275129 3.24968e-05 2.56271e-06
0.0275248 1.41343e-05 1.5443e-06
0.0275328 5.02346e-06 8.98565e-07
0.0275381 7.88733e-07 5.08794e-07
0.0275417 -9.61433e-07 2.81465e-07
0.027544 -1.50474e-06 1.52287e-07
0.0275456 -1.5053e-06 8.04479e-08
0.0275467 -1.29589e-06 4.12768e-08
0.0275474 -1.03443e-06 2.03464e-08
0.0275478 -7.89174e-07 9.42075e-09
0.0275482 -5.84254e-07 3.88733e-09
0.0275484 -4.23391e-07 1.20466e-09
0.0275485 -3.0192e-07 -6.04745e-12
0.0275486 -2.12581e-07 -4.80764e-10
0.0275487 -1.48117e-07 -6.04937e-10
0.0275487 -1.02276e-07 -5.75549e-10
0.0275488 -7.00589e-08 -4.89853e-10
0.0275488 -4.76418e-08 -3.93376e-10
0.0275488 -3.21864e-08 -3.05595e-10
0.0275488 -2.16309e-08 -2.33508e-10
0.0275488 -1.45044e-08 -1.78677e-10
0.0275488 -9.77781e-09 -1.40583e-10
0.0275488 -6.75771e-09 -1.18154e-10
0.0275488 -5.03818e-09 -1.13356e-10
0.0275488 -4.47652e-09 -1.42502e-10
0.0275488 -4.98559e-09 -2.29704e-10
0.0275488 -6.35419e-09 -3.12683e-10
0.0275488 -8.59733e-09 -1.64431e-09
0.0275488 -1.16503e-08 -8.74142e-09
0.0275488 -1.33257e-08 -1.45292e-08
0.018 -3.11189e-08 -2.04395e-08
0.018 -0.00660555 -0.00236783
0.01977 -0.0172637 -0.00627815
0.0197772 -0.0219248 -0.00732431
0.0160557 -0.0234295 -0.00589199
-1.5156e-08 -0.0121629 -0.00247802
1.63662e-06 5.75965e-07 7.79332e-09
-6.52508e-07 6.91282e-07 0.000320246
0.00788006 0.00565964 0.000633135
0.0164538 0.0122693 0.000508008
0.0196634 0.0120385 0.000210174
0.0212152 0.00916794 -7.17519e-05
0.022915 0.00597342 -0.00016918
0.024481 0.00351855 -0.000123415
0.0256446 0.00200615 -5.01563e-05
0.0264245 0.00111478 -3.59906e-06
0.0269231 0.000598309 1.45837e-05
0.0272338 0.000307421 1.7037e-05
0.0274239 0.000149352 1.36749e-05
0.0275384 6.67627e-05 9.39568e-06
0.0276067 2.55225e-05 5.91798e-06
0.027647 6.14196e-06 3.52444e-06
0.0276707 -2.10781e-06 2.01666e-06
0.0276845 -4.94629e-06 1.11787e-06
0.0276926 -5.32755e-06 6.02181e-07
0.0276974 -4.72278e-06 3.14839e-07
0.0277001 -3.82912e-06 1.58711e-07
0.0277018 -2.95139e-06 7.59635e-08
0.0277028 -2.20282e-06 3.33404e-08
0.0277033 -1.60823e-06 1.2197e-08
0.0277037 -1.15547e-06 2.29097e-09
0.0277039 -8.20132e-07 -1.90189e-09
0.027704 -5.76511e-07 -3.30487e-09
0.0277041 -4.02028e-07 -3.43058e-09
0.0277042 -2.78427e-07 -3.03875e-09
0.0277042 -1.91638e-07 -2.4944e-09
0.0277042 -1.31147e-07 -1.96037e-09
0.0277042 -8.92619e-08 -1.49921e-09
0.0277042 -6.04366e-08 -1.12613e-09
0.0277043 -4.07228e-08 -8.36042e-10
0.0277043 -2.73367e-08 -6.16829e-10
0.0277043 -1.83357e-08 -4.5581e-10
0.0277043 -1.23837e-08 -3.43095e-10
0.0277043 -8.57857e-09 -2.73888e-10
0.0277043 -6.30409e-09 -2.53861e-10
0.0277043 -5.10594e-09 -3.16138e-10
0.0277043 -4.65559e-09 -4.85533e-10
0.0277043 -4.71226e-09 -6.31515e-10
0.0277043 -5.24108e-09 -1.97391e-09
0.0277043 -6.1781e-09 -8.78528e-09
0.0277043 -6.71362e-09 -1.42892e-08
0.0196 -3.77177e-08 -3.68444e-08
0.0196 -0.00503037 -0.00308673
0.0190465 -0.011431 -0.00752182
0.0165292 -0.0134161 -0.00772977
0.0121683 -0.0115874 -0.00585552
0.00278574 -0.00457195 -0.00317579
1.24976e-06 -1.15468e-06 -0.000614916
5.02172e-07 -5.02172e-07 -8.24825e-10
-6.31892e-07 6.73124e-07 7.1802e-05
0.0056394 0.0041742 0.000159316
0.0122309 0.00854033 0.000127885
0.0151177 0.00684914 -5.46639e-05
0.0187454 0.0035739 -0.00020849
0.0220298 0.00152998 -0.000179986
0.024349 0.000598168 -8.70581e-05
0.0257865 0.000197105 -1.7997e-05
0.0266287 2.67673e-05 1.14487e-05
0.0271104 -3.83097e-05 1.7142e-05
0.0273825 -5.53688e-05 1.40157e-05
0.0275345 -5.24887e-05 9.39792e-06
0.0276189 -4.30685e-05 5.69207e-06
0.0276652 -3.29285e-05 3.23546e-06
0.0276905 -2.41982e-05 1.75537e-06
0.0277042 -1.73651e-05 9.14013e-07
0.0277116 -1.22783e-05 4.55045e-07
0.0277155 -8.59899e-06 2.13165e-07
0.0277176 -5.98396e-06 9.00982e-08
0.0277186 -4.1456e-06 3.0174e-08
0.0277191 -2.86238e-06 2.86988e-09
0.0277194 -1.97093e-06 -8.13088e-09
0.0277195 -1.35376e-06 -1.13503e-08
0.0277195 -9.27621e-07 -1.11265e-08
0.0277195 -6.34047e-07 -9.59504e-09
0.0277195 -4.32233e-07 -7.75522e-09
0.0277195 -2.93796e-07 -6.03478e-09
0.0277195 -1.99052e-07 -4.58405e-09
0.0277195 -1.34377e-07 -3.42634e-09
0.0277195 -9.03566e-08 -2.53275e-09
0.0277195 -6.04975e-08 -1.85802e-09
0.0277195 -4.03303e-08 -1.35671e-09
0.0277195 -2.67857e-08 -9.898e-10
0.0277195 -1.77612e-08 -7.27071e-10
0.0277195 -1.18177e-08 -5.48087e-10
0.0277195 -7.96409e-09 -4.42924e-10
0.0277195 -5.51172e-09 -4.12098e-10
0.0277195 -3.96651e-09 -4.74627e-10
0.0277195 -2.94233e-09 -6.42391e-10
0.0277195 -2.09706e-09 -7.73641e-10
0.0277195 -1.23783e-09 -2.08217e-09
0.0277195 -3.23302e-10 -8.75116e-09
0.0277195 1.51601e-10 -1.41338e-08
0.0196 -1.95951e-08 -5.06578e-08
0.0196 -0.00288155 -0.00337017
0.019092 -0.00596404 -0.00755185
0.0180425 -0.00543966 -0.00737368
0.0149249 -0.00190982 -0.00530589
0.0111314 0.00397851 -0.00329824
0.00684794 0.00353117 -0.00145866
1.25071e-06 -1.05866e-06 -0.000274361
4.26763e-07 -4.26763e-07 -1.98535e-09
-6.06784e-07 6.57001e-07 1.88025e-05
0.00416824 0.00253627 0.000288055
0.00902337 0.00269893 0.000268203
0.015287 -0.000831325 -0.000170327
0.020637 -0.00199541 -0.000317594
0.0240427 -0.00170523 -0.000217954
0.025865 -0.0011524 -8.93491e-05
0.0267829 -0.000727958 -2.06751e-05
0.0272436 -0.000452525 2.31664e-06
0.0274761 -0.000280249 6.29584e-06
0.0275934 -0.000173414 4.97821e-06
0.0276523 -0.000107458 3.06646e-06
0.0276813 -6.68451e-05 1.67141e-06
0.0276953 -4.18325e-05 8.32425e-07
0.0277018 -2.63775e-05 3.7548e-07
0.0277046 -1.6772e-05 1.43771e-07
0.0277056 -1.07556e-05 3.44442e-08
0.0277058 -6.95404e-06 -1.21279e-08
0.0277056 -4.52964e-06 -2.82382e-08
0.0277054 -2.96949e-06 -3.05621e-08
0.0277052 -1.957e-06 -2.73479e-08
0.0277049 -1.29498e-06 -2.24735e-08
0.0277048 -8.59335e-07 -1.76273e-08
0.0277046 -5.71171e-07 -1.34413e-08
0.0277045 -3.7981e-07 -1.00647e-08
0.0277045 -2.52389e-07 -7.44505e-09
0.0277044 -1.67416e-07 -5.4613e-09
0.0277044 -1.1073e-07 -3.98276e-09
0.0277043 -7.29467e-08 -2.89281e-09
0.0277043 -4.78145e-08 -2.09593e-09
0.0277043 -3.11548e-08 -1.51769e-09
0.0277043 -2.01662e-08 -1.10236e-09
0.0277043 -1.29657e-08 -8.10018e-10
0.0277043 -8.28188e-09 -6.14023e-10
0.0277043 -5.24784e-09 -4.98877e-10
0.0277043 -3.2575e-09 -4.6078e-10
0.0277043 -1.86268e-09 -5.18076e-10
0.0277043 -6.81578e-10 -6.83057e-10
0.0277043 7.09847e-10 -7.98931e-10
0.0277043 2.74236e-09 -2.05921e-09
0.0277043 5.48089e-09 -8.70123e-09
0.0277043 6.99464e-09 -1.40906e-08
0.018 -1.19758e-08 -5.00594e-08
0.018 -0.00115336 -0.00331435
0.0186363 -0.00172908 -0.0071548
0.0194336 -0.000188797 -0.00661551
0.0192806 0.00246622 -0.00454988
0.0192255 0.00782169 -0.00282914
0.0195649 0.0129153 -0.00149647
0.0120677 0.00717288 -0.000678933
1.28023e-06 -8.37085e-07 -0.000236731
-4.93315e-07 -9.53918e-07 7.69293e-09
1.27985e-07 -0.000578507 0.000872532
0.00952144 -0.00432496 0.00117416
0.017465 -0.0079129 0.000193897
0.022736 -0.00706006 -0.000296464
0.0255931 -0.00452168 -0.000303487
0.0268566 -0.00249645 -0.000162845
0.0273451 -0.00133851 -6.47394e-05
0.0275181 -0.000730411 -2.18119e-05
0.027572 -0.000407126 -6.6297e-06
0.0275831 -0.000230506 -1.87573e-06
0.0275802 -0.000132146 -5.30439e-07
0.0275739 -7.66562e-05 -1.94599e-07
0.0275677 -4.50051e-05 -1.22682e-07
0.0275626 -2.67501e-05 -1.04773e-07
0.0275587 -1.60974e-05 -9.14354e-08
0.0275558 -9.80445e-06 -7.59271e-08
0.0275538 -6.0401e-06 -6.00871e-08
0.0275523 -3.76005e-06 -4.59047e-08
0.0275513 -2.36224e-06 -3.42424e-08
0.0275505 -1.4955e-06 -2.51485e-08
0.02755 -9.52484e-07 -1.8289e-08
0.0275497 -6.09199e-07 -1.32213e-08
0.0275494 -3.90542e-07 -9.52486e-09
0.0275492 -2.5045e-07 -6.84932e-09
0.0275491 -1.60324e-07 -4.92132e-09
0.027549 -1.02211e-07 -3.53537e-09
0.027549 -6.47275e-08 -2.54035e-09
0.0275489 -4.05909e-08 -1.8266e-09
0.0275489 -2.51102e-08 -1.31531e-09
0.0275489 -1.52448e-08 -9.50333e-10
0.0275489 -9.01458e-09 -6.92307e-10
0.0275489 -5.1227e-09 -5.14547e-10
0.0275489 -2.71245e-09 -4.00475e-10
0.0275488 -1.20612e-09 -3.42003e-10
0.0275488 -1.94807e-10 -3.40083e-10
0.0275488 6.40901e-10 -4.16743e-10
0.0275488 1.60584e-09 -5.90163e-10
0.0275488 3.15784e-09 -6.91605e-10
0.0275488 6.11658e-09 -1.86392e-09
0.0275488 1.08051e-08 -8.54487e-09
0.0275488 1.35324e-08 -1.40443e-08
0.0148 -7.97275e-09 -4.33657e-08
0.0148 -0.000227839 -0.00312187
0.0168833 0.000331948 -0.00643501
0.0196684 0.00208417 -0.00556159
0.0220746 0.004504 -0.00365974
0.024111 0.00753134 -0.00241764
0.0273539 0.0126438 -0.00155073
0.030388 0.0202988 -0.000846372
0.0246389 0.0122068 -0.000124649
0.0255011 1.4961e-14 0.00052085
0.0300544 -0.00731946 0.00173474
0.0348026 -0.0151693 0.00234337
0.0342524 -0.0140308 0.00115933
0.0315426 -0.00994016 1.99403e-05
0.029298 -0.00566731 -0.000376147
0.0279836 -0.00281954 -0.000288467
0.0272819 -0.00135424 -0.000141398
0.0269066 -0.000666786 -5.79384e-05
0.0267008 -0.000341213 -2.20024e-05
0.0265851 -0.0001805 -8.07939e-06
0.0265187 -9.79443e-05 -2.91564e-06
0.0264799 -5.41986e-05 -1.03536e-06
0.0264569 -3.04647e-05 -3.55576e-07
0.026443 -1.73484e-05 -1.10852e-07
0.0264344 -9.98971e-06 -2.38758e-08
0.0264291 -5.80744e-06 5.56334e-09
0.0264258 -3.40306e-06 1.39267e-08
0.0264236 -2.00644e-06 1.46803e-08
0.0264223 -1.18768e-06 1.28927e-08
0.0264213 -7.03859e-07 1.04928e-08
0.0264208 -4.16145e-07 8.19889e-09
0.0264204 -2.44306e-07 6.24677e-09
0.0264201 -1.41491e-07 4.67825e-09
0.0264199 -8.00636e-08 3.46013e-09
0.0264198 -4.35696e-08 2.53513e-09
0.0264197 -2.21325e-08 1.84375e-09
0.0264197 -9.78231e-09 1.33288e-09
0.0264196 -2.8924e-09 9.58467e-10
0.0264196 7.47523e-10 6.85417e-10
0.0264196 2.48596e-09 4.86324e-10
0.0264196 3.14554e-09 3.39836e-10
0.0264196 3.22888e-09 2.28869e-10
0.0264196 3.04688e-09 1.38811e-10
0.0264196 2.80127e-09 5.58919e-11
0.0264196 2.6425e-09 -3.51409e-11
0.0264196 2.71704e-09 -1.62526e-10
0.0264196 3.20792e-09 -3.49636e-10
0.0264196 4.49779e-09 -4.4739e-10
0.0264196 7.82629e-09 -1.49848e-09
0.0264196 1.41695e-08 -8.06292e-09
0.0264196 1.80983e-08 -1.35647e-08
0.01 -1.48519e-08 -3.92037e-08
0.01 -0.000107693 -0.00264898
0.0125187 0.000448002 -0.00507361
0.0160622 0.00162654 -0.0039274
0.0197277 0.00311788 -0.00240692
0.0240352 0.00575266 -0.00175733