# vtk DataFile Version 2.0
Tobias Weinzierl: CPU, Manycore and Cluster Computing
ASCII

DATASET STRUCTURED_POINTS
DIMENSIONS  51 11 6

ORIGIN 0 0 0 

SPACING 0.1 0.1 0.1 

POINT_DATA 3366

VECTORS velocity float
0 0 0
-1.33594e-14 0 0
-9.94513e-09 0 0
-1.29426e-08 0 0
-1.19818e-08 0 0
-8.03785e-09 0 0
-1.06352e-08 0 0
-1.27066e-08 0 0
-1.35206e-08 0 0
-1.32189e-08 0 0
-1.27398e-08 0 0
-1.25035e-08 0 0
-1.24927e-08 0 0
-1.261e-08 0 0
-1.27824e-08 0 0
-1.29617e-08 0 0
-1.3122e-08 0 0
-1.3254e-08 0 0
-1.33574e-08 0 0
-1.34361e-08 0 0
-1.34948e-08 0 0
-1.35382e-08 0 0
-1.35701e-08 0 0
-1.35934e-08 0 0
-1.36105e-08 0 0
-1.3623e-08 0 0
-1.36321e-08 0 0
-1.36388e-08 0 0
-1.36437e-08 0 0
-1.36473e-08 0 0
-1.36499e-08 0 0
-1.36519e-08 0 0
-1.36533e-08 0 0
-1.36543e-08 0 0
-1.36551e-08 0 0
-1.36557e-08 0 0
-1.36561e-08 0 0
-1.36564e-08 0 0
-1.36566e-08 0 0
-1.36568e-08 0 0
-1.36569e-08 0 0
-1.3657e-08 0 0
-1.36571e-08 0 0
-1.36571e-08 0 0
-1.36571e-08 0 0
-1.36572e-08 0 0
-1.36572e-08 0 0
-1.36572e-08 0 0
-1.36572e-08 0 0
-1.36572e-08 0 0
0.00448164 0 0
0 7.72409e-09 0
-4.45637e-15 6.8126e-09 0
-1.91563e-08 1.00952e-08 0
-2.21914e-08 4.46458e-09 0
-1.83436e-08 -2.73129e-10 0
-8.58569e-09 1.32933e-09 0
-1.19826e-08 4.41848e-09 0
-1.48772e-08 2.01976e-09 0
-1.51749e-08 3.43594e-11 0
-1.50698e-08 -6.9692e-10 0
-1.51056e-08 -4.35237e-10 0
-1.58732e-08 -7.29739e-13 0
-1.68375e-08 2.59711e-10 0
-1.77168e-08 3.67125e-10 0
-1.84526e-08 3.84699e-10 0
-1.90367e-08 3.51557e-10 0
-1.94812e-08 2.96055e-10 0
-1.98092e-08 2.36674e-10 0
-2.00468e-08 1.8292e-10 0
-2.0217e-08 1.38313e-10 0
-2.03385e-08 1.03135e-10 0
-2.04253e-08 7.62476e-11 0
-2.04873e-08 5.60892e-11 0
-2.05318e-08 4.11518e-11 0
-2.0564e-08 3.01577e-11 0
-2.05872e-08 2.20947e-11 0
-2.06041e-08 1.61907e-11 0
-2.06165e-08 1.18693e-11 0
-2.06255e-08 8.70556e-12 0
-2.06321e-08 6.38798e-12 0
-2.06369e-08 4.68918e-12 0
-2.06404e-08 3.44317e-12 0
-2.06431e-08 2.52876e-12 0
-2.0645e-08 1.85741e-12 0
-2.06464e-08 1.36436e-12 0
-2.06474e-08 1.00216e-12 0
-2.06482e-08 7.3605e-13 0
-2.06488e-08 5.40508e-13 0
-2.06492e-08 3.96807e-13 0
-2.06495e-08 2.91187e-13 0
-2.06497e-08 2.13534e-13 0
-2.06499e-08 1.56412e-13 0
-2.065e-08 1.14356e-13 0
-2.06501e-08 8.33536e-14 0
-2.06501e-08 6.04745e-14 0
-2.06502e-08 4.36299e-14 0
-2.06502e-08 3.16163e-14 0
-2.06502e-08 2.50422e-14 0
-2.06503e-08 3.12253e-14 0
-2.06503e-08 6.89112e-14 0
0.0102651 -1.47575e-08 0
0 6.17052e-10 0
7.13015e-14 9.00687e-09 0
-1.88835e-08 1.27204e-08 0
-1.70692e-08 5.54568e-09 0
-9.74248e-09 -1.84823e-09 0
-1.0759e-08 -5.36791e-10 0
-1.24409e-08 4.39936e-09 0
-1.56027e-08 -1.97889e-11 0
-6.03844e-09 -1.32184e-09 0
-3.80945e-09 7.0988e-10 0
-4.32838e-09 2.17548e-09 0
-6.1173e-09 2.79903e-09 0
-7.9099e-09 2.48006e-09 0
-9.26647e-09 1.93958e-09 0
-1.02586e-08 1.46684e-09 0
-1.09657e-08 1.08862e-09 0
-1.14566e-08 7.94802e-10 0
-1.17916e-08 5.73204e-10 0
-1.20187e-08 4.10347e-10 0
-1.21729e-08 2.92862e-10 0
-1.22784e-08 2.09049e-10 0
-1.23514e-08 1.49563e-10 0
-1.24025e-08 1.07375e-10 0
-1.24386e-08 7.73907e-11 0
-1.24644e-08 5.59975e-11 0
-1.2483e-08 4.06638e-11 0
-1.24965e-08 2.96213e-11 0
-1.25063e-08 2.16337e-11 0
-1.25135e-08 1.58333e-11 0
-1.25187e-08 1.16072e-11 0
-1.25226e-08 8.51964e-12 0
-1.25255e-08 6.25915e-12 0
-1.25276e-08 4.6014e-12 0
-1.25291e-08 3.38417e-12 0
-1.25302e-08 2.48959e-12 0
-1.25311e-08 1.83169e-12 0
-1.25317e-08 1.34765e-12 0
-1.25322e-08 9.91407e-13 0
-1.25325e-08 7.29156e-13 0
-1.25328e-08 5.36054e-13 0
-1.25329e-08 3.93832e-13 0
-1.25331e-08 2.89045e-13 0
-1.25332e-08 2.11814e-13 0
-1.25332e-08 1.54919e-13 0
-1.25333e-08 1.13179e-13 0
-1.25333e-08 8.30638e-14 0
-1.25334e-08 6.23499e-14 0
-1.25334e-08 5.00984e-14 0
-1.25334e-08 4.6224e-14 0
-1.25334e-08 5.20687e-14 0
0.0116696 -1.23362e-08 0
0 -8.7546e-09 0
1.61975e-13 6.89565e-09 0
-2.06066e-08 8.33686e-09 0
-1.66795e-08 2.56288e-09 0
-7.09198e-09 5.23558e-09 0
-1.02111e-08 4.11392e-09 0
-1.10935e-08 7.83348e-15 0
-1.34321e-08 -1.31951e-08 0
-1.87787e-08 -1.63166e-08 0
-1.13822e-08 -1.69888e-09 0
-8.64706e-09 4.25617e-09 0
-8.29079e-09 5.40607e-09 0
-8.69659e-09 4.45459e-09 0
-9.20562e-09 3.22891e-09 0
-9.68852e-09 2.30353e-09 0
-1.00679e-08 1.62998e-09 0
-1.03375e-08 1.14428e-09 0
-1.05216e-08 8.00238e-10 0
-1.06467e-08 5.60082e-10 0
-1.07325e-08 3.93638e-10 0
-1.07925e-08 2.78339e-10 0
-1.08351e-08 1.98139e-10 0
-1.08658e-08 1.41978e-10 0
-1.08883e-08 1.02343e-10 0
-1.09048e-08 7.415e-11 0
-1.0917e-08 5.39507e-11 0
-1.0926e-08 3.93865e-11 0
-1.09327e-08 2.88297e-11 0
-1.09376e-08 2.11445e-11 0
-1.09413e-08 1.5531e-11 0
-1.0944e-08 1.14199e-11 0
-1.0946e-08 8.40326e-12 0
-1.09475e-08 6.18649e-12 0
-1.09486e-08 4.55583e-12 0
-1.09494e-08 3.35545e-12 0
-1.09501e-08 2.47139e-12 0
-1.09505e-08 1.8201e-12 0
-1.09508e-08 1.34019e-12 0
-1.09511e-08 9.86515e-13 0
-1.09513e-08 7.25829e-13 0
-1.09514e-08 5.33636e-13 0
-1.09515e-08 3.91882e-13 0
-1.09516e-08 2.87261e-13 0
-1.09516e-08 2.09964e-13 0
-1.09516e-08 1.52753e-13 0
-1.09517e-08 1.10346e-13 0
-1.09517e-08 7.92422e-14 0
-1.09517e-08 5.74291e-14 0
-1.09517e-08 4.40104e-14 0
-1.09517e-08 3.71806e-14 0
0.0117777 -7.92138e-09 0
0 -1.58193e-08 0
2.06071e-13 3.25038e-09 0
-2.36089e-08 2.34731e-09 0
-2.05574e-08 -3.30189e-10 0
-1.03179e-08 2.90842e-09 0
-3.49874e-14 2.33551e-09 0
-7.04102e-13 -7.2533e-13 0
6.28244e-13 -7.54151e-13 0
-1.43947e-08 -9.02506e-09 0
-1.86582e-08 -1.07812e-08 0
-1.3162e-08 1.23781e-12 0
-1.20942e-08 4.08226e-09 0
-1.14425e-08 4.22961e-09 0
-1.1018e-08 3.34604e-09 0
-1.08408e-08 2.47832e-09 0
-1.077e-08 1.7637e-09 0
-1.07426e-08 1.23183e-09 0
-1.07358e-08 8.57821e-10 0
-1.07394e-08 6.00668e-10 0
-1.0748e-08 4.24323e-10 0
-1.07584e-08 3.02527e-10 0
-1.07688e-08 2.17484e-10 0
-1.07782e-08 1.57421e-10 0
-1.07862e-08 1.1456e-10 0
-1.07929e-08 8.37095e-11 0
-1.07982e-08 6.13507e-11 0
-1.08024e-08 4.50611e-11 0
-1.08056e-08 3.31469e-11 0
-1.08081e-08 2.4408e-11 0
-1.08099e-08 1.7985e-11 0
-1.08113e-08 1.32577e-11 0
-1.08124e-08 9.77504e-12 0
-1.08132e-08 7.20774e-12 0
-1.08138e-08 5.31454e-12 0
-1.08142e-08 3.91817e-12 0
-1.08145e-08 2.88817e-12 0
-1.08148e-08 2.12843e-12 0
-1.0815e-08 1.56806e-12 0
-1.08151e-08 1.15475e-12 0
-1.08152e-08 8.49899e-13 0
-1.08153e-08 6.24991e-13 0
-1.08153e-08 4.58968e-13 0
-1.08154e-08 3.36263e-13 0
-1.08154e-08 2.45374e-13 0
-1.08154e-08 1.77847e-13 0
-1.08154e-08 1.27531e-13 0
-1.08154e-08 8.99577e-14 0
-1.08154e-08 6.19325e-14 0
-1.08154e-08 4.1226e-14 0
-1.08154e-08 2.5222e-14 0
0.0117834 -3.81142e-09 0
0 -1.35488e-08 0
2.43926e-13 8.56302e-10 0
-2.52934e-08 2.45044e-10 0
-2.37054e-08 -1.55475e-09 0
-1.48354e-08 -1.8922e-09 0
-5.69749e-09 -9.48714e-10 0
-7.02317e-13 6.5885e-13 0
-3.06061e-14 3.06061e-14 0
6.01445e-13 -6.55042e-13 0
-9.23445e-09 -4.79573e-09 0
-1.13331e-08 -3.00128e-09 0
-1.44643e-08 4.04671e-09 0
-1.41517e-08 3.92757e-09 0
-1.29333e-08 2.91385e-09 0
-1.20373e-08 2.11812e-09 0
-1.14941e-08 1.4966e-09 0
-1.11852e-08 1.05327e-09 0
-1.10138e-08 7.48469e-10 0
-1.09196e-08 5.38345e-10 0
-1.08681e-08 3.91195e-10 0
-1.08399e-08 2.86395e-10 0
-1.08247e-08 2.1071e-10 0
-1.08165e-08 1.55496e-10 0
-1.08122e-08 1.14945e-10 0
-1.08099e-08 8.50389e-11 0
-1.08088e-08 6.29301e-11 0
-1.08083e-08 4.65664e-11 0
-1.08081e-08 3.4449e-11 0
-1.0808e-08 2.54759e-11 0
-1.0808e-08 1.88326e-11 0
-1.0808e-08 1.39159e-11 0
-1.0808e-08 1.02787e-11 0
-1.0808e-08 7.58904e-12 0
-1.08081e-08 5.60103e-12 0
-1.08081e-08 4.13222e-12 0
-1.08081e-08 3.04743e-12 0
-1.08081e-08 2.24654e-12 0
-1.08081e-08 1.65544e-12 0
-1.08081e-08 1.21925e-12 0
-1.08081e-08 8.97406e-13 0
-1.08081e-08 6.59891e-13 0
-1.08081e-08 4.84504e-13 0
-1.08081e-08 3.5482e-13 0
-1.08081e-08 2.58678e-13 0
-1.08081e-08 1.87053e-13 0
-1.08081e-08 1.33225e-13 0
-1.08081e-08 9.21736e-14 0
-1.08081e-08 6.01693e-14 0
-1.08081e-08 3.43456e-14 0
-1.08081e-08 1.20937e-14 0
0.0117836 1.24385e-10 0
0 -9.30528e-09 0
2.56063e-13 -1.3904e-09 0
-2.45955e-08 -2.49347e-09 0
-2.37248e-08 -1.81994e-09 0
-1.64305e-08 -1.53166e-09 0
-1.1574e-08 -5.3619e-09 0
-7.56223e-09 -4.54709e-09 0
-7.11706e-13 6.05994e-13 0
-4.54829e-15 4.54829e-15 0
6.04877e-13 -5.98013e-13 0
-4.8556e-09 4.79142e-09 0
-1.82302e-08 7.23005e-09 0
-1.83114e-08 3.44099e-09 0
-1.48428e-08 1.65574e-09 0
-1.27891e-08 1.14779e-09 0
-1.18377e-08 8.8117e-10 0
-1.1385e-08 6.90428e-10 0
-1.11539e-08 5.40526e-10 0
-1.10276e-08 4.20034e-10 0
-1.09544e-08 3.23616e-10 0
-1.09096e-08 2.47355e-10 0
-1.08809e-08 1.87773e-10 0
-1.08618e-08 1.41731e-10 0
-1.08487e-08 1.06481e-10 0
-1.08396e-08 7.96963e-11 0
-1.08331e-08 5.94684e-11 0
-1.08284e-08 4.42664e-11 0
-1.08249e-08 3.28858e-11 0
-1.08225e-08 2.43922e-11 0
-1.08206e-08 1.80688e-11 0
-1.08193e-08 1.33704e-11 0
-1.08183e-08 9.88496e-12 0
-1.08175e-08 7.30262e-12 0
-1.0817e-08 5.3914e-12 0
-1.08166e-08 3.97812e-12 0
-1.08163e-08 2.9338e-12 0
-1.08161e-08 2.16257e-12 0
-1.08159e-08 1.59329e-12 0
-1.08158e-08 1.17322e-12 0
-1.08157e-08 8.63295e-13 0
-1.08156e-08 6.34612e-13 0
-1.08156e-08 4.65768e-13 0
-1.08156e-08 3.40912e-13 0
-1.08155e-08 2.48273e-13 0
-1.08155e-08 1.79057e-13 0
-1.08155e-08 1.26601e-13 0
-1.08155e-08 8.57708e-14 0
-1.08155e-08 5.2588e-14 0
-1.08155e-08 2.39449e-14 0
-1.08155e-08 -2.34737e-15 0
0.0117834 4.04504e-09 0
0 -6.60551e-09 0
2.03672e-13 -3.29367e-09 0
-2.27262e-08 -4.7993e-09 0
-2.23621e-08 -2.29634e-09 0
-1.64872e-08 -1.98726e-09 0
-1.29495e-08 -2.946e-09 0
-1.35585e-08 -8.76329e-09 0
-9.89941e-09 -7.01385e-09 0
-7.20781e-13 4.91207e-13 0
6.21264e-13 3.93923e-13 0
8.82991e-14 1.40559e-08 0
-1.98546e-08 1.69188e-08 0
-2.1008e-08 1.84393e-09 0
-1.5582e-08 -1.46672e-09 0
-1.27534e-08 -4.16489e-10 0
-1.17689e-08 2.05329e-10 0
-1.1421e-08 3.67442e-10 0
-1.12702e-08 3.68045e-10 0
-1.11858e-08 3.2e-10 0
-1.11288e-08 2.61562e-10 0
-1.10866e-08 2.0665e-10 0
-1.10543e-08 1.59897e-10 0
-1.10294e-08 1.22047e-10 0
-1.10104e-08 9.22964e-11 0
-1.09958e-08 6.93428e-11 0
-1.09847e-08 5.1852e-11 0
-1.09764e-08 3.86381e-11 0
-1.09701e-08 2.87162e-11 0
-1.09654e-08 2.12993e-11 0
-1.09619e-08 1.57735e-11 0
-1.09593e-08 1.16668e-11 0
-1.09573e-08 8.62075e-12 0
-1.09559e-08 6.36476e-12 0
-1.09548e-08 4.69593e-12 0
-1.0954e-08 3.46261e-12 0
-1.09534e-08 2.55185e-12 0
-1.0953e-08 1.87973e-12 0
-1.09527e-08 1.38394e-12 0
-1.09524e-08 1.01837e-12 0
-1.09523e-08 7.48847e-13 0
-1.09521e-08 5.50111e-13 0
-1.0952e-08 4.0347e-13 0
-1.0952e-08 2.95075e-13 0
-1.09519e-08 2.1463e-13 0
-1.09519e-08 1.54394e-13 0
-1.09518e-08 1.08401e-13 0
-1.09518e-08 7.18204e-14 0
-1.09518e-08 4.05477e-14 0
-1.09518e-08 1.11299e-14 0
-1.09518e-08 -1.81606e-14 0
0.0117777 8.10447e-09 0
0 -6.43041e-09 0
1.25479e-13 -4.38237e-09 0
-2.03383e-08 -6.18895e-09 0
-2.06815e-08 -2.33427e-09 0
-1.68306e-08 -1.03075e-09 0
-1.4997e-08 -2.29193e-09 0
-1.44223e-08 -4.6848e-09 0
-1.96218e-08 -1.20903e-08 0
-1.8697e-08 -9.19438e-09 0
-1.80105e-08 1.66224e-18 0
-1.49701e-08 2.04201e-08 0
-7.47569e-09 2.39491e-08 0
-8.72308e-09 1.79229e-10 0
-1.11022e-08 -4.90879e-09 0
-1.22223e-08 -1.82468e-09 0
-1.26612e-08 -1.59331e-10 0
-1.28096e-08 2.76703e-10 0
-1.28333e-08 3.26442e-10 0
-1.28064e-08 2.8258e-10 0
-1.2763e-08 2.24624e-10 0
-1.27184e-08 1.72693e-10 0
-1.26785e-08 1.30672e-10 0
-1.26453e-08 9.80128e-11 0
-1.26187e-08 7.31221e-11 0
-1.25979e-08 5.4359e-11 0
-1.25819e-08 4.03108e-11 0
-1.25697e-08 2.98397e-11 0
-1.25605e-08 2.2059e-11 0
-1.25536e-08 1.62903e-11 0
-1.25484e-08 1.20204e-11 0
-1.25445e-08 8.86372e-12 0
-1.25416e-08 6.53234e-12 0
-1.25395e-08 4.81182e-12 0
-1.25379e-08 3.54293e-12 0
-1.25368e-08 2.60762e-12 0
-1.25359e-08 1.91851e-12 0
-1.25353e-08 1.41099e-12 0
-1.25348e-08 1.03732e-12 0
-1.25344e-08 7.62252e-13 0
-1.25342e-08 5.59781e-13 0
-1.2534e-08 4.10709e-13 0
-1.25339e-08 3.00865e-13 0
-1.25337e-08 2.19765e-13 0
-1.25337e-08 1.59613e-13 0
-1.25336e-08 1.14535e-13 0
-1.25336e-08 7.99268e-14 0
-1.25336e-08 5.17951e-14 0
-1.25335e-08 2.59978e-14 0
-1.25335e-08 -2.5767e-15 0
-1.25335e-08 -3.76796e-14 0
0.0116696 1.2408e-08 0
0 -7.75269e-09 0
6.09867e-14 -3.52899e-09 0
-1.94622e-08 -4.9018e-09 0
-2.25074e-08 -1.8662e-09 0
-2.1706e-08 -6.0425e-10 0
-2.10186e-08 1.21622e-10 0
-2.05713e-08 -3.14705e-11 0
-2.02413e-08 -2.49788e-10 0
-2.79045e-08 -1.8295e-09 0
-3.01713e-08 -8.41805e-09 0
-3.45163e-08 -7.71177e-09 0
-1.94139e-08 1.40967e-09 0
-1.78251e-08 5.07799e-09 0
-2.07663e-08 4.11243e-09 0
-2.17555e-08 2.43547e-09 0
-2.17384e-08 1.31129e-09 0
-2.15253e-08 7.1847e-10 0
-2.1321e-08 4.22366e-10 0
-2.11568e-08 2.66985e-10 0
-2.10303e-08 1.78017e-10 0
-2.09341e-08 1.22803e-10 0
-2.08617e-08 8.64948e-11 0
-2.08073e-08 6.17163e-11 0
-2.07667e-08 4.4409e-11 0
-2.07365e-08 3.21388e-11 0
-2.0714e-08 2.33527e-11 0
-2.06973e-08 1.70174e-11 0
-2.0685e-08 1.24264e-11 0
-2.06759e-08 9.08749e-12 0
-2.06692e-08 6.65266e-12 0
-2.06642e-08 4.87371e-12 0
-2.06605e-08 3.57216e-12 0
-2.06578e-08 2.61898e-12 0
-2.06559e-08 1.92046e-12 0
-2.06544e-08 1.40832e-12 0
-2.06533e-08 1.03273e-12 0
-2.06525e-08 7.57226e-13 0
-2.06519e-08 5.55119e-13 0
-2.06515e-08 4.06837e-13 0
-2.06512e-08 2.98022e-13 0
-2.0651e-08 2.18135e-13 0
-2.06508e-08 1.59428e-13 0
-2.06507e-08 1.16189e-13 0
-2.06506e-08 8.41791e-14 0
-2.06505e-08 6.01966e-14 0
-2.06505e-08 4.17044e-14 0
-2.06504e-08 2.63527e-14 0
-2.06504e-08 1.09086e-14 0
-2.06504e-08 -1.34908e-14 0
-2.06504e-08 -6.49754e-14 0
0.0102652 1.46287e-08 0
0 0 0
2.05484e-14 0 0
-9.87338e-09 0 0
-1.24705e-08 0 0
-1.31609e-08 0 0
-1.30945e-08 0 0
-1.21453e-08 0 0
-1.05188e-08 0 0
-9.20762e-09 0 0
-1.21608e-08 0 0
-1.95461e-08 0 0
-2.14759e-08 0 0
-1.96392e-08 0 0
-1.73646e-08 0 0
-1.57942e-08 0 0
-1.49097e-08 0 0
-1.44343e-08 0 0
-1.41674e-08 0 0
-1.40062e-08 0 0
-1.39022e-08 0 0
-1.3832e-08 0 0
-1.37831e-08 0 0
-1.37485e-08 0 0
-1.37236e-08 0 0
-1.37057e-08 0 0
-1.36926e-08 0 0
-1.36831e-08 0 0
-1.36762e-08 0 0
-1.36711e-08 0 0
-1.36674e-08 0 0
-1.36647e-08 0 0
-1.36627e-08 0 0
-1.36613e-08 0 0
-1.36602e-08 0 0
-1.36594e-08 0 0
-1.36588e-08 0 0
-1.36584e-08 0 0
-1.36581e-08 0 0
-1.36579e-08 0 0
-1.36577e-08 0 0
-1.36576e-08 0 0
-1.36575e-08 0 0
-1.36574e-08 0 0
-1.36574e-08 0 0
-1.36573e-08 0 0
-1.36573e-08 0 0
-1.36573e-08 0 0
-1.36573e-08 0 0
-1.36573e-08 0 0
-1.36573e-08 0 0
0.00448164 0 0
0 0 6.40951e-09
2.45592e-14 0 3.13253e-09
-2.05309e-08 0 2.84736e-09
-2.41837e-08 0 -2.4279e-09
-1.90644e-08 0 -4.63158e-09
-4.50392e-09 0 -2.67592e-09
-7.66771e-09 0 2.50232e-10
-1.05324e-08 0 8.65593e-10
-1.21828e-08 0 4.77928e-10
-1.27936e-08 0 -8.3862e-11
-1.36715e-08 0 -2.80168e-10
-1.49264e-08 0 -2.46318e-10
-1.62002e-08 0 -1.53142e-10
-1.72954e-08 0 -7.74362e-11
-1.81768e-08 0 -3.30379e-11
-1.88568e-08 0 -1.19834e-11
-1.93645e-08 0 -3.76549e-12
-1.97343e-08 0 -1.26377e-12
-1.99995e-08 0 -8.21632e-13
-2.0188e-08 0 -9.01928e-13
-2.03216e-08 0 -9.88814e-13
-2.04162e-08 0 -9.74365e-13
-2.04835e-08 0 -8.79039e-13
-2.05316e-08 0 -7.45003e-13
-2.0566e-08 0 -6.04503e-13
-2.05908e-08 0 -4.75723e-13
-2.06088e-08 0 -3.66324e-13
-2.06218e-08 0 -2.7771e-13
-2.06314e-08 0 -2.08162e-13
-2.06383e-08 0 -1.54749e-13
-2.06434e-08 0 -1.14347e-13
-2.06472e-08 0 -8.4118e-14
-2.06499e-08 0 -6.16775e-14
-2.06519e-08 0 -4.51136e-14
-2.06534e-08 0 -3.29376e-14
-2.06545e-08 0 -2.40158e-14
-2.06553e-08 0 -1.74922e-14
-2.06559e-08 0 -1.27292e-14
-2.06563e-08 0 -9.25548e-15
-2.06566e-08 0 -6.72295e-15
-2.06569e-08 0 -4.87577e-15
-2.06571e-08 0 -3.52698e-15
-2.06572e-08 0 -2.5422e-15
-2.06573e-08 0 -1.83122e-15
-2.06573e-08 0 -1.3531e-15
-2.06574e-08 0 -1.10969e-15
-2.06574e-08 0 -9.21805e-16
-2.06575e-08 0 7.13201e-16
-2.06575e-08 0 1.1801e-14
-2.06575e-08 0 5.23747e-14
0.0102649 0 -1.25572e-08
0.0036 8.924e-09 5.11098e-09
0.00359998 -0.00404869 -0.00193841
0.0121473 -0.00837605 -0.00363728
0.0220257 -0.00893536 -0.00290215
0.0326281 -0.00935463 -0.0019925
0.0456188 -0.00550817 -0.000971824
0.0467088 -0.000309306 -0.000206167
0.0461527 0.002387 -1.33607e-05
0.0408231 0.00407372 -5.16239e-05
0.0356985 0.00399785 -0.000127657
0.0314317 0.0032613 -0.000111303
0.0283326 0.00236183 -7.17991e-05
0.0263062 0.00157281 -4.00059e-05
0.0250627 0.000986646 -2.02057e-05
0.0243327 0.000590953 -9.49914e-06
0.0239216 0.000339433 -4.26441e-06
0.0237004 0.000186717 -1.88723e-06
0.0235879 9.76313e-05 -8.61573e-07
0.0235353 4.76303e-05 -4.29974e-07
0.0235142 2.07078e-05 -2.45465e-07
0.0235088 6.93272e-06 -1.60099e-07
0.0235105 3.83869e-07 -1.14373e-07
0.0235148 -2.35025e-06 -8.54591e-08
0.0235198 -3.17307e-06 -6.48273e-08
0.0235243 -3.1115e-06 -4.92094e-08
0.0235281 -2.69787e-06 -3.71713e-08
0.0235312 -2.19342e-06 -2.79019e-08
0.0235335 -1.71553e-06 -2.08193e-08
0.0235353 -1.30832e-06 -1.5456e-08
0.0235367 -9.80649e-07 -1.14275e-08
0.0235376 -7.26078e-07 -8.42197e-09
0.0235384 -5.32813e-07 -6.1917e-09
0.0235389 -3.88411e-07 -4.54357e-09
0.0235393 -2.81736e-07 -3.32949e-09
0.0235396 -2.0358e-07 -2.43734e-09
0.0235398 -1.4667e-07 -1.78302e-09
0.0235399 -1.05424e-07 -1.30396e-09
0.02354 -7.56365e-08 -9.53931e-10
0.0235401 -5.41842e-08 -6.99043e-10
0.0235401 -3.87693e-08 -5.1482e-10
0.0235402 -2.77133e-08 -3.8408e-10
0.0235402 -1.97974e-08 -2.95571e-10
0.0235402 -1.41417e-08 -2.43178e-10
0.0235402 -1.0117e-08 -2.25349e-10
0.0235402 -7.28387e-09 -2.43415e-10
0.0235402 -5.35523e-09 -2.92067e-10
0.0235402 -4.18123e-09 -3.3125e-10
0.0235403 -4.02485e-09 -5.11038e-10
0.0235403 -8.03877e-09 -3.68697e-09
0.0235403 -2.40384e-08 -1.78283e-08
0.0235403 -3.62763e-08 -2.89647e-08
0.01 9.92332e-09 2.16754e-09
0.01 -0.00680825 -0.00336895
0.0169021 -0.0150639 -0.00614694
0.0256638 -0.017722 -0.0044988
0.0357412 -0.021715 -0.00261477
0.0535966 -0.0130292 -0.00078413
0.0530217 -7.02478e-05 0.000289673
0.0535748 0.00611912 0.000326974
0.0453931 0.0105959 7.85729e-05
0.0383531 0.00949832 -0.000179383
0.033522 0.00743789 -0.000183003
0.0303798 0.00516858 -0.000111537
0.0285812 0.00329352 -5.86173e-05
0.0276143 0.00198552 -2.77015e-05
0.0271159 0.0011469 -1.17502e-05
0.0268734 0.000635086 -4.39898e-06
0.0267659 0.000334985 -1.35009e-06
0.0267263 0.000165666 -2.33076e-07
0.0267188 7.39512e-05 9.97659e-08
0.0267249 2.66276e-05 1.51251e-07
0.0267354 3.80204e-06 1.21322e-07
0.0267464 -6.02304e-06 8.02819e-08
0.0267561 -9.2786e-06 4.78831e-08
0.0267641 -9.44492e-06 2.64439e-08
0.0267703 -8.33525e-06 1.35313e-08
0.0267751 -6.84788e-06 6.25179e-09
0.0267787 -5.39414e-06 2.38485e-09
0.0267814 -4.13586e-06 4.67521e-10
0.0267833 -3.11364e-06 -3.89407e-10
0.0267848 -2.31417e-06 -6.98435e-10
0.0267858 -1.70413e-06 -7.42718e-10
0.0267866 -1.24639e-06 -6.72458e-10
0.0267871 -9.06991e-07 -5.63613e-10
0.0267875 -6.57484e-07 -4.52058e-10
0.0267878 -4.75216e-07 -3.52819e-10
0.026788 -3.42695e-07 -2.70591e-10
0.0267882 -2.46688e-07 -2.05331e-10
0.0267883 -1.77326e-07 -1.55171e-10
0.0267883 -1.27322e-07 -1.1788e-10
0.0267884 -9.13385e-08 -9.1637e-11
0.0267884 -6.54853e-08 -7.54843e-11
0.0267885 -4.69447e-08 -6.97017e-11
0.0267885 -3.36895e-08 -7.61238e-11
0.0267885 -2.42825e-08 -9.81175e-11
0.0267885 -1.77518e-08 -1.38972e-10
0.0267885 -1.35731e-08 -1.94152e-10
0.0267885 -1.18661e-08 -2.32538e-10
0.0267885 -1.35376e-08 -4.40348e-10
0.0267885 -1.88115e-08 -4.08705e-09
0.0267886 -2.74094e-08 -1.97189e-08
0.0267886 -3.25746e-08 -3.19032e-08
0.0148 -1.09557e-08 6.88402e-09
0.0148 -0.00792324 -0.00444511
0.0193524 -0.0181182 -0.00824746
0.0245922 -0.0230245 -0.00598164
0.0271759 -0.0343446 -0.00315596
0.0273651 -0.0215154 -0.000779566
0.026594 -1.55893e-07 0.000378215
0.0273175 0.0101698 0.000360911
0.032726 0.0194156 0.00022318
0.0306835 0.0159916 -1.9106e-06
0.0283968 0.0113249 -9.74306e-05
0.0270817 0.00735668 -8.57641e-05
0.0265591 0.00436754 -5.0276e-05
0.0264621 0.00246643 -2.29647e-05
0.0265305 0.00133855 -7.856e-06
0.0266431 0.00069224 -1.34241e-06
0.0267496 0.000334853 8.09514e-07
0.0268344 0.000145082 1.17381e-06
0.0268968 4.92176e-05 9.66066e-07
0.0269408 4.11717e-06 6.6432e-07
0.0269713 -1.46041e-05 4.16991e-07
0.0269922 -2.02925e-05 2.47332e-07
0.0270066 -2.00193e-05 1.40864e-07
0.0270164 -1.73906e-05 7.75785e-08
0.0270232 -1.41519e-05 4.13565e-08
0.0270279 -1.10784e-05 2.12372e-08
0.0270312 -8.45847e-06 1.03651e-08
0.0270335 -6.34966e-06 4.6603e-09
0.0270351 -4.71024e-06 1.77522e-09
0.0270363 -3.46431e-06 3.92221e-10
0.0270371 -2.53199e-06 -2.12791e-10
0.0270377 -1.84193e-06 -4.2976e-10
0.0270381 -1.33521e-06 -4.64071e-10
0.0270384 -9.65283e-07 -4.20924e-10
0.0270386 -6.96388e-07 -3.52123e-10
0.0270387 -5.01575e-07 -2.81633e-10
0.0270388 -3.60791e-07 -2.19344e-10
0.0270389 -2.59252e-07 -1.68374e-10
0.027039 -1.86132e-07 -1.28901e-10
0.027039 -1.3355e-07 -1.00172e-10
0.0270391 -9.57851e-08 -8.16097e-11
0.0270391 -6.87095e-08 -7.35095e-11
0.0270391 -4.93604e-08 -7.75713e-11
0.0270391 -3.56436e-08 -9.72989e-11
0.0270391 -2.61327e-08 -1.37648e-10
0.0270391 -1.99208e-08 -1.99016e-10
0.0270391 -1.64106e-08 -2.58952e-10
0.0270391 -1.52048e-08 -4.99893e-10
0.0270391 -1.64034e-08 -4.04591e-09
0.0270391 -1.97897e-08 -1.8902e-08
0.0270391 -2.19152e-08 -3.04285e-08
0.018 -2.90153e-08 2.30321e-09
0.018 -0.00735286 -0.00533584
0.019822 -0.0166596 -0.0100503
0.0205556 -0.0186702 -0.00710583
0.0162679 -0.0202549 -0.00360652
-6.40536e-09 -0.0108916 -0.00121516
1.81212e-06 7.701e-07 2.80286e-09
-8.12751e-07 8.82255e-07 4.84262e-05
0.01016 0.00724918 0.000121634
0.0193955 0.0138764 0.000111731
0.0212581 0.0110936 2.4438e-05
0.0224015 0.00704662 -3.78803e-05
0.0237368 0.0039374 -3.62547e-05
0.0248455 0.00202638 -1.58703e-05
0.0256465 0.000971059 -2.90205e-06
0.0261825 0.000417772 2.02834e-06
0.0265234 0.00014404 2.91205e-06
0.0267334 1.83553e-05 2.38812e-06
0.0268603 -3.26827e-05 1.62547e-06
0.0269362 -4.80711e-05 1.0043e-06
0.0269815 -4.77043e-05 5.83589e-07
0.0270087 -4.13306e-05 3.23999e-07
0.0270251 -3.34833e-05 1.72742e-07
0.027035 -2.60947e-05 8.81398e-08
0.0270412 -1.98462e-05 4.24156e-08
0.0270451 -1.48511e-05 1.85423e-08
0.0270475 -1.09893e-05 6.59067e-09
0.0270491 -8.06729e-06 9.63238e-10
0.0270502 -5.88818e-06 -1.41448e-09
0.0270509 -4.27943e-06 -2.19183e-09
0.0270513 -3.10033e-06 -2.23177e-09
0.0270517 -2.24067e-06 -1.97199e-09
0.0270519 -1.61636e-06 -1.62474e-09
0.027052 -1.1643e-06 -1.28563e-09
0.0270522 -8.37699e-07 -9.9179e-10
0.0270522 -6.02148e-07 -7.52472e-10
0.0270523 -4.32496e-07 -5.64699e-10
0.0270523 -3.10441e-07 -4.21106e-10
0.0270523 -2.2271e-07 -3.1366e-10
0.0270524 -1.59702e-07 -2.35376e-10
0.0270524 -1.14489e-07 -1.81105e-10
0.0270524 -8.20815e-08 -1.48032e-10
0.0270524 -5.88995e-08 -1.3621e-10
0.0270524 -4.23818e-08 -1.49266e-10
0.0270524 -3.06988e-08 -1.94438e-10
0.0270524 -2.25411e-08 -2.74668e-10
0.0270524 -1.69881e-08 -3.55428e-10
0.0270524 -1.34045e-08 -5.79631e-10
0.0270524 -1.15369e-08 -4.00402e-09
0.0270524 -1.09678e-08 -1.84566e-08
0.0270524 -1.09015e-08 -2.96768e-08
0.0196 -3.18322e-08 -1.22399e-08
0.0196 -0.00493779 -0.00587255
0.0197275 -0.0105569 -0.0110331
0.0184612 -0.0109347 -0.00758304
0.0139877 -0.00877273 -0.00367209
0.0038497 -0.00345716 -0.00154257
1.41907e-06 -1.31795e-06 -0.000292976
5.05202e-07 -5.05202e-07 -8.37915e-10
-7.82982e-07 8.42521e-07 6.94057e-06
0.00724796 0.00488226 2.95912e-05
0.0138731 0.00832776 1.7814e-05
0.0174772 0.00489869 -3.28007e-05
0.0210157 0.00194112 -4.37805e-05
0.0234987 0.000566096 -2.02204e-05
0.0250338 5.06038e-06 -3.85755e-06
0.0259285 -0.000184008 2.27312e-06
0.0264339 -0.000216325 3.24446e-06
0.0267147 -0.000192225 2.54529e-06
0.0268692 -0.000153999 1.6436e-06
0.0269537 -0.000117443 9.58629e-07
0.0269996 -8.72635e-05 5.22231e-07
0.0270245 -6.3907e-05 2.68259e-07
0.0270379 -4.64163e-05 1.28851e-07
0.0270451 -3.35516e-05 5.5857e-08
0.0270489 -2.41847e-05 1.94699e-08
0.027051 -1.74042e-05 2.49178e-09
0.027052 -1.25124e-05 -4.57462e-09
0.0270525 -8.99016e-06 -6.80733e-09
0.0270528 -6.45686e-06 -6.84239e-09
0.0270529 -4.63609e-06 -6.00284e-09
0.027053 -3.328e-06 -4.92226e-09
0.027053 -2.38851e-06 -3.88136e-09
0.027053 -1.71389e-06 -2.98607e-09
0.027053 -1.22956e-06 -2.26006e-09
0.027053 -8.81912e-07 -1.69158e-09
0.027053 -6.32417e-07 -1.25637e-09
0.027053 -4.53398e-07 -9.28371e-10
0.0270529 -3.24974e-07 -6.84151e-10
0.0270529 -2.32865e-07 -5.04456e-10
0.0270529 -1.66819e-07 -3.74466e-10
0.0270529 -1.19473e-07 -2.83649e-10
0.0270529 -8.55398e-08 -2.25655e-10
0.0270529 -6.12218e-08 -1.98453e-10
0.0270529 -4.37823e-08 -2.04472e-10
0.0270529 -3.12358e-08 -2.49197e-10
0.0270529 -2.21166e-08 -3.31371e-10
0.0270529 -1.53122e-08 -4.11175e-10
0.0270529 -9.97284e-09 -6.22095e-10
0.0270529 -5.57614e-09 -4.00369e-09
0.0270529 -1.76315e-09 -1.83388e-08
0.0270529 4.78505e-11 -2.94729e-08
0.0196 -1.90493e-08 -2.56178e-08
0.0196 -0.00221908 -0.00593939
0.019996 -0.00444403 -0.0110058
0.0198308 -0.0037569 -0.00749878
0.017031 -0.000598749 -0.00356189
0.0128634 0.00518343 -0.00170486
0.00787597 0.00425024 -0.000728284
1.42429e-06 -1.21162e-06 -0.000152943
4.28639e-07 -4.28639e-07 -1.11197e-09
-7.53208e-07 8.12756e-07 1.69204e-06
0.00488244 0.000866572 4.59472e-05
0.01232 -8.05218e-05 -5.57417e-06
0.0191823 -0.00206537 -9.15246e-05
0.023151 -0.00198074 -5.81449e-05
0.0251367 -0.0014544 -2.04749e-05
0.0261138 -0.000981459 -4.16171e-06
0.0265977 -0.000642501 4.75365e-07
0.0268378 -0.000417424 1.13536e-06
0.026956 -0.000272017 8.42325e-07
0.0270133 -0.000178724 4.83968e-07
0.0270402 -0.000118678 2.39283e-07
0.027052 -7.97015e-05 1.005e-07
0.0270566 -5.41174e-05 3.005e-08
0.0270578 -3.71173e-05 -2.08806e-09
0.0270576 -2.56829e-05 -1.44962e-08
0.0270568 -1.79042e-05 -1.74856e-08
0.027056 -1.25587e-05 -1.64091e-08
0.0270552 -8.85302e-06 -1.38935e-08
0.0270545 -6.26543e-06 -1.11445e-08
0.027054 -4.44778e-06 -8.65767e-09
0.0270536 -3.1649e-06 -6.59041e-09
0.0270533 -2.25606e-06 -4.9495e-09
0.027053 -1.61032e-06 -3.68297e-09
0.0270529 -1.15051e-06 -2.72293e-09
0.0270527 -8.2255e-07 -2.00405e-09
0.0270527 -5.88336e-07 -1.47039e-09
0.0270526 -4.20926e-07 -1.07681e-09
0.0270525 -3.0119e-07 -7.88286e-10
0.0270525 -2.15513e-07 -5.78349e-10
0.0270525 -1.54186e-07 -4.27679e-10
0.0270525 -1.10272e-07 -3.22914e-10
0.0270524 -7.88044e-08 -2.55945e-10
0.0270524 -5.62159e-08 -2.23617e-10
0.0270524 -3.9926e-08 -2.27571e-10
0.0270524 -2.80389e-08 -2.72804e-10
0.0270524 -1.91139e-08 -3.57554e-10
0.0270524 -1.19785e-08 -4.40312e-10
0.0270524 -5.60195e-09 -6.51395e-10
0.0270524 8.42659e-10 -4.04177e-09
0.0270524 7.57848e-09 -1.84319e-08
0.0270524 1.09911e-08 -2.96112e-08
0.018 -1.21787e-08 -2.9558e-08
0.018 -2.94762e-05 -0.00563693
0.0196744 0.000199203 -0.0102765
0.021306 0.00102174 -0.00688984
0.0211094 0.00310641 -0.00330255
0.020682 0.00809585 -0.00160379
0.0211551 0.0138573 -0.000821553
0.0132633 0.00807476 -0.000363109
1.45791e-06 -9.65331e-07 -9.30527e-05
-6.30968e-07 -1.05521e-06 1.16528e-08
1.06495e-07 -0.00400152 0.000232511
0.011774 -0.00939458 0.000185955
0.0206741 -0.00885914 -0.000112234
0.0247655 -0.00536626 -9.53485e-05
0.0262779 -0.00294773 -3.95723e-05
0.0268217 -0.00164154 -1.28159e-05
0.0270174 -0.00093937 -3.68447e-06
0.0270822 -0.000550425 -9.74717e-07
0.0270968 -0.000329637 -2.49858e-07
0.0270932 -0.000201679 -8.07917e-08
0.0270841 -0.000126016 -4.87265e-08
0.0270744 -8.03527e-05 -4.26187e-08
0.027066 -5.22198e-05 -3.80411e-08
0.0270592 -3.45283e-05 -3.20598e-08
0.027054 -2.3181e-05 -2.56759e-08
0.02705 -1.57675e-05 -1.985e-08
0.027047 -1.08428e-05 -1.49975e-08
0.0270449 -7.52325e-06 -1.11666e-08
0.0270433 -5.25766e-06 -8.23807e-09
0.0270421 -3.69529e-06 -6.0426e-09
0.0270413 -2.60873e-06 -4.41635e-09
0.0270407 -1.84795e-06 -3.2206e-09
0.0270403 -1.31242e-06 -2.34542e-09
0.0270399 -9.33889e-07 -1.70669e-09
0.0270397 -6.65477e-07 -1.24142e-09
0.0270395 -4.74691e-07 -9.03011e-10
0.0270394 -3.38836e-07 -6.57311e-10
0.0270393 -2.41966e-07 -4.79508e-10
0.0270393 -1.72823e-07 -3.51827e-10
0.0270392 -1.23429e-07 -2.61915e-10
0.0270392 -8.81089e-08 -2.01827e-10
0.0270392 -6.28108e-08 -1.67555e-10
0.0270392 -4.46261e-08 -1.59008e-10
0.0270392 -3.14425e-08 -1.80176e-10
0.0270391 -2.16889e-08 -2.3823e-10
0.0270391 -1.41308e-08 -3.34464e-10
0.0270391 -7.67371e-09 -4.31884e-10
0.0270391 -1.12839e-09 -6.66957e-10
0.0270391 6.88302e-09 -4.13439e-09
0.0270391 1.6711e-08 -1.88369e-08
0.0270391 2.19852e-08 -3.02667e-08
0.0148 -1.01834e-08 -2.91879e-08
0.0148 0.00115195 -0.00506778
0.0183804 0.00248491 -0.00899769
0.0219617 0.00300509 -0.00585154
0.0241048 0.00452473 -0.00286937
0.025777 0.00739635 -0.00151768
0.0288074 0.0128107 -0.000888517
0.032741 0.0216218 -0.000439773
0.0276097 0.0133549 5.2417e-05
0.0294562 1.53277e-14 0.000481032
0.0334909 -0.0109647 0.000696545
0.0336938 -0.0207978 0.000385036
0.031014 -0.0150212 -7.78991e-05
0.0291655 -0.00755095 -0.000113486
0.0281795 -0.00349366 -5.45444e-05
0.0276378 -0.00171404 -1.9874e-05
0.0273219 -0.000900351 -6.54172e-06
0.0271304 -0.000495899 -2.0255e-06
0.0270113 -0.000282702 -5.69742e-07
0.026936 -0.000165848 -1.18068e-07
0.0268875 -9.98573e-05 1.2432e-08
0.0268557 -6.16065e-05 4.27083e-08
0.0268347 -3.88837e-05 4.32838e-08
0.0268205 -2.50613e-05 3.63205e-08
0.0268109 -1.64586e-05 2.85438e-08
0.0268042 -1.09875e-05 2.17929e-08
0.0267996 -7.43819e-06 1.63902e-08
0.0267964 -5.09417e-06 1.22165e-08
0.0267941 -3.52196e-06 9.05109e-09
0.0267925 -2.45347e-06 6.67698e-09
0.0267914 -1.71935e-06 4.90971e-09
0.0267906 -1.21048e-06 3.6013e-09
0.02679 -8.55238e-07 2.63652e-09
0.0267896 -6.05869e-07 1.9273e-09
0.0267893 -4.30061e-07 1.40712e-09
0.0267891 -3.05706e-07 1.02617e-09
0.0267889 -2.17526e-07 7.47343e-10
0.0267888 -1.54879e-07 5.43029e-10
0.0267887 -1.10306e-07 3.92605e-10
0.0267887 -7.85521e-08 2.80391e-10
0.0267886 -5.58964e-08 1.93956e-10
0.0267886 -3.96895e-08 1.2261e-10
0.0267886 -2.803e-08 5.5958e-11
0.0267886 -1.95295e-08 -1.74077e-11
0.0267886 -1.31371e-08 -1.10198e-10
0.0267886 -7.98962e-09 -2.29867e-10
0.0267886 -3.23749e-09 -3.51845e-10
0.0267886 2.33574e-09 -6.3488e-10
0.0267886 1.1083e-08 -4.23724e-09
0.0267886 2.46275e-08 -1.96016e-08
0.0267886 3.2609e-08 -3.15915e-08
0.01 -1.63472e-08 -3.14141e-08
0.01 0.000989267 -0.00415086
0.0151316 0.00206221 -0.00702279
0.0198141 0.00227271 -0.00428964
0.0233966 0.00315914 -0.00214384
0.0272742 0.00543057 -0.00122667
0.0324136 0.00797711 -0.000924829
0.0410375 0.00977665 -0.000598514