# vtk DataFile Version 2.0
Tobias Weinzierl: CPU, Manycore and Cluster Computing
ASCII

DATASET STRUCTURED_POINTS
DIMENSIONS  51 11 6

ORIGIN 0 0 0 

SPACING 0.1 0.1 0.1 

POINT_DATA 3366

VECTORS velocity float
0 0 0
-6.4931e-15 0 0
-1.28179e-08 0 0
-1.77722e-08 0 0
-1.77774e-08 0 0
-1.45624e-08 0 0
-1.83948e-08 0 0
-1.9513e-08 0 0
-1.8973e-08 0 0
-1.78192e-08 0 0
-1.71891e-08 0 0
-1.70712e-08 0 0
-1.72324e-08 0 0
-1.75097e-08 0 0
-1.78135e-08 0 0
-1.80953e-08 0 0
-1.83341e-08 0 0
-1.85259e-08 0 0
-1.86747e-08 0 0
-1.87878e-08 0 0
-1.88725e-08 0 0
-1.89355e-08 0 0
-1.89822e-08 0 0
-1.90166e-08 0 0
-1.90421e-08 0 0
-1.90608e-08 0 0
-1.90746e-08 0 0
-1.90849e-08 0 0
-1.90924e-08 0 0
-1.90979e-08 0 0
-1.9102e-08 0 0
-1.91051e-08 0 0
-1.91073e-08 0 0
-1.9109e-08 0 0
-1.91102e-08 0 0
-1.91111e-08 0 0
-1.91118e-08 0 0
-1.91122e-08 0 0
-1.91126e-08 0 0
-1.91129e-08 0 0
-1.91131e-08 0 0
-1.91132e-08 0 0
-1.91133e-08 0 0
-1.91134e-08 0 0
-1.91135e-08 0 0
-1.91135e-08 0 0
-1.91135e-08 0 0
-1.91136e-08 0 0
-1.91136e-08 0 0
-1.91136e-08 0 0
0.00527342 0 0
0 7.6878e-09 0
-7.61034e-16 9.02572e-09 0
-2.31004e-08 1.39946e-08 0
-2.73322e-08 6.25645e-09 0
-2.43771e-08 -6.88753e-10 0
-1.30788e-08 1.72585e-09 0
-2.06997e-08 4.44906e-09 0
-2.1817e-08 -3.97074e-11 0
-2.01182e-08 -1.91809e-09 0
-1.87477e-08 -1.64799e-09 0
-1.91719e-08 -5.3135e-10 0
-2.05483e-08 2.12925e-10 0
-2.19321e-08 5.41388e-10 0
-2.31098e-08 6.35459e-10 0
-2.40639e-08 6.12258e-10 0
-2.48077e-08 5.33638e-10 0
-2.537e-08 4.37393e-10 0
-2.57861e-08 3.44573e-10 0
-2.60902e-08 2.64538e-10 0
-2.63112e-08 1.99748e-10 0
-2.64715e-08 1.49261e-10 0
-2.65878e-08 1.10833e-10 0
-2.66725e-08 8.20023e-11 0
-2.67342e-08 6.05562e-11 0
-2.67793e-08 4.46809e-11 0
-2.68124e-08 3.29594e-11 0
-2.68368e-08 2.43145e-11 0
-2.68547e-08 1.79408e-11 0
-2.68679e-08 1.32411e-11 0
-2.68776e-08 9.77466e-12 0
-2.68848e-08 7.21699e-12 0
-2.68901e-08 5.32921e-12 0
-2.6894e-08 3.93548e-12 0
-2.6897e-08 2.90629e-12 0
-2.68991e-08 2.14617e-12 0
-2.69007e-08 1.58472e-12 0
-2.69019e-08 1.16999e-12 0
-2.69027e-08 8.63623e-13 0
-2.69034e-08 6.37284e-13 0
-2.69039e-08 4.70039e-13 0
-2.69042e-08 3.4642e-13 0
-2.69045e-08 2.54989e-13 0
-2.69047e-08 1.873e-13 0
-2.69048e-08 1.37119e-13 0
-2.69049e-08 9.98873e-14 0
-2.6905e-08 7.24042e-14 0
-2.6905e-08 5.30018e-14 0
-2.69051e-08 4.28979e-14 0
-2.69051e-08 5.15708e-14 0
-2.69052e-08 1.05131e-13 0
0.0114189 -2.06898e-08 0
0 -8.0064e-11 0
6.74644e-14 1.15537e-08 0
-2.28244e-08 1.75258e-08 0
-1.84973e-08 7.39274e-09 0
-1.34858e-08 -6.1373e-09 0
-1.78489e-08 -4.87828e-10 0
-1.81747e-08 7.18144e-09 0
-2.0849e-08 -2.27256e-09 0
-2.27158e-09 -3.33564e-09 0
-1.06183e-09 3.31007e-11 0
-3.4011e-09 2.75614e-09 0
-6.52726e-09 3.38326e-09 0
-8.91767e-09 2.9068e-09 0
-1.05879e-08 2.3042e-09 0
-1.17645e-08 1.77771e-09 0
-1.2584e-08 1.3413e-09 0
-1.31474e-08 9.93763e-10 0
-1.3533e-08 7.27334e-10 0
-1.37979e-08 5.288e-10 0
-1.39814e-08 3.83495e-10 0
-1.411e-08 2.78176e-10 0
-1.42011e-08 2.0214e-10 0
-1.42664e-08 1.47258e-10 0
-1.43135e-08 1.0757e-10 0
-1.43478e-08 7.87825e-11 0
-1.43729e-08 5.78324e-11 0
-1.43913e-08 4.25358e-11 0
-1.44049e-08 3.13343e-11 0
-1.44149e-08 2.31109e-11 0
-1.44223e-08 1.70615e-11 0
-1.44278e-08 1.2604e-11 0
-1.44319e-08 9.31543e-12 0
-1.44349e-08 6.887e-12 0
-1.44371e-08 5.09252e-12 0
-1.44388e-08 3.76587e-12 0
-1.444e-08 2.78477e-12 0
-1.44409e-08 2.05907e-12 0
-1.44416e-08 1.52219e-12 0
-1.44421e-08 1.12496e-12 0
-1.44425e-08 8.30993e-13 0
-1.44427e-08 6.13397e-13 0
-1.44429e-08 4.52266e-13 0
-1.44431e-08 3.329e-13 0
-1.44432e-08 2.44492e-13 0
-1.44433e-08 1.79221e-13 0
-1.44433e-08 1.31576e-13 0
-1.44434e-08 9.76916e-14 0
-1.44434e-08 7.54918e-14 0
-1.44434e-08 6.60513e-14 0
-1.44435e-08 7.19281e-14 0
0.0123285 -1.56468e-08 0
0 -9.31891e-09 0
1.82585e-13 9.6536e-09 0
-2.73463e-08 1.43905e-08 0
-1.67706e-08 7.88077e-09 0
-9.88737e-09 9.10935e-09 0
-1.93325e-08 5.96554e-09 0
-1.58698e-08 3.43556e-14 0
-1.8545e-08 -2.15022e-08 0
-2.32613e-08 -2.32098e-08 0
-1.11994e-08 1.22039e-09 0
-8.56905e-09 6.72184e-09 0
-8.95881e-09 6.77155e-09 0
-9.97856e-09 5.13184e-09 0
-1.09116e-08 3.72428e-09 0
-1.16294e-08 2.70603e-09 0
-1.21294e-08 1.94988e-09 0
-1.24651e-08 1.39439e-09 0
-1.26909e-08 9.94529e-10 0
-1.28456e-08 7.10479e-10 0
-1.29542e-08 5.09629e-10 0
-1.30321e-08 3.67415e-10 0
-1.30888e-08 2.66246e-10 0
-1.31305e-08 1.93838e-10 0
-1.31615e-08 1.41688e-10 0
-1.31845e-08 1.0391e-10 0
-1.32016e-08 7.64034e-11 0
-1.32144e-08 5.62915e-11 0
-1.32239e-08 4.15365e-11 0
-1.32311e-08 3.06831e-11 0
-1.32364e-08 2.26835e-11 0
-1.32403e-08 1.67785e-11 0
-1.32432e-08 1.2415e-11 0
-1.32454e-08 9.18803e-12 0
-1.3247e-08 6.80037e-12 0
-1.32482e-08 5.03312e-12 0
-1.32491e-08 3.72482e-12 0
-1.32498e-08 2.75615e-12 0
-1.32503e-08 2.03891e-12 0
-1.32506e-08 1.5078e-12 0
-1.32509e-08 1.11445e-12 0
-1.32511e-08 8.23057e-13 0
-1.32512e-08 6.07077e-13 0
-1.32514e-08 4.46843e-13 0
-1.32514e-08 3.27782e-13 0
-1.32515e-08 2.39095e-13 0
-1.32515e-08 1.72902e-13 0
-1.32516e-08 1.24044e-13 0
-1.32516e-08 8.9535e-14 0
-1.32516e-08 6.74241e-14 0
-1.32516e-08 5.43362e-14 0
0.0123672 -9.96141e-09 0
0 -1.59747e-08 0
2.6549e-13 5.10693e-09 0
-3.30833e-08 6.173e-09 0
-2.10728e-08 3.94215e-09 0
-9.78185e-09 7.17707e-09 0
-3.66685e-14 4.30097e-09 0
-9.31266e-13 -9.06774e-13 0
7.91225e-13 -9.64927e-13 0
-2.21349e-08 -1.36092e-08 0
-2.47913e-08 -1.483e-08 0
-1.49348e-08 1.44773e-09 0
-1.34166e-08 5.61934e-09 0
-1.29608e-08 5.32884e-09 0
-1.29124e-08 4.15671e-09 0
-1.2952e-08 3.05542e-09 0
-1.2984e-08 2.17952e-09 0
-1.30088e-08 1.54125e-09 0
-1.3033e-08 1.09307e-09 0
-1.30577e-08 7.8097e-10 0
-1.30819e-08 5.62551e-10 0
-1.3104e-08 4.0818e-10 0
-1.31234e-08 2.97928e-10 0
-1.31396e-08 2.18447e-10 0
-1.31529e-08 1.6071e-10 0
-1.31635e-08 1.18521e-10 0
-1.31718e-08 8.75561e-11 0
-1.31782e-08 6.47567e-11 0
-1.3183e-08 4.79311e-11 0
-1.31868e-08 3.54944e-11 0
-1.31896e-08 2.62919e-11 0
-1.31917e-08 1.94777e-11 0
-1.31933e-08 1.44299e-11 0
-1.31945e-08 1.06896e-11 0
-1.31953e-08 7.91788e-12 0
-1.3196e-08 5.86389e-12 0
-1.31965e-08 4.34185e-12 0
-1.31968e-08 3.21408e-12 0
-1.31971e-08 2.3785e-12 0
-1.31973e-08 1.75943e-12 0
-1.31975e-08 1.30074e-12 0
-1.31976e-08 9.60767e-13 0
-1.31976e-08 7.08624e-13 0
-1.31977e-08 5.21369e-13 0
-1.31977e-08 3.81985e-13 0
-1.31978e-08 2.77901e-13 0
-1.31978e-08 1.99918e-13 0
-1.31978e-08 1.41313e-13 0
-1.31978e-08 9.72505e-14 0
-1.31978e-08 6.40125e-14 0
-1.31978e-08 3.74325e-14 0
0.0123683 -4.85641e-09 0
0 -1.33202e-08 0
3.42437e-13 2.11709e-09 0
-3.71357e-08 3.0294e-09 0
-2.6745e-08 7.51196e-10 0
-1.5999e-08 -5.46352e-10 0
-7.33352e-09 -3.85245e-10 0
-9.22002e-13 8.58638e-13 0
-6.74149e-14 6.74149e-14 0
7.62607e-13 -8.19843e-13 0
-1.37253e-08 -7.43171e-09 0
-1.525e-08 -5.02987e-09 0
-1.69871e-08 5.15643e-09 0
-1.61298e-08 4.9716e-09 0
-1.50677e-08 3.84923e-09 0
-1.42938e-08 2.78778e-09 0
-1.38108e-08 1.9752e-09 0
-1.3532e-08 1.40838e-09 0
-1.33765e-08 1.0166e-09 0
-1.32911e-08 7.41643e-10 0
-1.32449e-08 5.45197e-10 0
-1.32202e-08 4.02796e-10 0
-1.32073e-08 2.98495e-10 0
-1.32007e-08 2.21576e-10 0
-1.31975e-08 1.64612e-10 0
-1.3196e-08 1.22325e-10 0
-1.31955e-08 9.08969e-11 0
-1.31954e-08 6.75277e-11 0
-1.31954e-08 5.01506e-11 0
-1.31956e-08 3.72318e-11 0
-1.31957e-08 2.76307e-11 0
-1.31958e-08 2.0498e-11 0
-1.3196e-08 1.52012e-11 0
-1.3196e-08 1.12693e-11 0
-1.31961e-08 8.3517e-12 0
-1.31962e-08 6.18748e-12 0
-1.31962e-08 4.58262e-12 0
-1.31962e-08 3.39288e-12 0
-1.31963e-08 2.51108e-12 0
-1.31963e-08 1.8576e-12 0
-1.31963e-08 1.37331e-12 0
-1.31963e-08 1.01431e-12 0
-1.31963e-08 7.47996e-13 0
-1.31963e-08 5.50135e-13 0
-1.31963e-08 4.02713e-13 0
-1.31963e-08 2.92309e-13 0
-1.31963e-08 2.08899e-13 0
-1.31963e-08 1.44967e-13 0
-1.31963e-08 9.48414e-14 0
-1.31963e-08 5.39633e-14 0
-1.31963e-08 1.83438e-14 0
0.0123683 5.07323e-11 0
0 -8.73176e-09 0
3.74025e-13 -9.61382e-10 0
-3.67828e-08 -1.14528e-09 0
-2.67698e-08 -7.98522e-10 0
-1.86268e-08 -1.11858e-09 0
-1.3973e-08 -7.28447e-09 0
-1.07764e-08 -6.78051e-09 0
-9.35929e-13 7.81348e-13 0
-1.87426e-14 1.87426e-14 0
7.81067e-13 -7.44146e-13 0
-7.46601e-09 4.44627e-09 0
-2.3437e-08 6.82046e-09 0
-2.05043e-08 3.8308e-09 0
-1.68604e-08 2.4904e-09 0
-1.50837e-08 1.81333e-09 0
-1.42443e-08 1.38191e-09 0
-1.38177e-08 1.06812e-09 0
-1.35854e-08 8.23754e-10 0
-1.34511e-08 6.31575e-10 0
-1.33693e-08 4.81408e-10 0
-1.3317e-08 3.65064e-10 0
-1.32823e-08 2.75632e-10 0
-1.32586e-08 2.0735e-10 0
-1.3242e-08 1.55514e-10 0
-1.32302e-08 1.1635e-10 0
-1.32217e-08 8.68731e-11 0
-1.32154e-08 6.47581e-11 0
-1.32109e-08 4.82085e-11 0
-1.32075e-08 3.58492e-11 0
-1.3205e-08 2.66345e-11 0
-1.32032e-08 1.97735e-11 0
-1.32018e-08 1.46706e-11 0
-1.32008e-08 1.08787e-11 0
-1.32001e-08 8.06306e-12 0
-1.31995e-08 5.97362e-12 0
-1.31991e-08 4.42388e-12 0
-1.31988e-08 3.27491e-12 0
-1.31985e-08 2.42335e-12 0
-1.31984e-08 1.79233e-12 0
-1.31982e-08 1.32476e-12 0
-1.31981e-08 9.78208e-13 0
-1.31981e-08 7.21147e-13 0
-1.3198e-08 5.30134e-13 0
-1.3198e-08 3.87684e-13 0
-1.3198e-08 2.80678e-13 0
-1.31979e-08 1.99157e-13 0
-1.31979e-08 1.3544e-13 0
-1.31979e-08 8.35425e-14 0
-1.31979e-08 3.86712e-14 0
-1.31979e-08 -2.57662e-15 0
0.0123683 4.95186e-09 0
0 -5.90181e-09 0
2.98549e-13 -3.73135e-09 0
-3.36019e-08 -4.90704e-09 0
-2.53791e-08 -2.00768e-09 0
-1.88169e-08 -2.70662e-09 0
-1.57587e-08 -3.77904e-09 0
-1.7929e-08 -1.23288e-08 0
-1.3504e-08 -1.04245e-08 0
-9.36895e-13 6.25801e-13 0
8.47206e-13 5.36677e-13 0
7.81955e-14 1.79222e-08 0
-3.06802e-08 1.83203e-08 0
-2.41734e-08 -6.1547e-10 0
-1.72623e-08 -1.01333e-09 0
-1.49262e-08 3.44854e-10 0
-1.41781e-08 7.33662e-10 0
-1.3869e-08 7.3699e-10 0
-1.36991e-08 6.35346e-10 0
-1.35866e-08 5.15636e-10 0
-1.35049e-08 4.05621e-10 0
-1.34435e-08 3.1323e-10 0
-1.33968e-08 2.39027e-10 0
-1.33611e-08 1.80942e-10 0
-1.33341e-08 1.36201e-10 0
-1.33135e-08 1.02107e-10 0
-1.3298e-08 7.6318e-11 0
-1.32863e-08 5.69143e-11 0
-1.32775e-08 4.23711e-11 0
-1.3271e-08 3.15022e-11 0
-1.3266e-08 2.33967e-11 0
-1.32624e-08 1.73622e-11 0
-1.32596e-08 1.28752e-11 0
-1.32576e-08 9.54226e-12 0
-1.32561e-08 7.06864e-12 0
-1.32549e-08 5.23397e-12 0
-1.32541e-08 3.87395e-12 0
-1.32535e-08 2.86621e-12 0
-1.3253e-08 2.11976e-12 0
-1.32527e-08 1.56695e-12 0
-1.32524e-08 1.15757e-12 0
-1.32522e-08 8.54311e-13 0
-1.32521e-08 6.29476e-13 0
-1.3252e-08 4.62452e-13 0
-1.32519e-08 3.37842e-13 0
-1.32518e-08 2.44015e-13 0
-1.32518e-08 1.71973e-13 0
-1.32518e-08 1.14464e-13 0
-1.32517e-08 6.54336e-14 0
-1.32517e-08 1.98738e-14 0
-1.32517e-08 -2.49843e-14 0
0.0123672 1.00372e-08 0
0 -5.8661e-09 0
1.78822e-13 -5.49477e-09 0
-2.8593e-08 -7.32202e-09 0
-2.3401e-08 -2.40745e-09 0
-1.8928e-08 -1.13743e-09 0
-1.8543e-08 -3.56709e-09 0
-1.98618e-08 -6.9283e-09 0
-2.90162e-08 -1.71142e-08 0
-2.79303e-08 -1.31957e-08 0
-2.03912e-08 -3.30476e-18 0
-1.27212e-08 3.26372e-08 0
-4.3448e-09 2.91435e-08 0
-9.63197e-09 -8.25836e-09 0
-1.31867e-08 -5.7896e-09 0
-1.44986e-08 -9.08292e-10 0
-1.49032e-08 4.32274e-10 0
-1.49788e-08 6.16362e-10 0
-1.49377e-08 5.4678e-10 0
-1.48611e-08 4.37931e-10 0
-1.4781e-08 3.38275e-10 0
-1.47091e-08 2.57015e-10 0
-1.46491e-08 1.93537e-10 0
-1.46008e-08 1.44951e-10 0
-1.45629e-08 1.08182e-10 0
-1.45336e-08 8.05484e-11 0
-1.45112e-08 5.9873e-11 0
-1.44942e-08 4.44505e-11 0
-1.44814e-08 3.29704e-11 0
-1.44718e-08 2.44379e-11 0
-1.44646e-08 1.81031e-11 0
-1.44592e-08 1.34041e-11 0
-1.44552e-08 9.92077e-12 0
-1.44522e-08 7.34003e-12 0
-1.44499e-08 5.42888e-12 0
-1.44483e-08 4.01413e-12 0
-1.4447e-08 2.9672e-12 0
-1.44461e-08 2.19267e-12 0
-1.44455e-08 1.61977e-12 0
-1.4445e-08 1.19606e-12 0
-1.44446e-08 8.82683e-13 0
-1.44443e-08 6.50818e-13 0
-1.44441e-08 4.79108e-13 0
-1.4444e-08 3.51675e-13 0
-1.44438e-08 2.56656e-13 0
-1.44438e-08 1.85054e-13 0
-1.44437e-08 1.29778e-13 0
-1.44437e-08 8.4697e-14 0
-1.44436e-08 4.37305e-14 0
-1.44436e-08 2.24199e-16 0
-1.44436e-08 -5.05823e-14 0
0.0123285 1.56799e-08 0
0 -7.64133e-09 0
8.70967e-14 -4.95138e-09 0
-2.69466e-08 -6.46368e-09 0
-2.81972e-08 -1.96497e-09 0
-2.72753e-08 -4.21985e-11 0
-2.67565e-08 2.13425e-09 0
-2.7829e-08 1.83403e-09 0
-2.89937e-08 -9.61747e-10 0
-4.14094e-08 -1.11018e-08 0
-4.45927e-08 -2.15758e-08 0
-4.92476e-08 -6.08112e-09 0
-1.97474e-08 1.15133e-08 0
-2.36119e-08 9.37334e-09 0
-2.80163e-08 4.98957e-09 0
-2.87968e-08 2.53358e-09 0
-2.85766e-08 1.37004e-09 0
-2.82249e-08 8.17969e-10 0
-2.79144e-08 5.29844e-10 0
-2.76674e-08 3.61028e-10 0
-2.74772e-08 2.53104e-10 0
-2.73328e-08 1.80354e-10 0
-2.72239e-08 1.29811e-10 0
-2.71424e-08 9.40631e-11 0
-2.70814e-08 6.84874e-11 0
-2.7036e-08 5.00421e-11 0
-2.70022e-08 3.66607e-11 0
-2.69771e-08 2.69099e-11 0
-2.69584e-08 1.97809e-11 0
-2.69446e-08 1.45557e-11 0
-2.69344e-08 1.07185e-11 0
-2.69268e-08 7.89694e-12 0
-2.69212e-08 5.82005e-12 0
-2.6917e-08 4.29025e-12 0
-2.69139e-08 3.16289e-12 0
-2.69116e-08 2.33183e-12 0
-2.691e-08 1.71908e-12 0
-2.69087e-08 1.26722e-12 0
-2.69078e-08 9.33979e-13 0
-2.69071e-08 6.88183e-13 0
-2.69066e-08 5.06848e-13 0
-2.69063e-08 3.73007e-13 0
-2.6906e-08 2.74123e-13 0
-2.69058e-08 2.00908e-13 0
-2.69056e-08 1.46439e-13 0
-2.69055e-08 1.05473e-13 0
-2.69054e-08 7.38494e-14 0
-2.69054e-08 4.7747e-14 0
-2.69054e-08 2.21782e-14 0
-2.69054e-08 -1.5015e-14 0
-2.69054e-08 -9.39424e-14 0
0.0114189 2.06366e-08 0
0 0 0
3.05987e-14 0 0
-1.40296e-08 0 0
-1.6911e-08 0 0
-1.77558e-08 0 0
-1.73327e-08 0 0
-1.51199e-08 0 0
-1.34815e-08 0 0
-1.34792e-08 0 0
-2.42014e-08 0 0
-3.65263e-08 0 0
-3.21249e-08 0 0
-2.65786e-08 0 0
-2.33107e-08 0 0
-2.15978e-08 0 0
-2.06918e-08 0 0
-2.01742e-08 0 0
-1.9852e-08 0 0
-1.96384e-08 0 0
-1.94912e-08 0 0
-1.93874e-08 0 0
-1.93131e-08 0 0
-1.92595e-08 0 0
-1.92206e-08 0 0
-1.91922e-08 0 0
-1.91714e-08 0 0
-1.91562e-08 0 0
-1.9145e-08 0 0
-1.91367e-08 0 0
-1.91306e-08 0 0
-1.91262e-08 0 0
-1.91229e-08 0 0
-1.91205e-08 0 0
-1.91187e-08 0 0
-1.91173e-08 0 0
-1.91164e-08 0 0
-1.91156e-08 0 0
-1.91151e-08 0 0
-1.91147e-08 0 0
-1.91144e-08 0 0
-1.91142e-08 0 0
-1.91141e-08 0 0
-1.9114e-08 0 0
-1.91139e-08 0 0
-1.91138e-08 0 0
-1.91138e-08 0 0
-1.91137e-08 0 0
-1.91137e-08 0 0
-1.91137e-08 0 0
-1.91138e-08 0 0
0.00527343 0 0
0 0 5.9154e-09
2.8536e-14 0 3.79221e-09
-2.45881e-08 0 3.77759e-09
-2.86175e-08 0 -1.29694e-09
-2.33846e-08 0 -2.52107e-09
-1.05633e-08 0 -1.10852e-09
-1.61043e-08 0 5.0155e-10
-1.72893e-08 0 6.17918e-10
-1.71157e-08 0 2.24278e-10
-1.68987e-08 0 -1.35887e-10
-1.79481e-08 0 -2.16676e-10
-1.95986e-08 0 -1.69637e-10
-2.1239e-08 0 -1.02886e-10
-2.26343e-08 0 -5.43799e-11
-2.37471e-08 0 -2.66814e-11
-2.45996e-08 0 -1.29737e-11
-2.52347e-08 0 -6.74541e-12
-2.5699e-08 0 -3.98394e-12
-2.60347e-08 0 -2.68334e-12
-2.6276e-08 0 -1.96992e-12
-2.64493e-08 0 -1.5013e-12
-2.65739e-08 0 -1.1535e-12
-2.66638e-08 0 -8.82308e-13
-2.67289e-08 0 -6.69325e-13
-2.67763e-08 0 -5.03556e-13
-2.68108e-08 0 -3.76165e-13
-2.68361e-08 0 -2.79419e-13
-2.68546e-08 0 -2.06656e-13
-2.68683e-08 0 -1.52342e-13
-2.68783e-08 0 -1.12028e-13
-2.68857e-08 0 -8.2233e-14
-2.68912e-08 0 -6.02812e-14
-2.68953e-08 0 -4.41451e-14
-2.68983e-08 0 -3.23038e-14
-2.69005e-08 0 -2.36252e-14
-2.69021e-08 0 -1.72705e-14
-2.69033e-08 0 -1.26205e-14
-2.69042e-08 0 -9.21931e-15
-2.69049e-08 0 -6.73211e-15
-2.69054e-08 0 -4.91372e-15
-2.69057e-08 0 -3.58678e-15
-2.6906e-08 0 -2.6247e-15
-2.69062e-08 0 -1.94264e-15
-2.69063e-08 0 -1.49989e-15
-2.69064e-08 0 -1.29556e-15
-2.69065e-08 0 -1.2996e-15
-2.69066e-08 0 -9.72367e-16
-2.69066e-08 0 2.44652e-15
-2.69067e-08 0 1.96456e-14
-2.69067e-08 0 7.86398e-14
0.0114189 0 -1.75377e-08
0.0036 1.07088e-08 5.6334e-09
0.00359998 -0.00491157 -0.00246753
0.0137984 -0.00932399 -0.00410322
0.0236335 -0.00874816 -0.002588
0.0335764 -0.00842628 -0.00150087
0.0447979 -0.00505874 -0.000754521
0.046182 -0.000610661 -0.000296333
0.0456809 0.00225979 -0.000135677
0.0403642 0.00403256 -9.36809e-05
0.0353858 0.00394062 -8.17306e-05
0.0313996 0.00313978 -5.29061e-05
0.0286245 0.00221647 -3.01222e-05
0.0268634 0.00143896 -1.60257e-05
0.0258131 0.000876378 -8.12573e-06
0.0252197 0.000504695 -3.99352e-06
0.0249035 0.000274224 -1.94315e-06
0.0247476 0.00013863 -9.58795e-07
0.0246796 6.27559e-05 -4.91133e-07
0.0246574 2.25847e-05 -2.65938e-07
0.024657 2.80222e-06 -1.53453e-07
0.0246658 -5.86022e-06 -9.40898e-08
0.0246774 -8.77383e-06 -6.06808e-08
0.0246887 -8.92808e-06 -4.0655e-08
0.0246985 -7.91713e-06 -2.79851e-08
0.0247065 -6.54735e-06 -1.9626e-08
0.0247128 -5.19602e-06 -1.39397e-08
0.0247177 -4.01605e-06 -9.98739e-09
0.0247214 -3.04919e-06 -7.19882e-09
0.0247241 -2.28649e-06 -5.2107e-09
0.0247262 -1.69943e-06 -3.78288e-09
0.0247277 -1.255e-06 -2.75216e-09
0.0247288 -9.22444e-07 -2.00535e-09
0.0247296 -6.75648e-07 -1.46285e-09
0.0247302 -4.93597e-07 -1.06804e-09
0.0247306 -3.59897e-07 -7.80376e-10
0.0247309 -2.62025e-07 -5.70677e-10
0.0247311 -1.90553e-07 -4.17914e-10
0.0247313 -1.38454e-07 -3.06964e-10
0.0247314 -1.00528e-07 -2.27081e-10
0.0247315 -7.2944e-08 -1.70885e-10
0.0247316 -5.28966e-08 -1.33745e-10
0.0247316 -3.83334e-08 -1.13478e-10
0.0247317 -2.77602e-08 -1.10184e-10
0.0247317 -2.00958e-08 -1.25767e-10
0.0247317 -1.45725e-08 -1.62034e-10
0.0247317 -1.0676e-08 -2.16498e-10
0.0247317 -8.15553e-09 -3.01321e-10
0.0247317 -7.42739e-09 -8.2703e-10
0.0247318 -1.23476e-08 -5.45253e-09
0.0247318 -3.22944e-08 -2.3885e-08
0.0247318 -4.75222e-08 -3.8164e-08
0.01 1.09323e-08 6.09167e-09
0.01 -0.00789671 -0.00437155
0.0177171 -0.0160027 -0.00705135
0.0259183 -0.0169759 -0.00404855
0.0353518 -0.0194484 -0.00206324
0.0528735 -0.0116426 -0.00079907
0.052188 -0.000390543 -0.000132398
0.0527134 0.00608162 -3.39338e-05
0.0431832 0.010442 -6.89883e-05
0.0362765 0.00905207 -0.000113102
0.0319249 0.00681067 -7.71556e-05
0.0292838 0.00456297 -4.06019e-05
0.0278478 0.00282543 -2.02133e-05
0.0271139 0.00165091 -9.46997e-06
0.0267645 0.000913186 -4.14659e-06
0.0266172 0.000473909 -1.69624e-06
0.0265701 0.000224827 -6.43452e-07
0.026569 9.06983e-05 -2.20709e-07
0.0265862 2.28945e-05 -6.35139e-08
0.0266083 -8.31535e-06 -1.10742e-08
0.0266295 -2.03004e-05 3.13119e-09
0.0266477 -2.28052e-05 4.91423e-09
0.0266624 -2.108e-05 3.53377e-09
0.0266738 -1.78233e-05 1.92269e-09
0.0266825 -1.43352e-05 7.8114e-10
0.0266891 -1.11768e-05 1.19313e-10
0.026694 -8.53691e-06 -2.06308e-10
0.0266976 -6.42896e-06 -3.31207e-10
0.0267003 -4.79338e-06 -3.49452e-10
0.0267023 -3.54831e-06 -3.18088e-10
0.0267037 -2.61293e-06 -2.68665e-10
0.0267047 -1.91671e-06 -2.17142e-10
0.0267055 -1.40199e-06 -1.70655e-10
0.0267061 -1.0233e-06 -1.31675e-10
0.0267065 -7.45703e-07 -1.00407e-10
0.0267068 -5.42748e-07 -7.60987e-11
0.026707 -3.94661e-07 -5.7735e-11
0.0267071 -2.86769e-07 -4.44014e-11
0.0267072 -2.08248e-07 -3.54919e-11
0.0267073 -1.51151e-07 -3.08759e-11
0.0267074 -1.09661e-07 -3.10901e-11
0.0267074 -7.95353e-08 -3.75714e-11
0.0267074 -5.76958e-08 -5.28394e-11
0.0267075 -4.19352e-08 -8.02589e-11
0.0267075 -3.07293e-08 -1.22559e-10
0.0267075 -2.31748e-08 -1.79581e-10
0.0267075 -1.91238e-08 -2.74787e-10
0.0267075 -1.93112e-08 -8.63918e-10
0.0267075 -2.40177e-08 -5.86983e-09
0.0267075 -3.31951e-08 -2.49827e-08
0.0267075 -3.89665e-08 -3.96156e-08
0.0148 -9.69604e-09 1.47547e-08
0.0148 -0.00876611 -0.00591187
0.0197743 -0.0185253 -0.00960093
0.0242968 -0.021932 -0.00545418
0.0265044 -0.0328929 -0.00261288
0.0278163 -0.0207204 -0.00084152
0.0268559 -1.55361e-07 2.58928e-05
0.0276014 0.0115189 3.95329e-05
0.0330563 0.0206152 1.09977e-05
0.0300776 0.0152937 -3.67098e-05
0.0276525 0.0101869 -4.97772e-05
0.026445 0.00632273 -3.43287e-05
0.026051 0.00362399 -1.81861e-05
0.0260464 0.00196718 -8.00558e-06
0.0261763 0.00100508 -2.87157e-06
0.0263267 0.000470378 -7.21355e-07
0.0264558 0.000187617 2.10521e-08
0.0265544 4.7121e-05 1.98996e-07
0.0266256 -1.64664e-05 1.88622e-07
0.0266756 -4.04289e-05 1.35313e-07
0.0267104 -4.52146e-05 8.60678e-08
0.0267346 -4.16101e-05 5.10276e-08
0.0267513 -3.50518e-05 2.87707e-08
0.026763 -2.81085e-05 1.55295e-08
0.0267712 -2.18647e-05 8.00079e-09
0.026777 -1.66706e-05 3.87653e-09
0.0267812 -1.25373e-05 1.69883e-09
0.0267841 -9.33829e-06 5.98422e-10
0.0267862 -6.9076e-06 7.64454e-11
0.0267877 -5.08398e-06 -1.45174e-10
0.0267888 -3.72801e-06 -2.17512e-10
0.0267896 -2.72623e-06 -2.20494e-10
0.0267901 -1.98959e-06 -1.95067e-10
0.0267905 -1.44977e-06 -1.61293e-10
0.0267908 -1.0552e-06 -1.28322e-10
0.026791 -7.67336e-07 -9.9806e-11
0.0267912 -5.57622e-07 -7.67796e-11
0.0267913 -4.05003e-07 -5.91885e-11
0.0267914 -2.94022e-07 -4.67054e-11
0.0267914 -2.13369e-07 -3.92063e-11
0.0267915 -1.54787e-07 -3.71131e-11
0.0267915 -1.12265e-07 -4.16972e-11
0.0267915 -8.14464e-08 -5.52977e-11
0.0267916 -5.92015e-08 -8.11392e-11
0.0267916 -4.33344e-08 -1.21899e-10
0.0267916 -3.23724e-08 -1.76669e-10
0.0267916 -2.536e-08 -2.61726e-10
0.0267916 -2.17183e-08 -7.88841e-10
0.0267916 -2.14292e-08 -5.4823e-09
0.0267916 -2.40205e-08 -2.34985e-08
0.0267916 -2.58723e-08 -3.72938e-08
0.018 -2.8529e-08 1.29572e-08
0.018 -0.00771472 -0.00704247
0.0203663 -0.0163251 -0.0115456
0.020819 -0.0174992 -0.00649295
0.0160671 -0.019535 -0.00299057
-3.91367e-09 -0.0106463 -0.00100079
1.89099e-06 8.51677e-07 1.65145e-09
-8.81701e-07 9.67092e-07 2.99369e-06
0.0115286 0.00804503 2.43193e-05
0.0206325 0.0145114 2.91764e-05
0.0215742 0.0104812 -2.20266e-06
0.0225061 0.00618756 -1.97366e-05
0.0237114 0.00323684 -1.41074e-05
0.0247342 0.0015321 -5.68575e-06
0.0254795 0.0006359 -1.27218e-06
0.0259775 0.000195779 3.08875e-07
0.0262935 -2.20698e-06 6.31608e-07
0.0264882 -7.88124e-05 5.37235e-07
0.0266065 -9.82689e-05 3.65985e-07
0.026678 -9.31452e-05 2.23723e-07
0.0267213 -7.9218e-05 1.27652e-07
0.0267477 -6.36926e-05 6.89623e-08
0.0267641 -4.95434e-05 3.52629e-08
0.0267743 -3.77371e-05 1.67937e-08
0.0267808 -2.83457e-05 7.10007e-09
0.0267851 -2.10881e-05 2.26193e-09
0.0267879 -1.55831e-05 1.68503e-11
0.0267898 -1.14596e-05 -8.94853e-10
0.026791 -8.39774e-06 -1.154e-09
0.0267919 -6.13814e-06 -1.11778e-09
0.0267925 -4.478e-06 -9.66972e-10
0.026793 -3.26224e-06 -7.88529e-10
0.0267933 -2.37402e-06 -6.20813e-10
0.0267935 -1.72625e-06 -4.77932e-10
0.0267936 -1.25445e-06 -3.62537e-10
0.0267937 -9.11164e-07 -2.72391e-10
0.0267938 -6.61563e-07 -2.03623e-10
0.0267939 -4.80182e-07 -1.52285e-10
0.0267939 -3.48429e-07 -1.15049e-10
0.026794 -2.52753e-07 -8.95491e-11
0.026794 -1.8329e-07 -7.45984e-11
0.026794 -1.32871e-07 -7.04171e-11
0.026794 -9.62915e-08 -7.88467e-11
0.026794 -6.97843e-08 -1.03199e-10
0.026794 -5.06295e-08 -1.46611e-10
0.026794 -3.68698e-08 -2.07135e-10
0.026794 -2.71136e-08 -2.90674e-10
0.026794 -2.03904e-08 -7.77954e-10
0.026794 -1.61875e-08 -5.31377e-09
0.026794 -1.37817e-08 -2.291e-08
0.026794 -1.28762e-08 -3.6408e-08
0.0196 -2.93402e-08 1.2e-09
0.0196 -0.00499783 -0.00764311
0.0205424 -0.0102255 -0.0125622
0.0193755 -0.0100465 -0.00697108
0.014518 -0.00801815 -0.00305643
0.00427071 -0.00319938 -0.00125469
1.49688e-06 -1.39123e-06 -0.00025027
5.09525e-07 -5.09525e-07 -5.99193e-10
-8.49255e-07 9.14146e-07 -9.95227e-07
0.0080485 0.00526313 5.57475e-06
0.0145182 0.00832917 5.09827e-07
0.0181859 0.00420009 -1.62437e-05
0.0214655 0.00140563 -1.49322e-05
0.0236856 0.000204264 -5.99031e-06
0.0250386 -0.000235794 -1.13835e-06
0.0258199 -0.000342661 5.04022e-07
0.0262588 -0.000322789 7.47439e-07
0.0265018 -0.000265779 5.75655e-07
0.0266352 -0.000206181 3.62006e-07
0.0267081 -0.000155206 2.0409e-07
0.0267477 -0.000114958 1.06021e-07
0.0267692 -8.43847e-05 5.05165e-08
0.0267809 -6.16292e-05 2.11006e-08
0.0267871 -4.48808e-05 6.45637e-09
0.0267905 -3.26307e-05 -2.63395e-10
0.0267922 -2.37023e-05 -2.9298e-09
0.0267932 -1.72079e-05 -3.63513e-09
0.0267937 -1.24894e-05 -3.46865e-09
0.0267939 -9.06312e-06 -2.9751e-09
0.026794 -6.57616e-06 -2.4123e-09
0.0267941 -4.77132e-06 -1.8914e-09
0.0267941 -3.46166e-06 -1.45141e-09
0.0267941 -2.51138e-06 -1.09783e-09
0.0267941 -1.82189e-06 -8.22214e-10
0.0267941 -1.32165e-06 -6.11613e-10
0.0267941 -9.58704e-07 -4.52948e-10
0.0267941 -6.95386e-07 -3.34749e-10
0.0267941 -5.04347e-07 -2.47711e-10
0.0267941 -3.65744e-07 -1.84729e-10
0.0267941 -2.65177e-07 -1.40786e-10
0.0267941 -1.92196e-07 -1.12883e-10
0.0267941 -1.39214e-07 -1.00075e-10
0.0267941 -1.00719e-07 -1.03545e-10
0.0267941 -7.26977e-08 -1.26216e-10
0.0267941 -5.22107e-08 -1.70513e-10
0.0267941 -3.70792e-08 -2.32438e-10
0.0267941 -2.56574e-08 -3.13901e-10
0.0267941 -1.66985e-08 -7.87128e-10
0.0267941 -9.3591e-09 -5.27893e-09
0.0267941 -2.99931e-09 -2.27728e-08
0.0267941 1.83571e-11 -3.6201e-08
0.0196 -1.86799e-08 -1.08916e-08
0.0196 -0.00200915 -0.00766478
0.0208481 -0.00398984 -0.0125562
0.0206549 -0.00327704 -0.00695085
0.0176938 -0.000297228 -0.0029964
0.0134197 0.00563399 -0.00142404
0.00840327 0.00463488 -0.000617093
1.50425e-06 -1.2782e-06 -0.000130067
4.28944e-07 -4.28944e-07 -4.91556e-10
-8.21265e-07 8.77246e-07 -6.13633e-07
0.00526464 0.000352043 4.6725e-06
0.0138599 -0.000749275 -1.54045e-05
0.020201 -0.00225391 -3.28644e-05
0.0235508 -0.00203583 -1.63814e-05
0.0252099 -0.00149596 -5.21283e-06
0.0260289 -0.00102346 -1.08193e-06
0.0264334 -0.000683731 2.39582e-08
0.0266321 -0.000455097 1.88447e-07
0.0267282 -0.000304525 1.36707e-07
0.0267733 -0.00020566 6.96285e-08
0.0267933 -0.000140365 2.57183e-08
0.026801 -9.68076e-05 2.82215e-09
0.0268032 -6.74087e-05 -7.10475e-09
0.0268028 -4.73304e-05 -1.0213e-08
0.0268016 -3.34659e-05 -1.01511e-08
0.0268001 -2.37983e-05 -8.84122e-09
0.0267988 -1.7001e-05 -7.21091e-09
0.0267977 -1.21891e-05 -5.66415e-09
0.0267968 -8.76357e-06 -4.3467e-09
0.0267961 -6.31435e-06 -3.28543e-09
0.0267955 -4.55712e-06 -2.458e-09
0.0267951 -3.29301e-06 -1.82602e-09
0.0267949 -2.38178e-06 -1.34984e-09
0.0267946 -1.7239e-06 -9.94375e-10
0.0267945 -1.24837e-06 -7.30812e-10
0.0267944 -9.04347e-07 -5.36417e-10
0.0267943 -6.55288e-07 -3.93767e-10
0.0267942 -4.74886e-07 -2.89815e-10
0.0267942 -3.44157e-07 -2.1507e-10
0.0267941 -2.49383e-07 -1.62984e-10
0.0267941 -1.80634e-07 -1.2959e-10
0.0267941 -1.30714e-07 -1.13361e-10
0.0267941 -9.43911e-08 -1.15169e-10
0.0267941 -6.78392e-08 -1.37799e-10
0.0267941 -4.82248e-08 -1.83665e-10
0.026794 -3.33907e-08 -2.48824e-10
0.026794 -2.16112e-08 -3.35537e-10
0.026794 -1.14302e-08 -8.1869e-10
0.026794 -1.69038e-09 -5.339e-09
0.026794 8.05033e-09 -2.29045e-08
0.026794 1.29107e-08 -3.63824e-08
0.018 -1.2502e-08 -1.74365e-08
0.018 0.000413884 -0.00718015
0.0205003 0.000795585 -0.0116838
0.0220184 0.00124223 -0.00643796
0.0215975 0.00326092 -0.00281707
0.0210674 0.0081247 -0.00134174
0.0217611 0.0143143 -0.000696783
0.0138114 0.00858996 -0.000305262
1.53684e-06 -1.01955e-06 -6.74894e-05
-7.04392e-07 -1.10097e-06 9.13584e-09
9.78519e-08 -0.00552819 6.37873e-05
0.0137066 -0.0107278 3.49063e-05
0.0219175 -0.00827259 -4.98143e-05
0.0251042 -0.00479654 -2.89172e-05
0.02625 -0.00270999 -1.05773e-05
0.0266722 -0.00156457 -3.42324e-06
0.0268233 -0.000925341 -1.10068e-06
0.0268683 -0.000560315 -3.83379e-07
0.0268726 -0.000347271 -1.59344e-07
0.0268625 -0.000220174 -8.2988e-08
0.0268491 -0.000142634 -5.15155e-08
0.0268363 -9.42514e-05 -3.50019e-08
0.0268256 -6.33882e-05 -2.46253e-08
0.0268171 -4.32848e-05 -1.75189e-08
0.0268105 -2.99371e-05 -1.25067e-08
0.0268055 -2.09234e-05 -8.94505e-09
0.0268018 -1.47474e-05 -6.41024e-09
0.0267991 -1.04639e-05 -4.60428e-09
0.0267971 -7.46332e-06 -3.31515e-09
0.0267956 -5.34467e-06 -2.39255e-09
0.0267945 -3.83928e-06 -1.73035e-09
0.0267937 -2.76439e-06 -1.2537e-09
0.0267931 -1.99398e-06 -9.09742e-10
0.0267927 -1.4402e-06 -6.61028e-10
0.0267924 -1.04124e-06 -4.8093e-10
0.0267922 -7.53356e-07 -3.5047e-10
0.026792 -5.45345e-07 -2.56121e-10
0.0267919 -3.949e-07 -1.88313e-10
0.0267918 -2.86002e-07 -1.40437e-10
0.0267918 -2.07116e-07 -1.08239e-10
0.0267917 -1.49916e-07 -8.9533e-11
0.0267917 -1.08374e-07 -8.41665e-11
0.0267917 -7.81042e-08 -9.41068e-11
0.0267917 -5.58893e-08 -1.23179e-10
0.0267916 -3.93178e-08 -1.75237e-10
0.0267916 -2.64997e-08 -2.49301e-10
0.0267916 -1.58052e-08 -3.5467e-10
0.0267916 -5.6013e-09 -8.85403e-10
0.0267916 5.82914e-09 -5.54582e-09
0.0267916 1.89837e-08 -2.34853e-08
0.0267916 2.58998e-08 -3.72316e-08
0.0148 -1.1138e-08 -2.12465e-08
0.0148 0.00174908 -0.00628686
0.0192196 0.00322285 -0.010115
0.0226383 0.00311888 -0.00552622
0.024498 0.00441384 -0.00250761
0.0261749 0.00737129 -0.00125844
0.0293338 0.0129015 -0.000693466
0.0339864 0.022204 -0.000340437
0.029152 0.013905 -1.5154e-05
0.030373 1.54214e-14 0.000194165
0.033245 -0.0133647 0.000205928
0.0319704 -0.0226681 6.71571e-05
0.0298484 -0.0136347 -4.7819e-05
0.0286238 -0.00635635 -3.16866e-05
0.0279289 -0.0030581 -1.23917e-05
0.0275044 -0.00159407 -4.29216e-06
0.027235 -0.000878719 -1.45593e-06
0.0270609 -0.000503887 -4.92761e-07
0.026947 -0.000298491 -1.62096e-07
0.0268717 -0.000182063 -4.64716e-08
0.0268212 -0.000114085 -5.97886e-09
0.026787 -7.32757e-05 7.3892e-09
0.0267635 -4.81187e-05 1.07365e-08
0.0267472 -3.22156e-05 1.04303e-08
0.0267358 -2.19262e-05 8.93407e-09
0.0267278 -1.51282e-05 7.21514e-09
0.0267221 -1.05543e-05 5.63791e-09
0.026718 -7.42878e-06 4.31601e-09
0.0267151 -5.26541e-06 3.25941e-09
0.026713 -3.75233e-06 2.43847e-09
0.0267115 -2.68524e-06 1.8122e-09
0.0267104 -1.92775e-06 1.34034e-09
0.0267096 -1.3873e-06 9.87851e-10
0.026709 -1.00019e-06 7.26131e-10
0.0267086 -7.22082e-07 5.32598e-10
0.0267083 -5.21831e-07 3.89821e-10
0.0267081 -3.77387e-07 2.84497e-10
0.0267079 -2.73057e-07 2.06493e-10
0.0267078 -1.97618e-07 1.47984e-10
0.0267077 -1.43011e-07 1.02685e-10
0.0267077 -1.03432e-07 6.51231e-11
0.0267076 -7.4684e-08 2.99104e-11
0.0267076 -5.37098e-08 -8.92714e-12
0.0267076 -3.82564e-08 -5.82926e-11
0.0267076 -2.66141e-08 -1.2521e-10
0.0267076 -1.73953e-08 -2.14557e-10
0.0267076 -9.28547e-09 -3.51251e-10
0.0267076 -5.97912e-10 -9.74829e-10
0.0267076 1.14933e-08 -5.95074e-09
0.0267076 2.89128e-08 -2.49379e-08
0.0267076 3.89823e-08 -3.94868e-08
0.01 -1.71268e-08 -2.72887e-08
0.01 0.00155364 -0.00503484
0.0164396 0.00276493 -0.0079268
0.0212175 0.00241122 -0.00423902
0.0246291 0.00304312 -0.00201694
0.028335 0.00501872 -0.00106608
0.033465 0.00743778 -0.000670389
0.042072 0.00925554 -0.000390221
0.0561266 0.00377877 -4.03589e-05