# vtk DataFile Version 2.0
Tobias Weinzierl: CPU, Manycore and Cluster Computing
ASCII

DATASET STRUCTURED_POINTS
DIMENSIONS  51 11 6

ORIGIN 0 0 0 

SPACING 0.1 0.1 0.1 

POINT_DATA 3366

VECTORS velocity float
0 0 0
3.60703e-15 0 0
-1.93984e-09 0 0
-4.37551e-09 0 0
-5.31194e-09 0 0
-1.60682e-09 0 0
-1.92299e-10 0 0
1.09125e-10 0 0
-4.6341e-10 0 0
-1.61624e-09 0 0
-2.54198e-09 0 0
-2.93404e-09 0 0
-2.95307e-09 0 0
-2.84279e-09 0 0
-2.74612e-09 0 0
-2.7053e-09 0 0
-2.70861e-09 0 0
-2.73253e-09 0 0
-2.76027e-09 0 0
-2.78387e-09 0 0
-2.80113e-09 0 0
-2.81255e-09 0 0
-2.81952e-09 0 0
-2.82344e-09 0 0
-2.82543e-09 0 0
-2.82628e-09 0 0
-2.82649e-09 0 0
-2.8264e-09 0 0
-2.82616e-09 0 0
-2.8259e-09 0 0
-2.82565e-09 0 0
-2.82543e-09 0 0
-2.82525e-09 0 0
-2.8251e-09 0 0
-2.82499e-09 0 0
-2.8249e-09 0 0
-2.82484e-09 0 0
-2.82479e-09 0 0
-2.82475e-09 0 0
-2.82472e-09 0 0
-2.8247e-09 0 0
-2.82469e-09 0 0
-2.82468e-09 0 0
-2.82467e-09 0 0
-2.82466e-09 0 0
-2.82466e-09 0 0
-2.82466e-09 0 0
-2.82466e-09 0 0
-2.82465e-09 0 0
-2.82466e-09 0 0
0.00262653 0 0
0 7.12129e-09 0
2.08232e-14 9.17006e-10 0
-3.51968e-09 1.80061e-09 0
-8.33663e-09 1.58537e-09 0
-9.48577e-09 1.05576e-09 0
-3.38355e-09 1.27009e-09 0
-1.38292e-09 1.93096e-09 0
-7.80692e-10 1.80935e-09 0
-8.82828e-10 1.65319e-09 0
-2.32688e-09 1.54938e-09 0
-3.84791e-09 1.07046e-09 0
-4.63849e-09 5.05714e-10 0
-4.83873e-09 1.24563e-10 0
-4.83934e-09 -3.1266e-11 0
-4.87449e-09 -4.35348e-11 0
-4.99196e-09 -6.98603e-12 0
-5.14992e-09 2.38095e-11 0
-5.302e-09 3.5874e-11 0
-5.42464e-09 3.45149e-11 0
-5.5132e-09 2.73018e-11 0
-5.57237e-09 1.91144e-11 0
-5.60956e-09 1.21607e-11 0
-5.63168e-09 7.04424e-12 0
-5.64411e-09 3.6255e-12 0
-5.65064e-09 1.51752e-12 0
-5.65374e-09 3.20447e-13 0
-5.65495e-09 -2.91015e-13 0
-5.65518e-09 -5.51192e-13 0
-5.65496e-09 -6.15704e-13 0
-5.65456e-09 -5.81382e-13 0
-5.65414e-09 -5.049e-13 0
-5.65375e-09 -4.1724e-13 0
-5.65342e-09 -3.33845e-13 0
-5.65315e-09 -2.61266e-13 0
-5.65294e-09 -2.01276e-13 0
-5.65278e-09 -1.533e-13 0
-5.65266e-09 -1.15779e-13 0
-5.65256e-09 -8.689e-14 0
-5.65249e-09 -6.48932e-14 0
-5.65244e-09 -4.82769e-14 0
-5.6524e-09 -3.57944e-14 0
-5.65238e-09 -2.64502e-14 0
-5.65236e-09 -1.94675e-14 0
-5.65234e-09 -1.42477e-14 0
-5.65233e-09 -1.03277e-14 0
-5.65232e-09 -7.34134e-15 0
-5.65232e-09 -5.02694e-15 0
-5.65231e-09 -3.10961e-15 0
-5.65231e-09 -7.14845e-17 0
-5.65232e-09 7.83601e-15 0
0.00708833 -3.20548e-09 0
0 4.32228e-10 0
4.31205e-14 1.06131e-09 0
-1.99317e-09 1.13775e-09 0
-6.06852e-09 -9.1388e-10 0
-5.41372e-09 -1.12077e-09 0
-1.20205e-09 1.29304e-09 0
-2.05273e-09 2.8754e-09 0
-2.32384e-09 1.62495e-09 0
-1.92085e-09 1.90479e-10 0
-2.22399e-09 1.20979e-10 0
-3.15381e-09 4.13107e-10 0
-3.67812e-09 8.30895e-10 0
-3.81699e-09 1.0835e-09 0
-3.80396e-09 1.04089e-09 0
-3.85157e-09 8.48438e-10 0
-4.00812e-09 6.41439e-10 0
-4.21328e-09 4.63347e-10 0
-4.40439e-09 3.2149e-10 0
-4.55264e-09 2.1449e-10 0
-4.65528e-09 1.37697e-10 0
-4.72088e-09 8.50212e-11 0
-4.76025e-09 5.03561e-11 0
-4.78257e-09 2.84209e-11 0
-4.79447e-09 1.50706e-11 0
-4.80034e-09 7.27316e-12 0
-4.8029e-09 2.93034e-12 0
-4.80372e-09 6.56381e-13 0
-4.80372e-09 -4.27455e-13 0
-4.80337e-09 -8.57865e-13 0
-4.80291e-09 -9.50843e-13 0
-4.80247e-09 -8.85348e-13 0
-4.80209e-09 -7.58212e-13 0
-4.80177e-09 -6.18713e-13 0
-4.80152e-09 -4.89614e-13 0
-4.80133e-09 -3.79534e-13 0
-4.80118e-09 -2.89998e-13 0
-4.80107e-09 -2.19319e-13 0
-4.80099e-09 -1.64628e-13 0
-4.80093e-09 -1.22885e-13 0
-4.80089e-09 -9.13281e-14 0
-4.80085e-09 -6.7624e-14 0
-4.80083e-09 -4.98876e-14 0
-4.80081e-09 -3.66316e-14 0
-4.8008e-09 -2.66998e-14 0
-4.80079e-09 -1.9196e-14 0
-4.80078e-09 -1.33555e-14 0
-4.80078e-09 -8.27267e-15 0
-4.80078e-09 -2.84243e-15 0
-4.80078e-09 3.16048e-15 0
-4.80078e-09 9.37313e-15 0
0.00937418 -4.35992e-09 0
0 -9.2191e-09 0
5.14662e-14 2.95447e-10 0
-5.50045e-10 -1.06291e-09 0
-4.22861e-09 -4.38871e-09 0
-3.64289e-09 -5.10327e-09 0
5.74677e-10 -2.07293e-09 0
-8.62118e-10 -3.29766e-14 0
-1.43402e-09 -1.12838e-09 0
-3.46218e-09 -2.76787e-09 0
-3.94971e-09 -2.69341e-09 0
-4.50932e-09 -1.24033e-09 0
-4.78765e-09 4.1659e-10 0
-4.66194e-09 1.44131e-09 0
-4.23771e-09 1.57727e-09 0
-3.82018e-09 1.30783e-09 0
-3.58795e-09 9.80479e-10 0
-3.51933e-09 6.94567e-10 0
-3.53095e-09 4.68157e-10 0
-3.56332e-09 3.00951e-10 0
-3.59098e-09 1.84893e-10 0
-3.60812e-09 1.08536e-10 0
-3.61649e-09 6.05917e-11 0
-3.61933e-09 3.17591e-11 0
-3.61926e-09 1.51562e-11 0
-3.61796e-09 6.04931e-12 0
-3.61632e-09 1.35629e-12 0
-3.61477e-09 -8.4243e-13 0
-3.61346e-09 -1.69654e-12 0
-3.61243e-09 -1.86956e-12 0
-3.61164e-09 -1.72982e-12 0
-3.61105e-09 -1.47261e-12 0
-3.61062e-09 -1.19517e-12 0
-3.6103e-09 -9.41185e-13 0
-3.61007e-09 -7.26401e-13 0
-3.6099e-09 -5.52881e-13 0
-3.60978e-09 -4.16689e-13 0
-3.60969e-09 -3.11831e-13 0
-3.60962e-09 -2.32159e-13 0
-3.60958e-09 -1.72175e-13 0
-3.60954e-09 -1.27297e-13 0
-3.60952e-09 -9.38568e-14 0
-3.6095e-09 -6.89864e-14 0
-3.60949e-09 -5.04767e-14 0
-3.60948e-09 -3.66218e-14 0
-3.60947e-09 -2.60754e-14 0
-3.60947e-09 -1.78023e-14 0
-3.60946e-09 -1.11486e-14 0
-3.60946e-09 -5.68215e-15 0
-3.60946e-09 -6.99079e-16 0
-3.60946e-09 4.56273e-15 0
0.00990659 -3.27831e-09 0
0 -1.78259e-08 0
3.11137e-14 -7.46043e-10 0
-7.35719e-10 -2.60983e-09 0
-4.56791e-09 -4.10925e-09 0
-5.52018e-09 -3.35827e-09 0
-2.19201e-14 -1.11283e-09 0
-2.07099e-13 -2.32055e-13 0
1.95234e-13 -2.20471e-13 0
-1.96074e-09 -1.88253e-09 0
-4.72567e-09 -3.38948e-09 0
-5.21071e-09 -1.85649e-09 0
-5.53088e-09 2.01545e-10 0
-5.63196e-09 1.2904e-09 0
-5.2103e-09 1.33591e-09 0
-4.53862e-09 1.04034e-09 0
-3.98128e-09 7.65655e-10 0
-3.64058e-09 5.42304e-10 0
-3.45846e-09 3.60336e-10 0
-3.36157e-09 2.22104e-10 0
-3.30577e-09 1.26579e-10 0
-3.2705e-09 6.60181e-11 0
-3.2469e-09 3.04087e-11 0
-3.23082e-09 1.09389e-11 0
-3.21992e-09 1.15591e-12 0
-3.21262e-09 -3.17582e-12 0
-3.2078e-09 -4.63412e-12 0
-3.20466e-09 -4.69707e-12 0
-3.20261e-09 -4.16694e-12 0
-3.20129e-09 -3.45367e-12 0
-3.20044e-09 -2.75016e-12 0
-3.19988e-09 -2.1349e-12 0
-3.19952e-09 -1.62943e-12 0
-3.19928e-09 -1.22929e-12 0
-3.19911e-09 -9.19947e-13 0
-3.19901e-09 -6.84554e-13 0
-3.19893e-09 -5.07357e-13 0
-3.19888e-09 -3.74961e-13 0
-3.19884e-09 -2.76549e-13 0
-3.19882e-09 -2.03651e-13 0
-3.1988e-09 -1.49772e-13 0
-3.19879e-09 -1.09987e-13 0
-3.19878e-09 -8.05985e-14 0
-3.19877e-09 -5.8843e-14 0
-3.19877e-09 -4.26724e-14 0
-3.19876e-09 -3.05923e-14 0
-3.19876e-09 -2.15004e-14 0
-3.19876e-09 -1.45258e-14 0
-3.19876e-09 -8.93736e-15 0
-3.19875e-09 -3.99561e-15 0
-3.19875e-09 9.34397e-16 0
0.00999993 -1.50804e-09 0
0 -1.59287e-08 0
1.44938e-14 -1.04336e-09 0
-1.16379e-09 -2.44286e-09 0
-4.84426e-09 -3.32583e-09 0
-6.76556e-09 -3.62515e-09 0
-2.45376e-09 -1.69882e-09 0
-1.98114e-13 1.92659e-13 0
2.58675e-15 -2.58675e-15 0
1.79472e-13 -2.11008e-13 0
-2.28931e-09 -1.48988e-09 0
-4.16493e-09 -1.84308e-09 0
-4.72516e-09 4.57945e-10 0
-5.75047e-09 1.66466e-09 0
-6.00102e-09 1.35359e-09 0
-5.35874e-09 7.64182e-10 0
-4.53415e-09 4.1097e-10 0
-3.93823e-09 2.24904e-10 0
-3.58847e-09 1.11091e-10 0
-3.39379e-09 3.93462e-11 0
-3.28347e-09 -7.65975e-13 0
-3.21897e-09 -1.89488e-11 0
-3.18055e-09 -2.42371e-11 0
-3.15756e-09 -2.31622e-11 0
-3.14387e-09 -1.96189e-11 0
-3.13579e-09 -1.55972e-11 0
-3.13106e-09 -1.19556e-11 0
-3.12834e-09 -8.96731e-12 0
-3.12678e-09 -6.63918e-12 0
-3.12589e-09 -4.87832e-12 0
-3.1254e-09 -3.56938e-12 0
-3.12513e-09 -2.60614e-12 0
-3.12498e-09 -1.9013e-12 0
-3.1249e-09 -1.38705e-12 0
-3.12486e-09 -1.01232e-12 0
-3.12484e-09 -7.39327e-13 0
-3.12483e-09 -5.40365e-13 0
-3.12482e-09 -3.95253e-13 0
-3.12482e-09 -2.89313e-13 0
-3.12482e-09 -2.11887e-13 0
-3.12482e-09 -1.55227e-13 0
-3.12482e-09 -1.13702e-13 0
-3.12482e-09 -8.32152e-14 0
-3.12482e-09 -6.07806e-14 0
-3.12482e-09 -4.42151e-14 0
-3.12482e-09 -3.19115e-14 0
-3.12482e-09 -2.26947e-14 0
-3.12482e-09 -1.5722e-14 0
-3.12482e-09 -1.03461e-14 0
-3.12482e-09 -5.89279e-15 0
-3.12482e-09 -1.70165e-15 0
0.0100114 3.42377e-10 0
0 -1.12668e-08 0
1.54695e-14 -1.04018e-09 0
-1.19187e-09 -2.42325e-09 0
-4.75029e-09 -2.49011e-09 0
-7.08428e-09 -1.9408e-09 0
-5.45587e-09 -1.36165e-09 0
-1.63657e-09 -5.27895e-10 0
-1.9594e-13 1.89387e-13 0
-9.90497e-15 9.90497e-15 0
1.57537e-13 -2.01416e-13 0
-1.61566e-09 -3.01699e-11 0
-2.48053e-09 1.61626e-09 0
-4.86683e-09 2.99148e-09 0
-6.51075e-09 1.8181e-09 0
-6.18534e-09 4.96759e-10 0
-5.06492e-09 -7.42973e-11 0
-4.1729e-09 -2.09961e-10 0
-3.67276e-09 -2.11467e-10 0
-3.42561e-09 -1.79965e-10 0
-3.30687e-09 -1.41284e-10 0
-3.24951e-09 -1.04748e-10 0
-3.22163e-09 -7.45766e-11 0
-3.20818e-09 -5.17381e-11 0
-3.20183e-09 -3.53904e-11 0
-3.19899e-09 -2.40788e-11 0
-3.19785e-09 -1.63948e-11 0
-3.19751e-09 -1.12153e-11 0
-3.19753e-09 -7.72552e-12 0
-3.19769e-09 -5.36419e-12 0
-3.19788e-09 -3.75508e-12 0
-3.19806e-09 -2.64918e-12 0
-3.19822e-09 -1.88229e-12 0
-3.19835e-09 -1.34583e-12 0
-3.19845e-09 -9.67488e-13 0
-3.19853e-09 -6.98713e-13 0
-3.19858e-09 -5.06548e-13 0
-3.19863e-09 -3.68398e-13 0
-3.19866e-09 -2.68609e-13 0
-3.19868e-09 -1.9624e-13 0
-3.1987e-09 -1.43573e-13 0
-3.19872e-09 -1.05123e-13 0
-3.19873e-09 -7.69692e-14 0
-3.19873e-09 -5.62851e-14 0
-3.19874e-09 -4.10289e-14 0
-3.19874e-09 -2.97216e-14 0
-3.19874e-09 -2.1299e-14 0
-3.19875e-09 -1.50294e-14 0
-3.19875e-09 -1.04322e-14 0
-3.19875e-09 -7.04325e-15 0
-3.19875e-09 -4.17982e-15 0
0.00999993 2.13823e-09 0
0 -8.03656e-09 0
1.50748e-14 -1.03017e-09 0
-1.4028e-09 -2.21683e-09 0
-4.78551e-09 -1.97181e-09 0
-6.81897e-09 -1.00692e-09 0
-5.88143e-09 -4.93773e-10 0
-3.79901e-09 -1.11741e-09 0
-1.99109e-09 -8.45404e-10 0
-2.04825e-13 1.73955e-13 0
1.44085e-13 1.76904e-13 0
-1.51348e-14 4.46659e-10 0
-5.36405e-10 3.20939e-09 0
-2.31952e-09 4.8717e-09 0
-4.91347e-09 2.57693e-09 0
-5.77027e-09 2.04275e-10 0
-5.13165e-09 -6.13154e-10 0
-4.33025e-09 -6.24189e-10 0
-3.85858e-09 -4.68392e-10 0
-3.65631e-09 -3.24126e-10 0
-3.5886e-09 -2.15697e-10 0
-3.57447e-09 -1.39837e-10 0
-3.57791e-09 -8.9291e-11 0
-3.58521e-09 -5.67428e-11 0
-3.59196e-09 -3.61879e-11 0
-3.59715e-09 -2.32962e-11 0
-3.60087e-09 -1.51909e-11 0
-3.60347e-09 -1.00502e-11 0
-3.60526e-09 -6.74836e-12 0
-3.60649e-09 -4.59628e-12 0
-3.60735e-09 -3.17185e-12 0
-3.60796e-09 -2.21465e-12 0
-3.60838e-09 -1.56215e-12 0
-3.60868e-09 -1.11151e-12 0
-3.60889e-09 -7.96664e-13 0
-3.60905e-09 -5.74455e-13 0
-3.60916e-09 -4.16274e-13 0
-3.60924e-09 -3.02851e-13 0
-3.6093e-09 -2.21029e-13 0
-3.60934e-09 -1.61704e-13 0
-3.60937e-09 -1.18507e-13 0
-3.60939e-09 -8.69382e-14 0
-3.60941e-09 -6.37895e-14 0
-3.60942e-09 -4.67599e-14 0
-3.60943e-09 -3.4192e-14 0
-3.60943e-09 -2.48909e-14 0
-3.60944e-09 -1.79971e-14 0
-3.60944e-09 -1.2941e-14 0
-3.60944e-09 -9.49671e-15 0
-3.60944e-09 -7.70634e-15 0
-3.60945e-09 -7.1353e-15 0
0.00990659 3.71606e-09 0
0 -7.2093e-09 0
1.56033e-14 -8.94981e-10 0
-1.93146e-09 -1.91e-09 0
-5.21996e-09 -1.60447e-09 0
-6.99147e-09 -7.09215e-10 0
-6.34693e-09 -8.14143e-11 0
-4.63343e-09 -5.20938e-10 0
-3.81306e-09 -2.14473e-09 0
-2.20719e-09 -1.58543e-09 0
-3.39236e-09 2.10568e-17 0
-5.70357e-09 9.52892e-10 0
-4.80822e-09 3.36305e-09 0
-1.90497e-09 4.54317e-09 0
-2.44917e-09 2.79122e-09 0
-4.37818e-09 4.62859e-10 0
-5.00228e-09 -5.45764e-10 0
-4.84735e-09 -6.15801e-10 0
-4.68471e-09 -4.30946e-10 0
-4.64598e-09 -2.63397e-10 0
-4.66884e-09 -1.55437e-10 0
-4.70477e-09 -9.2043e-11 0
-4.73556e-09 -5.55628e-11 0
-4.75772e-09 -3.43901e-11 0
-4.77256e-09 -2.18348e-11 0
-4.78222e-09 -1.41917e-11 0
-4.78845e-09 -9.41538e-12 0
-4.79248e-09 -6.35829e-12 0
-4.79512e-09 -4.35981e-12 0
-4.79687e-09 -3.02894e-12 0
-4.79804e-09 -2.12811e-12 0
-4.79884e-09 -1.50955e-12 0
-4.79939e-09 -1.07945e-12 0
-4.79978e-09 -7.77102e-13 0
-4.80005e-09 -5.62553e-13 0
-4.80025e-09 -4.09086e-13 0
-4.80039e-09 -2.98575e-13 0
-4.80049e-09 -2.18552e-13 0
-4.80056e-09 -1.60338e-13 0
-4.80061e-09 -1.17828e-13 0
-4.80065e-09 -8.6685e-14 0
-4.80068e-09 -6.38073e-14 0
-4.8007e-09 -4.69604e-14 0
-4.80072e-09 -3.45263e-14 0
-4.80073e-09 -2.53344e-14 0
-4.80074e-09 -1.85417e-14 0
-4.80074e-09 -1.35473e-14 0
-4.80075e-09 -9.95036e-15 0
-4.80075e-09 -7.73867e-15 0
-4.80075e-09 -7.74598e-15 0
-4.80076e-09 -1.05388e-14 0
0.00937418 4.41856e-09 0
0 -7.69022e-09 0
1.46629e-14 -5.12551e-10 0
-2.38672e-09 -1.0994e-09 0
-5.33921e-09 -8.91777e-10 0
-6.79529e-09 -4.49948e-10 0
-6.78649e-09 -4.91497e-10 0
-5.79033e-09 -1.05781e-09 0
-5.16784e-09 -1.85937e-09 0
-5.73649e-09 -4.34726e-10 0
-5.79092e-09 2.88904e-09 0
-6.48999e-09 3.39271e-09 0
-4.97243e-09 5.44206e-10 0
-2.648e-09 -1.84992e-09 0
-3.25676e-09 -1.82251e-09 0
-5.23243e-09 -6.70998e-10 0
-6.00178e-09 1.8109e-10 0
-5.89486e-09 3.84814e-10 0
-5.69444e-09 2.76388e-10 0
-5.59928e-09 1.40954e-10 0
-5.57809e-09 5.71361e-11 0
-5.58649e-09 1.70547e-11 0
-5.60184e-09 9.75962e-13 0
-5.6159e-09 -4.20267e-12 0
-5.6267e-09 -5.06163e-12 0
-5.63443e-09 -4.47133e-12 0
-5.63982e-09 -3.55626e-12 0
-5.64354e-09 -2.70286e-12 0
-5.6461e-09 -2.01143e-12 0
-5.64789e-09 -1.48245e-12 0
-5.64914e-09 -1.08813e-12 0
-5.65002e-09 -7.97647e-13 0
-5.65065e-09 -5.84739e-13 0
-5.6511e-09 -4.28941e-13 0
-5.65142e-09 -3.14931e-13 0
-5.65166e-09 -2.31432e-13 0
-5.65183e-09 -1.70211e-13 0
-5.65195e-09 -1.25271e-13 0
-5.65204e-09 -9.22428e-14 0
-5.65211e-09 -6.79438e-14 0
-5.65216e-09 -5.00489e-14 0
-5.65219e-09 -3.68576e-14 0
-5.65222e-09 -2.71241e-14 0
-5.65224e-09 -1.99372e-14 0
-5.65225e-09 -1.46296e-14 0
-5.65226e-09 -1.07205e-14 0
-5.65227e-09 -7.87723e-15 0
-5.65228e-09 -5.88262e-15 0
-5.65228e-09 -4.77763e-15 0
-5.65229e-09 -5.60598e-15 0
-5.65229e-09 -9.99653e-15 0
0.00708833 2.90319e-09 0
0 0 0
7.60679e-15 0 0
-1.23099e-09 0 0
-2.55201e-09 0 0
-3.18689e-09 0 0
-3.31885e-09 0 0
-3.31934e-09 0 0
-3.34586e-09 0 0
-3.52931e-09 0 0
-2.39857e-09 0 0
-7.8644e-10 0 0
-2.28341e-10 0 0
-1.04483e-09 0 0
-2.43133e-09 0 0
-3.35627e-09 0 0
-3.48559e-09 0 0
-3.24986e-09 0 0
-3.02157e-09 0 0
-2.89126e-09 0 0
-2.83371e-09 0 0
-2.81365e-09 0 0
-2.80947e-09 0 0
-2.81088e-09 0 0
-2.81367e-09 0 0
-2.81636e-09 0 0
-2.81853e-09 0 0
-2.82018e-09 0 0
-2.82139e-09 0 0
-2.82228e-09 0 0
-2.82292e-09 0 0
-2.82339e-09 0 0
-2.82373e-09 0 0
-2.82397e-09 0 0
-2.82415e-09 0 0
-2.82428e-09 0 0
-2.82438e-09 0 0
-2.82445e-09 0 0
-2.8245e-09 0 0
-2.82454e-09 0 0
-2.82457e-09 0 0
-2.82459e-09 0 0
-2.8246e-09 0 0
-2.82462e-09 0 0
-2.82462e-09 0 0
-2.82463e-09 0 0
-2.82463e-09 0 0
-2.82464e-09 0 0
-2.82464e-09 0 0
-2.82464e-09 0 0
-2.82465e-09 0 0
0.00262653 0 0
0 0 8.48479e-09
3.10863e-14 0 1.02283e-09
-3.5519e-09 0 2.57491e-09
-9.39615e-09 0 1.78673e-09
-1.46625e-08 0 -3.82445e-09
-3.76302e-09 0 -6.38973e-09
9.82385e-10 0 -3.6469e-09
2.70972e-09 0 -1.53824e-09
2.28344e-09 0 7.21705e-11
3.65177e-10 0 5.29187e-10
-1.65635e-09 0 2.47338e-10
-3.08579e-09 0 -9.46176e-11
-3.92915e-09 0 -2.1581e-10
-4.40731e-09 0 -1.75688e-10
-4.7101e-09 0 -9.39585e-11
-4.95021e-09 0 -3.05267e-11
-5.1595e-09 0 3.42599e-12
-5.33371e-09 0 1.57917e-11
-5.46723e-09 0 1.68214e-11
-5.56213e-09 0 1.35498e-11
-5.6255e-09 0 9.56131e-12
-5.66563e-09 0 6.23174e-12
-5.68985e-09 0 3.8498e-12
-5.70376e-09 0 2.28746e-12
-5.71128e-09 0 1.31901e-12
-5.71504e-09 0 7.42375e-13
-5.71667e-09 0 4.09424e-13
-5.71717e-09 0 2.21897e-13
-5.7171e-09 0 1.18493e-13
-5.7168e-09 0 6.25455e-14
-5.71643e-09 0 3.2798e-14
-5.71607e-09 0 1.72337e-14
-5.71576e-09 0 9.20555e-15
-5.7155e-09 0 5.1073e-15
-5.71529e-09 0 3.01973e-15
-5.71513e-09 0 1.94251e-15
-5.71501e-09 0 1.36412e-15
-5.71492e-09 0 1.02914e-15
-5.71485e-09 0 8.14143e-16
-5.71479e-09 0 6.61368e-16
-5.71475e-09 0 5.45249e-16
-5.71473e-09 0 4.56317e-16
-5.7147e-09 0 3.92455e-16
-5.71469e-09 0 3.5639e-16
-5.71468e-09 0 3.60123e-16
-5.71467e-09 0 4.23514e-16
-5.71466e-09 0 5.05768e-16
-5.71466e-09 0 5.45058e-16
-5.71466e-09 0 1.70869e-15
-5.71467e-09 0 7.74709e-15
0.00707792 0 -2.44386e-09
0.0036 -3.89064e-11 2.02914e-09
0.0036 -0.00147536 -0.000190143
0.00724943 -0.00465871 -0.000967891
0.0150688 -0.008147 -0.00273325
0.0266655 -0.0135249 -0.00503877
0.0464313 -0.00987806 -0.00395362
0.0489704 -0.00049996 -0.000862476
0.0483682 0.00334524 0.000500403
0.0430783 0.00524946 0.000829493
0.0374477 0.00502509 0.0003631
0.0324536 0.00405246 -0.000138846
0.0283457 0.0029783 -0.000365541
0.0252479 0.00204683 -0.000351298
0.023101 0.0013435 -0.000237962
0.0216947 0.000862221 -0.000128862
0.0208024 0.000547403 -5.81985e-05
0.0202494 0.000343352 -2.16169e-05
0.0199142 0.000211874 -5.67257e-06
0.0197154 0.000128321 8.10507e-08
0.0196 7.62323e-05 1.53375e-06
0.0195346 4.442e-05 1.47214e-06
0.0194984 2.53784e-05 1.04046e-06
0.019479 1.42e-05 6.33246e-07
0.0194689 7.76216e-06 3.44221e-07
0.019464 4.12666e-06 1.6521e-07
0.0194618 2.11687e-06 6.44646e-08
0.0194609 1.03263e-06 1.27524e-08
0.0194607 4.65019e-07 -1.07426e-08
0.0194608 1.79561e-07 -1.91641e-08
0.019461 4.42556e-08 -2.01917e-08
0.0194612 -1.3733e-08 -1.80355e-08
0.0194614 -3.36917e-08 -1.4857e-08
0.0194615 -3.6232e-08 -1.16742e-08
0.0194616 -3.17787e-08 -8.90021e-09
0.0194617 -2.53306e-08 -6.64813e-09
0.0194618 -1.90828e-08 -4.89528e-09
0.0194618 -1.38402e-08 -3.56767e-09
0.0194618 -9.76061e-09 -2.58067e-09
0.0194619 -6.73278e-09 -1.85656e-09
0.0194619 -4.55966e-09 -1.33067e-09
0.0194619 -3.0407e-09 -9.52209e-10
0.0194619 -2.00376e-09 -6.82977e-10
0.0194619 -1.31342e-09 -4.95588e-10
0.0194619 -8.68741e-10 -3.71471e-10
0.0194619 -5.97049e-10 -2.9819e-10
0.0194619 -4.57222e-10 -2.74099e-10
0.0194619 -4.38237e-10 -2.91167e-10
0.0194619 -4.99555e-10 -2.07638e-10
0.0194619 -1.38485e-09 -4.84495e-10
0.0194619 -6.11607e-09 -3.9028e-09
0.0194619 -1.00026e-08 -6.94478e-09
0.01 7.31063e-11 -1.63109e-08
0.01 -0.00337924 -0.000647993
0.0150549 -0.0108255 -0.00175914
0.0240605 -0.0184981 -0.00343763
0.0369516 -0.0292099 -0.00440747
0.0562556 -0.0201054 -0.00123863
0.0546251 -0.00125427 0.00191125
0.0549353 0.00585678 0.00231419
0.0493883 0.0107516 0.00205906
0.0436546 0.0106635 0.000987832
0.0387308 0.00931605 -3.30259e-05
0.0345541 0.00745629 -0.000509225
0.0313943 0.00544052 -0.000542591
0.0292868 0.0036723 -0.000383554
0.0279648 0.00235777 -0.000212701
0.0271604 0.00146902 -9.78652e-05
0.0266836 0.000895048 -3.7133e-05
0.0264089 0.000534362 -1.00827e-05
0.0262557 0.000312698 1.43117e-08
0.0261731 0.000179263 2.77714e-06
0.0261304 0.000100528 2.84019e-06
0.0261095 5.49798e-05 2.1609e-06
0.0261002 2.91649e-05 1.45176e-06
0.0260966 1.4857e-05 9.09285e-07
0.0260959 7.12998e-06 5.43891e-07
0.0260963 3.0906e-06 3.1456e-07
0.0260972 1.07114e-06 1.77068e-07
0.026098 1.28495e-07 9.73091e-08
0.0260988 -2.5987e-07 5.22285e-08
0.0260994 -3.76806e-07 2.73128e-08
0.0260999 -3.71102e-07 1.38322e-08
0.0261003 -3.1809e-07 6.70051e-09
0.0261006 -2.53814e-07 3.02578e-09
0.0261008 -1.93932e-07 1.19656e-09
0.0261009 -1.43966e-07 3.30922e-10
0.026101 -1.04715e-07 -4.53212e-11
0.0261011 -7.50249e-08 -1.82325e-10
0.0261011 -5.31361e-08 -2.09112e-10
0.0261012 -3.72962e-08 -1.90341e-10
0.0261012 -2.59952e-08 -1.57197e-10
0.0261012 -1.80253e-08 -1.24021e-10
0.0261012 -1.24631e-08 -9.71509e-11
0.0261012 -8.62503e-09 -7.97132e-11
0.0261012 -6.02125e-09 -7.4242e-11
0.0261012 -4.31384e-09 -7.98701e-11
0.0261012 -3.28661e-09 -9.01133e-11
0.0261012 -2.98834e-09 -1.10001e-10
0.0261012 -4.0397e-09 -4.72297e-11
0.0261013 -6.88801e-09 -5.89223e-10
0.0261013 -1.12915e-08 -5.36873e-09
0.0261013 -1.38327e-08 -9.5288e-09
0.0148 -1.44871e-08 -2.11775e-08
0.0148 -0.00548865 -0.00116351
0.0197215 -0.0164101 -0.00315339
0.0257703 -0.0271288 -0.00515137
0.0301477 -0.0417697 -0.00511712
0.0286471 -0.0255626 -0.000795757
0.0260947 -1.67941e-07 0.00210356
0.0262811 0.00763256 0.00220954
0.0309244 0.0159226 0.00212856
0.0310955 0.015609 0.00119162
0.029755 0.0134314 0.000261647
0.0285127 0.0106751 -0.000264536
0.0277216 0.00760474 -0.000374838
0.0274442 0.00495493 -0.000283768
0.027399 0.0030816 -0.000152098
0.0274259 0.00186752 -5.78412e-05
0.0274704 0.00110706 -9.46621e-06
0.0275162 0.000641242 8.85093e-06
0.0275574 0.000362343 1.25156e-05
0.0275912 0.000199293 1.07118e-05
0.0276172 0.00010624 7.70307e-06
0.0276364 5.44343e-05 5.05597e-06
0.02765 2.63623e-05 3.13512e-06
0.0276594 1.16336e-05 1.86936e-06
0.0276658 4.22835e-06 1.08262e-06
0.0276701 7.34597e-07 6.12528e-07
0.027673 -7.39238e-07 3.39616e-07
0.027675 -1.21756e-06 1.84706e-07
0.0276763 -1.23995e-06 9.84322e-08
0.0276771 -1.0806e-06 5.12148e-08
0.0276777 -8.71751e-07 2.5826e-08
0.0276781 -6.71887e-07 1.24428e-08
0.0276784 -5.02652e-07 5.55994e-09
0.0276786 -3.68337e-07 2.13798e-09
0.0276787 -2.65875e-07 5.22167e-10
0.0276788 -1.89749e-07 -1.75313e-10
0.0276788 -1.34234e-07 -4.22961e-10
0.0276789 -9.43049e-08 -4.62954e-10
0.0276789 -6.58886e-08 -4.17039e-10
0.0276789 -4.58384e-08 -3.4401e-10
0.0276789 -3.17969e-08 -2.70568e-10
0.0276789 -2.20375e-08 -2.07676e-10
0.0276789 -1.53197e-08 -1.58693e-10
0.0276789 -1.07735e-08 -1.22756e-10
0.0276789 -7.83939e-09 -9.7812e-11
0.0276789 -6.25732e-09 -9.23947e-11
0.0276789 -5.88698e-09 -1.48752e-10
0.0276789 -6.46884e-09 -2.52201e-10
0.0276789 -7.85807e-09 -1.14791e-09
0.0276789 -9.80486e-09 -6.03143e-09
0.0276789 -1.08477e-08 -1.00709e-08
0.018 -3.11221e-08 -2.49892e-08
0.018 -0.00658212 -0.00198356
0.0200937 -0.017515 -0.00542111
0.0198899 -0.0227748 -0.00696134
0.0159195 -0.0246552 -0.00663657
-1.85163e-08 -0.0128134 -0.0031128
1.58674e-06 5.20084e-07 1.00454e-08
-6.07602e-07 6.40034e-07 0.000420897
0.00744314 0.00519627 0.000854148
0.0156072 0.0116194 0.000718227
0.018972 0.0120215 0.000339074
0.0205725 0.00972927 -5.15743e-05
0.0223062 0.00672368 -0.000233088
0.0240252 0.00413487 -0.000206681
0.0253928 0.00244469 -0.000107364
0.0263426 0.00142055 -2.63443e-05
0.0269588 0.000805744 1.43208e-05
0.0273468 0.000441077 2.58235e-05
0.0275876 0.000230752 2.36104e-05
0.0277354 0.000113859 1.74176e-05
0.0278252 5.15348e-05 1.15075e-05
0.0278792 1.98617e-05 7.10527e-06
0.0279114 4.75036e-06 4.18936e-06
0.0279305 -1.76875e-06 2.38683e-06
0.0279417 -4.04284e-06 1.32231e-06
0.0279483 -4.36087e-06 7.14052e-07
0.0279522 -3.88164e-06 3.75422e-07
0.0279545 -3.16235e-06 1.91151e-07
0.0279559 -2.45031e-06 9.31201e-08
0.0279567 -1.83929e-06 4.22881e-08
0.0279572 -1.35124e-06 1.67885e-08
0.0279575 -9.77597e-07 4.60176e-09
0.0279576 -6.99303e-07 -7.66322e-10
0.0279577 -4.95925e-07 -2.76323e-09
0.0279578 -3.49318e-07 -3.18176e-09
0.0279579 -2.44714e-07 -2.92959e-09
0.0279579 -1.70669e-07 -2.4488e-09
0.0279579 -1.18586e-07 -1.94168e-09
0.0279579 -8.21445e-08 -1.49052e-09
0.0279579 -5.67668e-08 -1.12015e-09
0.0279579 -3.91763e-08 -8.29917e-10
0.0279579 -2.70518e-08 -6.09592e-10
0.0279579 -1.87702e-08 -4.4757e-10
0.0279579 -1.32188e-08 -3.35295e-10
0.0279579 -9.63069e-09 -2.71039e-10
0.0279579 -7.43415e-09 -2.79918e-10
0.0279579 -6.19209e-09 -4.1745e-10
0.0279579 -5.55851e-09 -6.11997e-10
0.0279579 -5.37554e-09 -1.58355e-09
0.0279579 -5.47665e-09 -6.24383e-09
0.0279579 -5.5554e-09 -1.00182e-08
0.0196 -3.92976e-08 -4.03413e-08
0.0196 -0.00520108 -0.00278866
0.0190895 -0.0117876 -0.00681712
0.0162763 -0.0141801 -0.00733453
0.0116309 -0.0126738 -0.00641293
0.00242799 -0.00508034 -0.00391696
1.20434e-06 -1.10995e-06 -0.000810052
5.0235e-07 -5.0235e-07 -7.35e-10
-5.90595e-07 6.24609e-07 0.000112967
0.00516427 0.00390905 0.000235853
0.0115648 0.00844305 0.000188097
0.0143384 0.00743294 -4.20539e-05
0.0177564 0.00429049 -0.000265139
0.0211173 0.00197745 -0.00027671
0.0237418 0.000819209 -0.000172655
0.0254865 0.000315166 -6.2488e-05
0.0265481 9.60934e-05 1.29794e-06
0.02717 -1.02346e-08 2.3017e-05
0.0275285 -3.75186e-05 2.34907e-05
0.0277333 -4.64553e-05 1.74205e-05
0.027849 -4.28146e-05 1.1221e-05
0.0279139 -3.49441e-05 6.66912e-06
0.0279499 -2.67394e-05 3.7574e-06
0.0279697 -1.97001e-05 2.03195e-06
0.0279805 -1.41785e-05 1.05885e-06
0.0279863 -1.00549e-05 5.2977e-07
0.0279894 -7.06335e-06 2.51037e-07
0.027991 -4.93139e-06 1.08879e-07
0.0279918 -3.42892e-06 3.92319e-08
0.0279922 -2.37759e-06 7.07662e-09
0.0279924 -1.64531e-06 -6.28231e-09
0.0279925 -1.13679e-06 -1.06079e-08
0.0279925 -7.84415e-07 -1.08764e-08
0.0279925 -5.40612e-07 -9.54569e-09
0.0279925 -3.72144e-07 -7.77451e-09
0.0279925 -2.55865e-07 -6.06731e-09
0.0279925 -1.75701e-07 -4.60984e-09
0.0279925 -1.205e-07 -3.44068e-09
0.0279925 -8.25438e-08 -2.53678e-09
0.0279925 -5.64901e-08 -1.85458e-09
0.0279925 -3.86499e-08 -1.34882e-09
0.0279925 -2.64794e-08 -9.80523e-10
0.0279925 -1.82235e-08 -7.20463e-10
0.0279925 -1.26626e-08 -5.5133e-10
0.0279925 -8.93991e-09 -4.65537e-10
0.0279925 -6.44274e-09 -4.72159e-10
0.0279925 -4.70626e-09 -6.09666e-10
0.0279925 -3.32195e-09 -7.92177e-10
0.0279925 -1.99421e-09 -1.73883e-09
0.0279925 -5.67185e-10 -6.25361e-09
0.0279925 1.86756e-10 -9.89597e-09
0.0196 -1.97071e-08 -5.41073e-08
0.0196 -0.00312227 -0.00311961
0.0190394 -0.00654938 -0.00687655
0.0178009 -0.00611906 -0.00690597
0.0142663 -0.00248856 -0.00564621
0.0104697 0.00359877 -0.00404332
0.00660386 0.00339539 -0.00189509
1.20494e-06 -1.01496e-06 -0.000349007
4.24369e-07 -4.24369e-07 -2.01626e-09
-5.70542e-07 6.10648e-07 3.04806e-05
0.00390033 0.00281632 0.000333058
0.00852253 0.00359927 0.000362665
0.0142028 0.000106036 -9.22344e-05
0.0193816 -0.00169229 -0.00035394
0.0231666 -0.00182611 -0.000331337
0.0254521 -0.00134747 -0.000181068
0.0266794 -0.000874256 -6.17857e-05
0.0273105 -0.000548523 -7.43187e-06
0.0276328 -0.00034296 7.95667e-06
0.0277972 -0.000214558 8.69473e-06
0.0278807 -0.000134206 6.02946e-06
0.0279225 -8.3985e-05 3.53705e-06
0.027943 -5.26834e-05 1.88235e-06
0.0279527 -3.32002e-05 9.24954e-07
0.0279571 -2.10563e-05 4.14054e-07
0.0279588 -1.34556e-05 1.5829e-07
0.0279594 -8.66828e-06 3.8734e-08
0.0279594 -5.62944e-06 -1.18107e-08
0.0279592 -3.68395e-06 -2.91831e-08
0.0279589 -2.42755e-06 -3.16846e-08
0.0279587 -1.60934e-06 -2.82795e-08
0.0279585 -1.07235e-06 -2.31404e-08
0.0279584 -7.17491e-07 -1.80613e-08
0.0279582 -4.81597e-07 -1.37009e-08
0.0279582 -3.24016e-07 -1.02049e-08
0.0279581 -2.18337e-07 -7.50881e-09
0.027958 -1.47256e-07 -5.47899e-09
0.027958 -9.93478e-08 -3.97474e-09
0.027958 -6.70209e-08 -2.87208e-09
0.027958 -4.52015e-08 -2.07062e-09
0.027958 -3.04829e-08 -1.49314e-09
0.0279579 -2.05665e-08 -1.08282e-09
0.0279579 -1.38925e-08 -7.99996e-10
0.0279579 -9.39263e-09 -6.18671e-10
0.0279579 -6.32113e-09 -5.2342e-10
0.0279579 -4.13719e-09 -5.2011e-10
0.0279579 -2.4114e-09 -6.49715e-10
0.0279579 -7.02712e-10 -8.15328e-10
0.0279579 1.4711e-09 -1.70196e-09
0.0279579 4.3167e-09 -6.14981e-09
0.0279579 5.89925e-09 -9.77122e-09
0.018 -1.22184e-08 -5.30846e-08
0.018 -0.0014603 -0.00306823
0.018534 -0.00240438 -0.00653042
0.0190288 -0.000805915 -0.00614251
0.0186209 0.00211818 -0.00468408
0.0185995 0.00770844 -0.00333339
0.0190637 0.012752 -0.00188731
0.0117569 0.00702355 -0.000841746
1.23304e-06 -7.9689e-07 -0.000284003
-4.61403e-07 -9.14099e-07 7.96393e-09
1.24687e-07 -0.000204718 0.000891241
0.00946144 -0.00296763 0.00136718
0.0171467 -0.00643244 0.000528908
0.0221341 -0.0067445 -0.000126307
0.0251083 -0.00505071 -0.000357008
0.0266567 -0.00308955 -0.000276334
0.0273447 -0.00172289 -0.00013986
0.0276114 -0.000945934 -5.60038e-05
0.0277002 -0.000526733 -1.95577e-05
0.0277211 -0.000298076 -6.32834e-06
0.0277191 -0.000170778 -2.0162e-06
0.027711 -9.88701e-05 -7.11155e-07
0.0277028 -5.78394e-05 -3.32384e-07
0.0276961 -3.42146e-05 -2.14514e-07
0.0276911 -2.04794e-05 -1.62918e-07
0.0276875 -1.24077e-05 -1.27482e-07
0.0276849 -7.60889e-06 -9.80834e-08
0.0276831 -4.72095e-06 -7.36578e-08
0.0276818 -2.96147e-06 -5.42011e-08
0.027681 -1.87644e-06 -3.9306e-08
0.0276803 -1.19953e-06 -2.8233e-08
0.0276799 -7.72642e-07 -2.01637e-08
0.0276796 -5.00797e-07 -1.43574e-08
0.0276794 -3.26194e-07 -1.0211e-08
0.0276793 -2.13231e-07 -7.26186e-09
0.0276792 -1.39713e-07 -5.16784e-09
0.0276791 -9.16485e-08 -3.68146e-09
0.0276791 -6.01227e-08 -2.62598e-09
0.027679 -3.94048e-08 -1.87623e-09
0.027679 -2.57795e-08 -1.34408e-09
0.027679 -1.68198e-08 -9.68007e-10
0.027679 -1.09286e-08 -7.05666e-10
0.027679 -7.04415e-09 -5.29101e-10
0.027679 -4.44852e-09 -4.21489e-10
0.0276789 -2.63826e-09 -3.73632e-10
0.0276789 -1.23441e-09 -3.94871e-10
0.0276789 8.53137e-11 -5.31614e-10
0.0276789 1.7278e-09 -6.78392e-10
0.0276789 4.43724e-09 -1.44549e-09
0.0276789 8.63718e-09 -5.83538e-09
0.0276789 1.10927e-08 -9.49926e-09
0.0148 -7.52045e-09 -4.59624e-08
0.0148 -0.000556424 -0.00287595
0.0166176 -0.000352055 -0.00586825
0.0189824 0.00155426 -0.005153
0.0211766 0.00432523 -0.00368858
0.0232914 0.00758489 -0.00271413
0.0267466 0.012666 -0.00182508
0.0298057 0.019995 -0.000988813
0.0241841 0.0119386 -0.000133195
0.0246566 1.4625e-14 0.000514969
0.0285871 -0.00705329 0.00158265
0.0335374 -0.0141132 0.00248592
0.0342641 -0.012674 0.00185369
0.0322823 -0.00946742 0.000668165
0.0299293 -0.00610012 -0.000209727
0.0282725 -0.00341111 -0.000408083
0.0273097 -0.00174354 -0.000277393
0.0267796 -0.000870076 -0.000136515
0.0264879 -0.000441157 -5.83007e-05
0.0263251 -0.000229994 -2.33897e-05
0.0262329 -0.000123179 -9.15267e-06
0.0261798 -6.75057e-05 -3.56303e-06
0.0261489 -3.77142e-05 -1.39624e-06
0.0261306 -2.14161e-05 -5.54145e-07
0.0261195 -1.23332e-05 -2.22333e-07
0.0261128 -7.19075e-06 -8.87509e-08
0.0261087 -4.23878e-06 -3.37304e-08
0.026106 -2.52315e-06 -1.077e-08
0.0261044 -1.51474e-06 -1.33078e-09
0.0261033 -9.15868e-07 2.25199e-09
0.0261026 -5.56855e-07 3.28153e-09
0.0261022 -3.39841e-07 3.235e-09
0.0261019 -2.07737e-07 2.78664e-09
0.0261017 -1.26874e-07 2.24147e-09
0.0261015 -7.71905e-08 1.72954e-09
0.0261014 -4.66104e-08 1.29759e-09
0.0261014 -2.78007e-08 9.53797e-10
0.0261013 -1.62709e-08 6.89918e-10
0.0261013 -9.25122e-09 4.92086e-10
0.0261013 -5.02271e-09 3.45759e-10
0.0261013 -2.512e-09 2.37653e-10
0.0261013 -1.04364e-09 1.56112e-10
0.0261013 -1.86165e-10 9.05703e-11
0.0261013 3.45602e-10 3.07231e-11
0.0261012 7.56461e-10 -3.29195e-11
0.0261012 1.22385e-09 -1.18586e-10
0.0261012 1.93529e-09 -2.7195e-10
0.0261012 3.18045e-09 -4.04764e-10
0.0261012 5.88882e-09 -1.03262e-09
0.0261013 1.08472e-08 -5.20894e-09
0.0261013 1.39009e-08 -8.78868e-09
0.01 -1.45036e-08 -4.10399e-08
0.01 -0.000336334 -0.00241856
0.0119889 1.8563e-05 -0.00462266