# vtk DataFile Version 2.0
Tobias Weinzierl: CPU, Manycore and Cluster Computing
ASCII

DATASET STRUCTURED_POINTS
DIMENSIONS  51 11 6

ORIGIN 0 0 0 

SPACING 0.1 0.1 0.1 

POINT_DATA 3366

VECTORS velocity float
0 0 0
2.09331e-15 0 0
-2.68643e-09 0 0
-5.29856e-09 0 0
-5.73163e-09 0 0
-1.53007e-09 0 0
-1.01485e-10 0 0
-1.47044e-10 0 0
-1.12631e-09 0 0
-2.47231e-09 0 0
-3.33216e-09 0 0
-3.58787e-09 0 0
-3.52689e-09 0 0
-3.39888e-09 0 0
-3.31364e-09 0 0
-3.28884e-09 0 0
-3.30335e-09 0 0
-3.33306e-09 0 0
-3.36313e-09 0 0
-3.38741e-09 0 0
-3.40476e-09 0 0
-3.41615e-09 0 0
-3.42316e-09 0 0
-3.42719e-09 0 0
-3.42934e-09 0 0
-3.43037e-09 0 0
-3.43076e-09 0 0
-3.43083e-09 0 0
-3.43073e-09 0 0
-3.43058e-09 0 0
-3.43041e-09 0 0
-3.43026e-09 0 0
-3.43013e-09 0 0
-3.43002e-09 0 0
-3.42994e-09 0 0
-3.42987e-09 0 0
-3.42982e-09 0 0
-3.42978e-09 0 0
-3.42975e-09 0 0
-3.42973e-09 0 0
-3.42971e-09 0 0
-3.4297e-09 0 0
-3.42969e-09 0 0
-3.42969e-09 0 0
-3.42968e-09 0 0
-3.42968e-09 0 0
-3.42967e-09 0 0
-3.42967e-09 0 0
-3.42967e-09 0 0
-3.42968e-09 0 0
0.00275362 0 0
0 7.31979e-09 0
2.12046e-14 1.37791e-09 0
-5.01428e-09 2.45345e-09 0
-1.028e-08 1.82431e-09 0
-1.04376e-08 1.09003e-09 0
-3.40458e-09 1.28984e-09 0
-1.17845e-09 2.08643e-09 0
-9.13646e-10 2.0978e-09 0
-1.56195e-09 1.92856e-09 0
-3.44393e-09 1.63817e-09 0
-4.95206e-09 9.74654e-10 0
-5.56213e-09 3.79801e-10 0
-5.6841e-09 5.85776e-11 0
-5.71396e-09 -4.04175e-11 0
-5.80991e-09 -2.75531e-11 0
-5.97493e-09 1.15411e-11 0
-6.15846e-09 3.68007e-11 0
-6.32058e-09 4.32583e-11 0
-6.44542e-09 3.83355e-11 0
-6.53326e-09 2.92961e-11 0
-6.59118e-09 2.02994e-11 0
-6.62746e-09 1.30236e-11 0
-6.64919e-09 7.77784e-12 0
-6.66164e-09 4.2858e-12 0
-6.66843e-09 2.10888e-12 0
-6.67191e-09 8.35179e-13 0
-6.67352e-09 1.42376e-13 0
-6.67413e-09 -1.97445e-13 0
-6.67424e-09 -3.34641e-13 0
-6.67411e-09 -3.63081e-13 0
-6.6739e-09 -3.38519e-13 0
-6.67368e-09 -2.92402e-13 0
-6.67347e-09 -2.41389e-13 0
-6.6733e-09 -1.93531e-13 0
-6.67316e-09 -1.52103e-13 0
-6.67304e-09 -1.17879e-13 0
-6.67296e-09 -9.0434e-14 0
-6.67289e-09 -6.88611e-14 0
-6.67284e-09 -5.21365e-14 0
-6.6728e-09 -3.92952e-14 0
-6.67277e-09 -2.95003e-14 0
-6.67275e-09 -2.20613e-14 0
-6.67274e-09 -1.64234e-14 0
-6.67272e-09 -1.21486e-14 0
-6.67271e-09 -8.88975e-15 0
-6.67271e-09 -6.36498e-15 0
-6.67271e-09 -4.37806e-15 0
-6.6727e-09 -2.64237e-15 0
-6.6727e-09 7.17107e-16 0
-6.67271e-09 1.02946e-14 0
0.00733906 -3.83347e-09 0
0 6.3304e-10 0
5.1855e-14 1.63972e-09 0
-3.3079e-09 1.9241e-09 0
-7.96574e-09 -4.61038e-10 0
-6.20003e-09 -4.64436e-10 0
-1.45235e-09 1.76853e-09 0
-2.1903e-09 2.86863e-09 0
-2.58237e-09 1.37744e-09 0
-2.36506e-09 3.46411e-11 0
-2.92024e-09 2.5268e-10 0
-3.81619e-09 6.71753e-10 0
-4.16663e-09 1.1065e-09 0
-4.25988e-09 1.28508e-09 0
-4.31323e-09 1.1487e-09 0
-4.45597e-09 8.96391e-10 0
-4.68334e-09 6.59554e-10 0
-4.92513e-09 4.67539e-10 0
-5.1296e-09 3.20109e-10 0
-5.28015e-09 2.11804e-10 0
-5.38138e-09 1.35547e-10 0
-5.44518e-09 8.39315e-11 0
-5.48341e-09 5.02428e-11 0
-5.50532e-09 2.8991e-11 0
-5.51735e-09 1.6018e-11 0
-5.52364e-09 8.35719e-12 0
-5.52672e-09 3.99247e-12 0
-5.52807e-09 1.6088e-12 0
-5.52853e-09 3.78423e-13 0
-5.52858e-09 -2.03326e-13 0
-5.52844e-09 -4.35015e-13 0
-5.52824e-09 -4.88022e-13 0
-5.52804e-09 -4.57521e-13 0
-5.52787e-09 -3.94287e-13 0
-5.52772e-09 -3.23943e-13 0
-5.52761e-09 -2.58312e-13 0
-5.52752e-09 -2.01936e-13 0
-5.52745e-09 -1.55723e-13 0
-5.52739e-09 -1.1893e-13 0
-5.52735e-09 -9.01895e-14 0
-5.52732e-09 -6.80234e-14 0
-5.5273e-09 -5.10714e-14 0
-5.52728e-09 -3.81704e-14 0
-5.52727e-09 -2.83669e-14 0
-5.52726e-09 -2.08936e-14 0
-5.52726e-09 -1.51289e-14 0
-5.52725e-09 -1.04805e-14 0
-5.52725e-09 -6.12397e-15 0
-5.52725e-09 -9.9069e-16 0
-5.52725e-09 5.02025e-15 0
-5.52725e-09 1.15549e-14 0
0.00958451 -4.9187e-09 0
0 -9.05552e-09 0
6.56763e-14 6.65785e-10 0
-1.64313e-09 -7.66818e-10 0
-6.04773e-09 -4.55302e-09 0
-4.3226e-09 -4.84203e-09 0
4.22163e-10 -1.72164e-09 0
-1.11335e-09 -3.12836e-14 0
-1.81577e-09 -1.53173e-09 0
-4.461e-09 -3.46751e-09 0
-4.96442e-09 -2.97245e-09 0
-5.35504e-09 -1.00294e-09 0
-5.39104e-09 8.74621e-10 0
-5.12787e-09 1.81845e-09 0
-4.66883e-09 1.78295e-09 0
-4.29679e-09 1.40399e-09 0
-4.12933e-09 1.02104e-09 0
-4.10582e-09 7.07317e-10 0
-4.13947e-09 4.69001e-10 0
-4.18025e-09 2.98596e-10 0
-4.21063e-09 1.83097e-10 0
-4.22884e-09 1.08293e-10 0
-4.23807e-09 6.17039e-11 0
-4.24186e-09 3.36917e-11 0
-4.24281e-09 1.74096e-11 0
-4.24245e-09 8.275e-12 0
-4.24164e-09 3.35715e-12 0
-4.24076e-09 8.50137e-13 0
-4.23998e-09 -3.23935e-13 0
-4.23935e-09 -7.89933e-13 0
-4.23886e-09 -8.99747e-13 0
-4.2385e-09 -8.45345e-13 0
-4.23822e-09 -7.27436e-13 0
-4.23802e-09 -5.96023e-13 0
-4.23787e-09 -4.73778e-13 0
-4.23776e-09 -3.69203e-13 0
-4.23769e-09 -2.83853e-13 0
-4.23763e-09 -2.16188e-13 0
-4.23758e-09 -1.63552e-13 0
-4.23755e-09 -1.23122e-13 0
-4.23753e-09 -9.23281e-14 0
-4.23751e-09 -6.89972e-14 0
-4.2375e-09 -5.13642e-14 0
-4.23749e-09 -3.80223e-14 0
-4.23749e-09 -2.7847e-14 0
-4.23748e-09 -1.99183e-14 0
-4.23748e-09 -1.35226e-14 0
-4.23748e-09 -8.22989e-15 0
-4.23747e-09 -3.7109e-15 0
-4.23747e-09 7.32629e-16 0
-4.23747e-09 5.82046e-15 0
0.0100663 -3.6014e-09 0
0 -1.75305e-08 0
4.58531e-14 -6.15356e-10 0
-1.74366e-09 -2.62993e-09 0
-6.39402e-09 -4.45601e-09 0
-6.55128e-09 -3.53639e-09 0
-2.41491e-14 -1.09499e-09 0
-2.45392e-13 -2.70539e-13 0
2.28087e-13 -2.59211e-13 0
-2.53158e-09 -2.25832e-09 0
-5.7e-09 -3.84e-09 0
-6.03395e-09 -1.76937e-09 0
-6.29087e-09 5.52864e-10 0
-6.3084e-09 1.57298e-09 0
-5.76247e-09 1.47906e-09 0
-5.05188e-09 1.12574e-09 0
-4.52619e-09 8.22594e-10 0
-4.22508e-09 5.74756e-10 0
-4.06749e-09 3.76713e-10 0
-3.98283e-09 2.31281e-10 0
-3.93331e-09 1.33578e-10 0
-3.90196e-09 7.25965e-11 0
-3.88125e-09 3.67541e-11 0
-3.86745e-09 1.67838e-11 0
-3.8583e-09 6.25138e-12 0
-3.85233e-09 1.06254e-12 0
-3.84847e-09 -1.23599e-12 0
-3.84601e-09 -2.04793e-12 0
-3.84445e-09 -2.14507e-12 0
-3.84345e-09 -1.93514e-12 0
-3.84282e-09 -1.62351e-12 0
-3.84242e-09 -1.30678e-12 0
-3.84216e-09 -1.02512e-12 0
-3.84199e-09 -7.90796e-13 0
-3.84188e-09 -6.03203e-13 0
-3.84181e-09 -4.56587e-13 0
-3.84176e-09 -3.43779e-13 0
-3.84172e-09 -2.57888e-13 0
-3.8417e-09 -1.92949e-13 0
-3.84168e-09 -1.44079e-13 0
-3.84167e-09 -1.07407e-13 0
-3.84166e-09 -7.99241e-14 0
-3.84165e-09 -5.9319e-14 0
-3.84165e-09 -4.38335e-14 0
-3.84164e-09 -3.21477e-14 0
-3.84164e-09 -2.32864e-14 0
-3.84164e-09 -1.65057e-14 0
-3.84164e-09 -1.11825e-14 0
-3.84163e-09 -6.76517e-15 0
-3.84163e-09 -2.62795e-15 0
-3.84163e-09 1.73916e-15 0
0.0101432 -1.65953e-09 0
0 -1.56744e-08 0
2.81907e-14 -1.08431e-09 0
-2.07551e-09 -2.62991e-09 0
-6.6182e-09 -3.60566e-09 0
-8.02595e-09 -3.84472e-09 0
-2.73544e-09 -1.78466e-09 0
-2.33998e-13 2.28166e-13 0
-7.21526e-17 7.21525e-17 0
2.10059e-13 -2.46123e-13 0
-2.6842e-09 -1.63557e-09 0
-4.63264e-09 -1.76215e-09 0
-5.53864e-09 9.16122e-10 0
-6.74141e-09 1.9411e-09 0
-6.77434e-09 1.39854e-09 0
-5.93636e-09 7.78518e-10 0
-5.08157e-09 4.42834e-10 0
-4.51865e-09 2.56319e-10 0
-4.19886e-09 1.35834e-10 0
-4.02119e-09 5.97994e-11 0
-3.92007e-09 1.72371e-11 0
-3.86105e-09 -3.17606e-12 0
-3.82617e-09 -1.09474e-11 0
-3.80554e-09 -1.24319e-11 0
-3.79338e-09 -1.12566e-11 0
-3.78628e-09 -9.25198e-12 0
-3.78217e-09 -7.23284e-12 0
-3.7798e-09 -5.49931e-12 0
-3.77846e-09 -4.11632e-12 0
-3.7777e-09 -3.05478e-12 0
-3.77727e-09 -2.25714e-12 0
-3.77703e-09 -1.66474e-12 0
-3.7769e-09 -1.22742e-12 0
-3.77683e-09 -9.05459e-13 0
-3.7768e-09 -6.686e-13 0
-3.77678e-09 -4.94274e-13 0
-3.77677e-09 -3.65836e-13 0
-3.77676e-09 -2.71075e-13 0
-3.77676e-09 -2.01052e-13 0
-3.77676e-09 -1.49224e-13 0
-3.77676e-09 -1.10798e-13 0
-3.77676e-09 -8.22537e-14 0
-3.77676e-09 -6.10055e-14 0
-3.77676e-09 -4.51488e-14 0
-3.77676e-09 -3.32703e-14 0
-3.77676e-09 -2.43148e-14 0
-3.77676e-09 -1.75092e-14 0
-3.77676e-09 -1.22992e-14 0
-3.77676e-09 -8.23187e-15 0
-3.77676e-09 -4.76211e-15 0
-3.77676e-09 -1.36322e-15 0
0.0101519 3.26957e-10 0
0 -1.11171e-08 0
2.68811e-14 -1.18479e-09 0
-2.03549e-09 -2.72276e-09 0
-6.46604e-09 -2.69189e-09 0
-8.36591e-09 -2.04218e-09 0
-6.07255e-09 -1.60469e-09 0
-1.92547e-09 -7.16425e-10 0
-2.32749e-13 2.23589e-13 0
-1.35241e-14 1.35241e-14 0
1.86345e-13 -2.33779e-13 0
-1.75744e-09 4.65167e-10 0
-3.35062e-09 2.52186e-09 0
-6.42104e-09 3.36648e-09 0
-7.75466e-09 1.66596e-09 0
-6.89022e-09 3.39058e-10 0
-5.58662e-09 -1.12233e-10 0
-4.71648e-09 -1.92082e-10 0
-4.26462e-09 -1.79473e-10 0
-4.04675e-09 -1.46945e-10 0
-3.94187e-09 -1.11563e-10 0
-3.89056e-09 -8.01211e-11 0
-3.86517e-09 -5.53723e-11 0
-3.85257e-09 -3.73848e-11 0
-3.84635e-09 -2.49551e-11 0
-3.84335e-09 -1.66182e-11 0
-3.84196e-09 -1.11103e-11 0
-3.84137e-09 -7.48876e-12 0
-3.84116e-09 -5.10166e-12 0
-3.84114e-09 -3.51651e-12 0
-3.84118e-09 -2.45276e-12 0
-3.84126e-09 -1.73014e-12 0
-3.84133e-09 -1.23295e-12 0
-3.8414e-09 -8.86559e-13 0
-3.84145e-09 -6.42398e-13 0
-3.84149e-09 -4.68479e-13 0
-3.84153e-09 -3.43454e-13 0
-3.84155e-09 -2.52866e-13 0
-3.84157e-09 -1.86794e-13 0
-3.84159e-09 -1.38335e-13 0
-3.8416e-09 -1.02628e-13 0
-3.84161e-09 -7.62101e-14 0
-3.84161e-09 -5.65935e-14 0
-3.84162e-09 -4.19719e-14 0
-3.84162e-09 -3.10284e-14 0
-3.84162e-09 -2.28039e-14 0
-3.84163e-09 -1.66117e-14 0
-3.84163e-09 -1.20024e-14 0
-3.84163e-09 -8.69303e-15 0
-3.84163e-09 -6.34661e-15 0
-3.84163e-09 -4.37418e-15 0
0.0101432 2.2636e-09 0
0 -7.96528e-09 0
2.423e-14 -1.25041e-09 0
-2.23257e-09 -2.59384e-09 0
-6.36587e-09 -2.16136e-09 0
-8.05563e-09 -1.06426e-09 0
-6.55982e-09 -6.54268e-10 0
-4.38309e-09 -1.55543e-09 0
-2.43401e-09 -1.14749e-09 0
-2.43857e-13 2.03324e-13 0
1.67781e-13 2.01731e-13 0
-1.33317e-14 1.1878e-09 0
-9.49526e-10 4.68149e-09 0
-3.86705e-09 5.48732e-09 0
-6.5902e-09 2.14971e-09 0
-6.76728e-09 -2.36104e-10 0
-5.7277e-09 -7.56076e-10 0
-4.87311e-09 -6.19742e-10 0
-4.44447e-09 -4.25624e-10 0
-4.27657e-09 -2.79139e-10 0
-4.22373e-09 -1.78163e-10 0
-4.21341e-09 -1.11395e-10 0
-4.21616e-09 -6.88497e-11 0
-4.22148e-09 -4.24696e-11 0
-4.22621e-09 -2.63545e-11 0
-4.22973e-09 -1.65483e-11 0
-4.23217e-09 -1.05546e-11 0
-4.23383e-09 -6.85281e-12 0
-4.23495e-09 -4.53326e-12 0
-4.23571e-09 -3.05484e-12 0
-4.23622e-09 -2.09495e-12 0
-4.23658e-09 -1.4598e-12 0
-4.23683e-09 -1.03164e-12 0
-4.237e-09 -7.37922e-13 0
-4.23713e-09 -5.33192e-13 0
-4.23722e-09 -3.88466e-13 0
-4.23728e-09 -2.8491e-13 0
-4.23733e-09 -2.10055e-13 0
-4.23737e-09 -1.55491e-13 0
-4.23739e-09 -1.15444e-13 0
-4.23741e-09 -8.58846e-14 0
-4.23743e-09 -6.39667e-14 0
-4.23744e-09 -4.765e-14 0
-4.23744e-09 -3.54614e-14 0
-4.23745e-09 -2.63317e-14 0
-4.23745e-09 -1.94861e-14 0
-4.23746e-09 -1.43734e-14 0
-4.23746e-09 -1.06666e-14 0
-4.23746e-09 -8.34164e-15 0
-4.23746e-09 -7.58063e-15 0
-4.23746e-09 -7.97481e-15 0
0.0100663 4.02842e-09 0
0 -7.20863e-09 0
2.17168e-14 -1.15021e-09 0
-2.81562e-09 -2.32634e-09 0
-6.69061e-09 -1.78529e-09 0
-8.20112e-09 -7.46896e-10 0
-7.14149e-09 -1.95379e-10 0
-5.25052e-09 -7.96207e-10 0
-4.54545e-09 -2.7042e-09 0
-2.89854e-09 -1.96564e-09 0
-4.61648e-09 9.41223e-18 0
-6.76249e-09 1.41809e-09 0
-4.87467e-09 4.69098e-09 0
-2.31372e-09 5.53442e-09 0
-3.72194e-09 2.6007e-09 0
-5.48675e-09 -7.31144e-11 0
-5.746e-09 -8.22284e-10 0
-5.51953e-09 -6.6993e-10 0
-5.39563e-09 -4.06613e-10 0
-5.38665e-09 -2.27727e-10 0
-5.41845e-09 -1.26452e-10 0
-5.45296e-09 -7.15419e-11 0
-5.47927e-09 -4.167e-11 0
-5.49694e-09 -2.50522e-11 0
-5.50818e-09 -1.55262e-11 0
-5.51516e-09 -9.89157e-12 0
-5.51948e-09 -6.45898e-12 0
-5.52217e-09 -4.31144e-12 0
-5.52386e-09 -2.93512e-12 0
-5.52494e-09 -2.03338e-12 0
-5.52565e-09 -1.4304e-12 0
-5.52612e-09 -1.01957e-12 0
-5.52644e-09 -7.34844e-13 0
-5.52666e-09 -5.34506e-13 0
-5.52682e-09 -3.9168e-13 0
-5.52693e-09 -2.88716e-13 0
-5.52701e-09 -2.13798e-13 0
-5.52707e-09 -1.58874e-13 0
-5.52711e-09 -1.18363e-13 0
-5.52714e-09 -8.83392e-14 0
-5.52717e-09 -6.60016e-14 0
-5.52718e-09 -4.93308e-14 0
-5.5272e-09 -3.68581e-14 0
-5.52721e-09 -2.75097e-14 0
-5.52721e-09 -2.05004e-14 0
-5.52722e-09 -1.52635e-14 0
-5.52722e-09 -1.13988e-14 0
-5.52723e-09 -8.672e-15 0
-5.52723e-09 -7.26878e-15 0
-5.52723e-09 -8.28401e-15 0
-5.52723e-09 -1.2404e-14 0
0.0095845 4.98363e-09 0
0 -7.73585e-09 0
1.78397e-14 -6.87964e-10 0
-3.31522e-09 -1.38424e-09 0
-6.72519e-09 -1.02601e-09 0
-8.05743e-09 -5.16083e-10 0
-7.88672e-09 -6.55339e-10 0
-6.80532e-09 -1.34809e-09 0
-6.12837e-09 -2.05198e-09 0
-6.90765e-09 8.76566e-11 0
-7.09799e-09 3.76801e-09 0
-7.55536e-09 3.23156e-09 0
-5.51413e-09 -5.19836e-10 0
-3.45057e-09 -2.52116e-09 0
-4.78967e-09 -1.7133e-09 0
-6.67523e-09 -2.68843e-10 0
-7.09699e-09 4.49761e-10 0
-6.8857e-09 4.74135e-10 0
-6.7003e-09 2.87576e-10 0
-6.62715e-09 1.3604e-10 0
-6.61476e-09 5.38906e-11 0
-6.62352e-09 1.6992e-11 0
-6.63609e-09 2.52335e-12 0
-6.64685e-09 -2.27697e-12 0
-6.6548e-09 -3.32511e-12 0
-6.66034e-09 -3.09097e-12 0
-6.66412e-09 -2.52424e-12 0
-6.66669e-09 -1.95563e-12 0
-6.66844e-09 -1.47965e-12 0
-6.66965e-09 -1.10754e-12 0
-6.67049e-09 -8.25201e-13 0
-6.67109e-09 -6.13841e-13 0
-6.67152e-09 -4.56525e-13 0
-6.67183e-09 -3.39668e-13 0
-6.67205e-09 -2.52884e-13 0
-6.67221e-09 -1.88393e-13 0
-6.67234e-09 -1.40425e-13 0
-6.67242e-09 -1.04712e-13 0
-6.67249e-09 -7.80979e-14 0
-6.67254e-09 -5.82484e-14 0
-6.67258e-09 -4.34338e-14 0
-6.6726e-09 -3.23701e-14 0
-6.67263e-09 -2.41034e-14 0
-6.67264e-09 -1.79258e-14 0
-6.67265e-09 -1.33152e-14 0
-6.67266e-09 -9.89476e-15 0
-6.67267e-09 -7.40682e-15 0
-6.67267e-09 -5.70223e-15 0
-6.67268e-09 -4.95445e-15 0
-6.67268e-09 -6.60406e-15 0
-6.67269e-09 -1.27864e-14 0
0.00733906 3.52129e-09 0
0 0 0
8.74205e-15 0 0
-1.69161e-09 0 0
-3.22205e-09 0 0
-3.84923e-09 0 0
-3.96791e-09 0 0
-4.01242e-09 0 0
-4.01692e-09 0 0
-4.00913e-09 0 0
-2.48153e-09 0 0
-7.92882e-10 0 0
-6.84809e-10 0 0
-2.04107e-09 0 0
-3.58582e-09 0 0
-4.2871e-09 0 0
-4.17952e-09 0 0
-3.85217e-09 0 0
-3.61328e-09 0 0
-3.49106e-09 0 0
-3.44002e-09 0 0
-3.42258e-09 0 0
-3.4187e-09 0 0
-3.41949e-09 0 0
-3.42147e-09 0 0
-3.42341e-09 0 0
-3.42501e-09 0 0
-3.42623e-09 0 0
-3.42713e-09 0 0
-3.4278e-09 0 0
-3.42829e-09 0 0
-3.42865e-09 0 0
-3.42891e-09 0 0
-3.42911e-09 0 0
-3.42925e-09 0 0
-3.42936e-09 0 0
-3.42944e-09 0 0
-3.4295e-09 0 0
-3.42954e-09 0 0
-3.42957e-09 0 0
-3.42959e-09 0 0
-3.42961e-09 0 0
-3.42963e-09 0 0
-3.42964e-09 0 0
-3.42964e-09 0 0
-3.42965e-09 0 0
-3.42965e-09 0 0
-3.42966e-09 0 0
-3.42966e-09 0 0
-3.42966e-09 0 0
-3.42967e-09 0 0
0.00275362 0 0
0 0 8.40549e-09
3.36918e-14 0 1.30852e-09
-5.19142e-09 0 2.84511e-09
-1.17142e-08 0 1.22089e-09
-1.5793e-08 0 -4.85852e-09
-3.13013e-09 0 -6.91999e-09
1.851e-09 0 -3.46945e-09
2.94598e-09 0 -1.07298e-09
1.71573e-09 0 3.96706e-10
-6.9507e-10 0 5.67686e-10
-2.7614e-09 0 1.40905e-10
-4.07225e-09 0 -1.85074e-10
-4.84467e-09 0 -2.47567e-10
-5.32153e-09 0 -1.72826e-10
-5.65581e-09 0 -8.24901e-11
-5.92881e-09 0 -2.18321e-11
-6.15915e-09 0 7.41706e-12
-6.34298e-09 0 1.65198e-11
-6.47939e-09 0 1.60191e-11
-6.57435e-09 0 1.23302e-11
-6.63707e-09 0 8.44257e-12
-6.6767e-09 0 5.37522e-12
-6.70079e-09 0 3.25377e-12
-6.71488e-09 0 1.89623e-12
-6.72278e-09 0 1.07184e-12
-6.727e-09 0 5.90175e-13
-6.7291e-09 0 3.17283e-13
-6.73002e-09 0 1.66698e-13
-6.73032e-09 0 8.5601e-14
-6.73031e-09 0 4.29633e-14
-6.73018e-09 0 2.11061e-14
-6.73e-09 0 1.02104e-14
-6.72982e-09 0 4.94981e-15
-6.72966e-09 0 2.50171e-15
-6.72953e-09 0 1.40746e-15
-6.72943e-09 0 9.34232e-16
-6.72935e-09 0 7.27522e-16
-6.72928e-09 0 6.24459e-16
-6.72923e-09 0 5.56024e-16
-6.72919e-09 0 4.97263e-16
-6.72917e-09 0 4.42113e-16
-6.72915e-09 0 3.93015e-16
-6.72913e-09 0 3.56541e-16
-6.72912e-09 0 3.4134e-16
-6.72911e-09 0 3.64462e-16
-6.7291e-09 0 4.4264e-16
-6.7291e-09 0 5.16549e-16
-6.7291e-09 0 5.62351e-16
-6.7291e-09 0 2.12973e-15
-6.72911e-09 0 9.86611e-15
0.00733108 0 -3.02592e-09
0.0036 1.17708e-09 2.69207e-09
0.00359999 -0.0016244 -0.000308625
0.00752292 -0.00500462 -0.00128568
0.0156737 -0.00845557 -0.00299586
0.0274073 -0.0131821 -0.00483055
0.0465197 -0.00926423 -0.00353552
0.0488331 -0.000303234 -0.000639478
0.0481883 0.00335152 0.000565299
0.0428736 0.00513661 0.000750689
0.0372613 0.00486034 0.000239844
0.0322985 0.0039089 -0.000207946
0.0282514 0.00287948 -0.000361195
0.0252482 0.00198542 -0.00030986
0.0232029 0.00130565 -0.000196361
0.0218827 0.000836551 -0.000101619
0.0210562 0.000527612 -4.43746e-05
0.0205507 0.000327502 -1.60104e-05
0.0202483 0.000199657 -4.05045e-06
0.0200712 0.000119452 1.25026e-07
0.0199697 7.0152e-05 1.11796e-06
0.0199129 4.04547e-05 1.0303e-06
0.0198819 2.29054e-05 6.99191e-07
0.0198654 1.27225e-05 4.02198e-07
0.0198571 6.91879e-06 1.98883e-07
0.019853 3.67098e-06 7.80262e-08
0.0198513 1.88892e-06 1.38872e-08
0.0198506 9.32768e-07 -1.58656e-08
0.0198505 4.33478e-07 -2.66296e-08
0.0198507 1.81786e-07 -2.7859e-08
0.0198508 6.10889e-08 -2.49062e-08
0.019851 7.62446e-09 -2.05836e-08
0.0198512 -1.27297e-08 -1.62415e-08
0.0198513 -1.77606e-08 -1.24395e-08
0.0198514 -1.64255e-08 -9.3373e-09
0.0198515 -1.30175e-08 -6.91039e-09
0.0198515 -9.43669e-09 -5.06273e-09
0.0198516 -6.40379e-09 -3.68186e-09
0.0198516 -4.09236e-09 -2.66323e-09
0.0198516 -2.44775e-09 -1.91899e-09
0.0198516 -1.34043e-09 -1.37939e-09
0.0198516 -6.34359e-10 -9.9116e-10
0.0198517 -2.1346e-10 -7.14944e-10
0.0198517 1.15519e-11 -5.22932e-10
0.0198517 1.04742e-10 -3.96502e-10
0.0198517 1.08804e-10 -3.24221e-10
0.0198517 3.86456e-11 -3.06878e-10
0.0198517 -1.11709e-10 -3.29305e-10
0.0198517 -3.17382e-10 -2.34023e-10
0.0198517 -1.51498e-09 -6.40933e-10
0.0198517 -7.17541e-09 -4.79302e-09
0.0198517 -1.17476e-08 -8.42679e-09
0.01 1.034e-09 -1.43366e-08
0.01 -0.0035828 -0.000782122
0.0151156 -0.0112033 -0.00216917
0.0241439 -0.0186043 -0.00382086
0.0367988 -0.0285371 -0.00442399
0.0559233 -0.019337 -0.00121797
0.0545064 -0.00106993 0.00178443
0.0549296 0.00592708 0.00218075
0.0493024 0.0108134 0.00185419
0.0433989 0.0106524 0.000751127
0.0383487 0.00921961 -0.000176966
0.0341506 0.00726906 -0.000523819
0.0310772 0.00520907 -0.000485044
0.0290886 0.00345916 -0.000317928
0.0278712 0.00219185 -0.000167509
0.0271463 0.00134984 -7.40498e-05
0.0267256 0.000813116 -2.69645e-05
0.0264884 0.000479897 -6.75307e-06
0.0263589 0.000277577 4.99363e-07
0.0262906 0.000157257 2.32873e-06
0.0262563 8.71145e-05 2.23614e-06
0.0262401 4.70274e-05 1.65685e-06
0.0262333 2.45855e-05 1.09429e-06
0.0262311 1.23053e-05 6.76125e-07
0.026231 5.76471e-06 3.994e-07
0.0262317 2.39995e-06 2.28049e-07
0.0262326 7.51756e-07 1.26526e-07
0.0262335 5.24656e-09 6.83088e-08
0.0262343 -2.85317e-07 3.58089e-08
0.0262349 -3.57902e-07 1.81053e-08
0.0262354 -3.3572e-07 8.70145e-09
0.0262357 -2.79921e-07 3.85003e-09
0.0262359 -2.18929e-07 1.44117e-09
0.0262361 -1.64484e-07 3.11347e-10
0.0262362 -1.20212e-07 -1.68549e-10
0.0262363 -8.60944e-08 -3.31693e-10
0.0262364 -6.07018e-08 -3.50294e-10
0.0262364 -4.22615e-08 -3.10601e-10
0.0262365 -2.91157e-08 -2.53927e-10
0.0262365 -1.9883e-08 -1.98775e-10
0.0262365 -1.3483e-08 -1.52634e-10
0.0262365 -9.10439e-09 -1.18202e-10
0.0262365 -6.15668e-09 -9.67803e-11
0.0262365 -4.22509e-09 -8.98672e-11
0.0262365 -3.0316e-09 -9.63601e-11
0.0262365 -2.41678e-09 -1.12741e-10
0.0262365 -2.51537e-09 -1.40184e-10
0.0262365 -4.06279e-09 -6.53223e-11
0.0262365 -7.51361e-09 -7.69287e-10
0.0262366 -1.25577e-08 -6.42595e-09
0.0262366 -1.54245e-08 -1.12866e-08
0.0148 -1.42617e-08 -1.88862e-08
0.0148 -0.00562456 -0.00128942
0.0195806 -0.016563 -0.00353104
0.0255432 -0.0268219 -0.00541722
0.0298508 -0.0409294 -0.00499666
0.028368 -0.0250462 -0.00078135
0.0260553 -1.65362e-07 0.00189973
0.0263387 0.00775982 0.00202755
0.0311155 0.0161945 0.00192436
0.0311684 0.0158111 0.000996433
0.0297289 0.013431 0.000139054
0.0284492 0.0104634 -0.000287364
0.0276699 0.00728418 -0.000338645
0.0274006 0.00465376 -0.000236709
0.0273533 0.00284927 -0.000119167
0.0273785 0.0017019 -4.19437e-05
0.0274243 0.000994205 -4.72937e-06
0.0274721 0.000567397 8.36825e-06
0.0275143 0.000315868 1.03852e-05
0.027548 0.00017108 8.53787e-06
0.0275734 8.96828e-05 6.00412e-06
0.0275916 4.50382e-05 3.88036e-06
0.0276043 2.12214e-05 2.37731e-06
0.027613 8.94355e-06 1.40316e-06
0.0276188 2.90594e-06 8.05191e-07
0.0276227 1.4887e-07 4.51532e-07
0.0276253 -9.4558e-07 2.48037e-07
0.027627 -1.24088e-06 1.33483e-07
0.0276282 -1.18449e-06 7.02112e-08
0.027629 -9.99206e-07 3.58925e-08
0.0276295 -7.89414e-07 1.76336e-08
0.0276298 -5.99022e-07 8.13862e-09
0.0276301 -4.42392e-07 3.34728e-09
0.0276302 -3.20445e-07 1.03333e-09
0.0276303 -2.28765e-07 -6.1156e-12
0.0276304 -1.61474e-07 -4.10817e-10
0.0276305 -1.12939e-07 -5.14636e-10
0.0276305 -7.83956e-08 -4.87543e-10
0.0276305 -5.40713e-08 -4.13095e-10
0.0276305 -3.70985e-08 -3.3023e-10
0.0276306 -2.53562e-08 -2.55584e-10
0.0276306 -1.7309e-08 -1.95209e-10
0.0276306 -1.18673e-08 -1.5029e-10
0.0276306 -8.2803e-09 -1.19473e-10
0.0276306 -6.08706e-09 -1.02091e-10
0.0276306 -5.10361e-09 -1.10734e-10
0.0276306 -5.23005e-09 -1.834e-10
0.0276306 -6.23308e-09 -2.81785e-10
0.0276306 -8.03592e-09 -1.32982e-09
0.0276306 -1.04769e-08 -7.03622e-09
0.0276306 -1.17964e-08 -1.17342e-08
0.018 -3.12088e-08 -2.35183e-08
0.018 -0.00657378 -0.00209534
0.0199621 -0.0174024 -0.00570928
0.0198161 -0.0224682 -0.00711707
0.0159603 -0.024197 -0.00636299
-1.72291e-08 -0.0125574 -0.00285987
1.6053e-06 5.41005e-07 9.1519e-09
-6.24363e-07 6.5904e-07 0.000383628
0.00759854 0.00537324 0.00076871
0.0159261 0.0118832 0.000632163
0.0192436 0.0120585 0.000282711
0.02083 0.00953198 -6.40681e-05
0.0225586 0.00643191 -0.000208614
0.0242259 0.00388515 -0.000171025
0.0255126 0.00226544 -8.08493e-05
0.0263897 0.00129505 -1.45722e-05
0.0269541 0.000719638 1.55305e-05
0.0273077 0.000384908 2.23495e-05
0.0275258 0.000196315 1.92405e-05
0.0276586 9.39896e-05 1.37497e-05
0.0277385 4.07319e-05 8.89566e-06
0.0277862 1.43615e-05 5.40753e-06
0.0278144 2.18836e-06 3.14808e-06
0.027831 -2.78746e-06 1.77343e-06
0.0278407 -4.30081e-06 9.71671e-07
0.0278464 -4.27753e-06 5.18369e-07
0.0278498 -3.67103e-06 2.68486e-07
0.0278517 -2.92698e-06 1.33891e-07
0.0278529 -2.2344e-06 6.31335e-08
0.0278536 -1.65806e-06 2.70077e-08
0.027854 -1.20638e-06 9.2894e-09
0.0278542 -8.65219e-07 1.12983e-09
0.0278544 -6.13786e-07 -2.21353e-09
0.0278545 -4.31681e-07 -3.23438e-09
0.0278545 -3.01474e-07 -3.2136e-09
0.0278546 -2.09294e-07 -2.78831e-09
0.0278546 -1.44552e-07 -2.26025e-09
0.0278546 -9.93812e-08 -1.76066e-09
0.0278546 -6.80488e-08 -1.33713e-09
0.0278546 -4.64355e-08 -9.98523e-10
0.0278546 -3.16145e-08 -7.376e-10
0.0278546 -2.15287e-08 -5.42227e-10
0.0278546 -1.47524e-08 -4.011e-10
0.0278546 -1.03175e-08 -3.06976e-10
0.0278546 -7.56097e-09 -2.61125e-10
0.0278546 -5.98799e-09 -2.9354e-10
0.0278546 -5.22683e-09 -4.50703e-10
0.0278546 -4.99058e-09 -6.30802e-10
0.0278546 -5.18338e-09 -1.7287e-09
0.0278546 -5.69658e-09 -7.18647e-09
0.0278546 -5.99646e-09 -1.16117e-08
0.0196 -3.86843e-08 -3.93373e-08
0.0196 -0.00512698 -0.0028706
0.0190705 -0.0116421 -0.0070473
0.0163509 -0.0138904 -0.00750227
0.0118199 -0.0122563 -0.00622654
0.00256482 -0.0048811 -0.00363039
1.22117e-06 -1.12652e-06 -0.000729391
5.02158e-07 -5.02158e-07 -7.7098e-10
-6.05969e-07 6.42757e-07 9.59451e-05
0.00534659 0.00401868 0.000203813
0.0118356 0.0085049 0.000163017
0.0146344 0.00722513 -4.84146e-05
0.018137 0.00400221 -0.000245129
0.0214927 0.00178565 -0.00023854
0.024008 0.000725735 -0.000135151
0.0256268 0.00026845 -4.07211e-05
0.0265937 6.96208e-05 7.58475e-06
0.0271538 -1.43419e-05 2.12225e-05
0.0274739 -4.3681e-05 1.94595e-05
0.0276549 -4.77952e-05 1.37802e-05
0.0277564 -4.18355e-05 8.636e-06
0.0278128 -3.31576e-05 5.0346e-06
0.0278439 -2.49008e-05 2.79242e-06
0.0278608 -1.81125e-05 1.48787e-06
0.02787 -1.2917e-05 7.62484e-07
0.0278749 -9.09659e-06 3.73027e-07
0.0278775 -6.35393e-06 1.70539e-07
0.0278789 -4.41395e-06 6.89503e-08
0.0278795 -3.0546e-06 2.03621e-08
0.0278799 -2.10791e-06 -1.16069e-09
0.02788 -1.45131e-06 -9.34246e-09
0.0278801 -9.97251e-07 -1.12818e-08
0.0278801 -6.83947e-07 -1.05524e-08
0.0278801 -4.68172e-07 -8.88752e-09
0.0278801 -3.19823e-07 -7.07966e-09
0.0278801 -2.18007e-07 -5.4536e-09
0.02788 -1.48257e-07 -4.11087e-09
0.02788 -1.00571e-07 -3.0536e-09
0.02788 -6.80497e-08 -2.24533e-09
0.02788 -4.59353e-08 -1.63975e-09
0.02788 -3.09578e-08 -1.19332e-09
0.02788 -2.08728e-08 -8.70338e-10
0.02788 -1.41406e-08 -6.45198e-10
0.02788 -9.69674e-09 -5.03677e-10
0.02788 -6.79843e-09 -4.41518e-10
0.02788 -4.91464e-09 -4.73157e-10
0.02788 -3.63655e-09 -6.29604e-10
0.02788 -2.59878e-09 -7.96344e-10
0.02788 -1.55975e-09 -1.86534e-09
0.02788 -4.262e-10 -7.17891e-09
0.02788 1.72479e-10 -1.14767e-08
0.0196 -1.96577e-08 -5.3071e-08
0.0196 -0.00302952 -0.00318699
0.0190559 -0.00632056 -0.00709829
0.017871 -0.0058508 -0.0070991
0.0145065 -0.00225883 -0.00554352
0.0107262 0.00374229 -0.00375287
0.00669321 0.00344138 -0.00171404
1.22182e-06 -1.03122e-06 -0.000316946
4.25251e-07 -4.25251e-07 -2.01083e-09
-5.83852e-07 6.28086e-07 2.54205e-05
0.00401099 0.00274184 0.000321254
0.00868072 0.00328529 0.0003343
0.0145693 -0.000286916 -0.00012701
0.0198637 -0.00185706 -0.000350459
0.0235398 -0.00179504 -0.000289505
0.025644 -0.0012655 -0.000140759
0.0267376 -0.000807599 -4.15532e-05
0.0272922 -0.000503514 -1.82842e-06
0.0275737 -0.00031302 7.64947e-06
0.0277167 -0.000194509 7.09212e-06
0.0277888 -0.000120863 4.65701e-06
0.0278248 -7.52199e-05 2.64747e-06
0.0278423 -4.6991e-05 1.37314e-06
0.0278506 -2.95261e-05 6.54923e-07
0.0278542 -1.86864e-05 2.79387e-07
0.0278557 -1.19206e-05 9.53823e-08
0.0278561 -7.66652e-06 1.19632e-08
0.027856 -4.96914e-06 -2.13023e-08
0.0278558 -3.2438e-06 -3.09539e-08
0.0278556 -2.13071e-06 -3.03799e-08
0.0278554 -1.40682e-06 -2.60438e-08
0.0278552 -9.32668e-07 -2.08885e-08
0.027855 -6.20177e-07 -1.61274e-08
0.0278549 -4.13191e-07 -1.21602e-08
0.0278548 -2.75549e-07 -9.02787e-09
0.0278548 -1.83762e-07 -6.63252e-09
0.0278547 -1.22446e-07 -4.83752e-09
0.0278547 -8.14572e-08 -3.51056e-09
0.0278547 -5.40667e-08 -2.53907e-09
0.0278547 -3.57904e-08 -1.83345e-09
0.0278547 -2.36284e-08 -1.32559e-09
0.0278547 -1.55658e-08 -9.65923e-10
0.0278546 -1.02423e-08 -7.20344e-10
0.0278546 -6.73059e-09 -5.67276e-10
0.0278546 -4.38461e-09 -4.96135e-10
0.0278546 -2.73268e-09 -5.19498e-10
0.0278546 -1.3881e-09 -6.70293e-10
0.0278546 6.7389e-11 -8.20746e-10
0.0278546 2.08468e-09 -1.83341e-09
0.0278546 4.80138e-09 -7.09603e-09
0.0278546 6.31496e-09 -1.13848e-08
0.018 -1.20985e-08 -5.21407e-08
0.018 -0.00134785 -0.00313735
0.0185672 -0.00214686 -0.00673787
0.019168 -0.000556811 -0.00633597
0.0188689 0.0022637 -0.00465987
0.0188469 0.0077529 -0.00314192
0.0192557 0.0128033 -0.00172492
0.0118726 0.00707189 -0.000773714
1.25043e-06 -8.12005e-07 -0.00026625
-4.73334e-07 -9.2964e-07 7.71577e-09
1.2647e-07 -0.000291349 0.000901465
0.00948055 -0.00341504 0.00132193
0.0172167 -0.00704403 0.000399467
0.0223228 -0.0069706 -0.000218198
0.0252945 -0.00489369 -0.000352922
0.0267478 -0.00285057 -0.000231928
0.0273547 -0.00155275 -0.000105519
0.0275797 -0.00084668 -3.91735e-05
0.0276522 -0.00047051 -1.29155e-05
0.0276684 -0.000265752 -3.97655e-06
0.027666 -0.000151937 -1.21561e-06
0.0276588 -8.78006e-05 -4.29744e-07
0.0276517 -5.12896e-05 -2.19387e-07
0.0276458 -3.03034e-05 -1.57645e-07
0.0276414 -1.81156e-05 -1.27529e-07
0.0276382 -1.09582e-05 -1.02805e-07
0.0276359 -6.70537e-06 -8.02835e-08
0.0276343 -4.14786e-06 -6.08418e-08
0.0276332 -2.59143e-06 -4.50838e-08
0.0276324 -1.63326e-06 -3.28983e-08
0.0276318 -1.037e-06 -2.37709e-08
0.0276315 -6.62296e-07 -1.70741e-08
0.0276312 -4.24801e-07 -1.2224e-08
0.027631 -2.73188e-07 -8.7384e-09
0.0276309 -1.7585e-07 -6.24413e-09
0.0276308 -1.13102e-07 -4.46293e-09
0.0276307 -7.25529e-08 -3.1919e-09
0.0276307 -4.63295e-08 -2.28507e-09
0.0276306 -2.93879e-08 -1.63831e-09
0.0276306 -1.84738e-08 -1.17789e-09
0.0276306 -1.14743e-08 -8.52149e-10
0.0276306 -7.00865e-09 -6.25657e-10
0.0276306 -4.16599e-09 -4.75436e-10
0.0276306 -2.33389e-09 -3.88349e-10
0.0276306 -1.08245e-09 -3.59333e-10
0.0276306 -8.28836e-11 -4.04391e-10
0.0276306 9.5938e-10 -5.62248e-10
0.0276306 2.45622e-09 -6.94925e-10
0.0276306 5.17486e-09 -1.59789e-09
0.0276306 9.49566e-09 -6.83789e-09
0.0276306 1.20261e-08 -1.1195e-08
0.0148 -7.66448e-09 -4.50862e-08
0.0148 -0.000439712 -0.00294969
0.016709 -9.60707e-05 -0.0060627
0.0192332 0.00177016 -0.00532149
0.0215267 0.00440812 -0.00369896
0.0236234 0.00756498 -0.00260589
0.0269934 0.0126495 -0.00171487
0.0300298 0.0201026 -0.000930558
0.0243384 0.0120365 -0.000133689
0.0249278 1.48144e-14 0.000499756
0.0291088 -0.00712418 0.00165206
0.0340951 -0.0144382 0.00249744
0.0343793 -0.0131791 0.00162461
0.0320506 -0.00973773 0.000381067
0.0296806 -0.00600455 -0.000323028
0.0281438 -0.00319227 -0.000376855
0.0272881 -0.00157878 -0.000220229
0.0268257 -0.000778147 -9.97474e-05
0.0265728 -0.000394186 -4.04564e-05
0.0264319 -0.000206079 -1.56504e-05
0.0263519 -0.000110677 -5.94396e-06
0.0263058 -6.07381e-05 -2.24808e-06
0.0262787 -3.39167e-05 -8.51746e-07
0.0262626 -1.92123e-05 -3.22101e-07
0.0262529 -1.10149e-05 -1.18917e-07
0.0262469 -6.38041e-06 -4.001e-08
0.0262432 -3.72833e-06 -9.3524e-09
0.0262409 -2.19429e-06 2.11249e-09
0.0262394 -1.29844e-06 5.79708e-09
0.0262384 -7.7086e-07 6.34181e-09
0.0262378 -4.57942e-07 5.6973e-09
0.0262374 -2.71317e-07 4.69784e-09
0.0262371 -1.59617e-07 3.69337e-09
0.0262369 -9.2687e-08 2.81685e-09
0.0262368 -5.26611e-08 2.10358e-09
0.0262367 -2.88662e-08 1.54674e-09
0.0262366 -1.48789e-08 1.12371e-09
0.0262366 -6.81035e-09 8.0829e-10
0.0262366 -2.29561e-09 5.76019e-10
0.0262366 1.07536e-10 4.05986e-10
0.0262366 1.28051e-09 2.80961e-10
0.0262366 1.76409e-09 1.86692e-10
0.0262365 1.89443e-09 1.10732e-10
0.0262365 1.88936e-09 4.12969e-11
0.0262365 1.90734e-09 -3.33621e-11
0.0262365 2.09548e-09 -1.36587e-10
0.0262365 2.62468e-09 -3.08358e-10
0.0262365 3.80688e-09 -4.30143e-10
0.0262365 6.68604e-09 -1.198e-09
0.0262365 1.21238e-08 -6.25004e-09
0.0262365 1.54912e-08 -1.05474e-08
0.01 -1.46256e-08 -4.03741e-08
0.01 -0.00025656 -0.00249241
0.0121723 0.000175831 -0.00478165
0.0153821 0.00145316 -0.00375996
0.018936 0.00306496 -0.00239958