# vtk DataFile Version 2.0
Tobias Weinzierl: CPU, Manycore and Cluster Computing
ASCII

DATASET STRUCTURED_POINTS
DIMENSIONS  51 11 6

ORIGIN 0 0 0 

SPACING 0.1 0.1 0.1 

POINT_DATA 3366

VECTORS velocity float
0 0 0
-1.351e-14 0 0
-9.75743e-09 0 0
-1.26639e-08 0 0
-1.16456e-08 0 0
-7.64705e-09 0 0
-1.01362e-08 0 0
-1.22449e-08 0 0
-1.31389e-08 0 0
-1.29027e-08 0 0
-1.24419e-08 0 0
-1.22012e-08 0 0
-1.21804e-08 0 0
-1.22876e-08 0 0
-1.24516e-08 0 0
-1.26242e-08 0 0
-1.27794e-08 0 0
-1.29075e-08 0 0
-1.30079e-08 0 0
-1.30843e-08 0 0
-1.31413e-08 0 0
-1.31834e-08 0 0
-1.32143e-08 0 0
-1.32368e-08 0 0
-1.32533e-08 0 0
-1.32654e-08 0 0
-1.32742e-08 0 0
-1.32806e-08 0 0
-1.32853e-08 0 0
-1.32888e-08 0 0
-1.32913e-08 0 0
-1.32932e-08 0 0
-1.32946e-08 0 0
-1.32956e-08 0 0
-1.32963e-08 0 0
-1.32968e-08 0 0
-1.32972e-08 0 0
-1.32975e-08 0 0
-1.32977e-08 0 0
-1.32979e-08 0 0
-1.3298e-08 0 0
-1.32981e-08 0 0
-1.32982e-08 0 0
-1.32982e-08 0 0
-1.32982e-08 0 0
-1.32983e-08 0 0
-1.32983e-08 0 0
-1.32983e-08 0 0
-1.32983e-08 0 0
-1.32983e-08 0 0
0.00442766 0 0
0 7.73036e-09 0
-4.32661e-15 6.66242e-09 0
-1.88605e-08 9.84574e-09 0
-2.18819e-08 4.35364e-09 0
-1.79733e-08 -2.38907e-10 0
-8.28729e-09 1.30503e-09 0
-1.14292e-08 4.38856e-09 0
-1.43816e-08 2.1284e-09 0
-1.48084e-08 1.60804e-10 0
-1.47983e-08 -6.20582e-10 0
-1.48266e-08 -4.18724e-10 0
-1.55541e-08 -1.03318e-11 0
-1.64877e-08 2.42961e-10 0
-1.73454e-08 3.50095e-10 0
-1.80658e-08 3.69868e-10 0
-1.8639e-08 3.39535e-10 0
-1.90755e-08 2.86634e-10 0
-1.93976e-08 2.29417e-10 0
-1.96307e-08 1.77382e-10 0
-1.97975e-08 1.3411e-10 0
-1.99163e-08 9.9956e-11 0
-2.0001e-08 7.38484e-11 0
-2.00615e-08 5.42823e-11 0
-2.01048e-08 3.97934e-11 0
-2.0136e-08 2.91379e-11 0
-2.01586e-08 2.13303e-11 0
-2.01749e-08 1.56185e-11 0
-2.01869e-08 1.14415e-11 0
-2.01956e-08 8.38593e-12 0
-2.02019e-08 6.14943e-12 0
-2.02066e-08 4.51128e-12 0
-2.021e-08 3.31057e-12 0
-2.02126e-08 2.43e-12 0
-2.02144e-08 1.78388e-12 0
-2.02158e-08 1.30964e-12 0
-2.02168e-08 9.61459e-13 0
-2.02175e-08 7.05783e-13 0
-2.0218e-08 5.18012e-13 0
-2.02184e-08 3.80095e-13 0
-2.02187e-08 2.7878e-13 0
-2.02189e-08 2.04332e-13 0
-2.02191e-08 1.49598e-13 0
-2.02192e-08 1.09321e-13 0
-2.02193e-08 7.9648e-14 0
-2.02194e-08 5.77624e-14 0
-2.02194e-08 4.16567e-14 0
-2.02194e-08 3.01676e-14 0
-2.02195e-08 2.38762e-14 0
-2.02195e-08 2.99327e-14 0
-2.02195e-08 6.65956e-14 0
0.0101833 -1.43684e-08 0
0 6.59299e-10 0
7.15336e-14 8.81904e-09 0
-1.85553e-08 1.23937e-08 0
-1.69768e-08 5.39493e-09 0
-9.54197e-09 -1.61008e-09 0
-1.02954e-08 -4.80112e-10 0
-1.20197e-08 4.23701e-09 0
-1.51838e-08 7.36171e-11 0
-6.18096e-09 -1.21128e-09 0
-3.96982e-09 7.50611e-10 0
-4.39153e-09 2.14486e-09 0
-6.08522e-09 2.75996e-09 0
-7.82783e-09 2.45154e-09 0
-9.1579e-09 1.91584e-09 0
-1.0135e-08 1.44648e-09 0
-1.08333e-08 1.07186e-09 0
-1.13187e-08 7.81427e-10 0
-1.165e-08 5.62718e-10 0
-1.18744e-08 4.02199e-10 0
-1.20266e-08 2.86565e-10 0
-1.21304e-08 2.04204e-10 0
-1.22021e-08 1.45851e-10 0
-1.22522e-08 1.04543e-10 0
-1.22875e-08 7.52373e-11 0
-1.23126e-08 5.43662e-11 0
-1.23307e-08 3.94318e-11 0
-1.23438e-08 2.86933e-11 0
-1.23534e-08 2.09363e-11 0
-1.23604e-08 1.531e-11 0
-1.23655e-08 1.12152e-11 0
-1.23692e-08 8.22636e-12 0
-1.2372e-08 6.03993e-12 0
-1.2374e-08 4.43769e-12 0
-1.23755e-08 3.26199e-12 0
-1.23766e-08 2.39846e-12 0
-1.23774e-08 1.76376e-12 0
-1.2378e-08 1.29704e-12 0
-1.23785e-08 9.53714e-13 0
-1.23788e-08 7.01101e-13 0
-1.2379e-08 5.15189e-13 0
-1.23792e-08 3.78328e-13 0
-1.23793e-08 2.77541e-13 0
-1.23794e-08 2.03296e-13 0
-1.23795e-08 1.48629e-13 0
-1.23796e-08 1.0855e-13 0
-1.23796e-08 7.96681e-14 0
-1.23796e-08 5.98735e-14 0
-1.23796e-08 4.83045e-14 0
-1.23797e-08 4.48263e-14 0
-1.23797e-08 5.07043e-14 0
0.0116197 -1.21079e-08 0
0 -8.72514e-09 0
1.60334e-13 6.70481e-09 0
-2.00901e-08 7.96272e-09 0
-1.66259e-08 2.22242e-09 0
-6.96333e-09 4.9288e-09 0
-9.65513e-09 3.96431e-09 0
-1.07267e-08 6.24812e-15 0
-1.30471e-08 -1.26835e-08 0
-1.84319e-08 -1.58541e-08 0
-1.13511e-08 -1.84813e-09 0
-8.63968e-09 4.08547e-09 0
-8.24158e-09 5.30385e-09 0
-8.60615e-09 4.40376e-09 0
-9.08303e-09 3.19468e-09 0
-9.54684e-09 2.27643e-09 0
-9.9162e-09 1.60843e-09 0
-1.01805e-08 1.12727e-09 0
-1.03614e-08 7.8688e-10 0
-1.04842e-08 5.49626e-10 0
-1.05683e-08 3.85492e-10 0
-1.06269e-08 2.72029e-10 0
-1.06685e-08 1.93281e-10 0
-1.06985e-08 1.38259e-10 0
-1.07203e-08 9.95105e-11 0
-1.07363e-08 7.20023e-11 0
-1.07481e-08 5.23278e-11 0
-1.07568e-08 3.81638e-11 0
-1.07633e-08 2.79105e-11 0
-1.07681e-08 2.04548e-11 0
-1.07717e-08 1.50142e-11 0
-1.07743e-08 1.10332e-11 0
-1.07762e-08 8.11415e-12 0
-1.07777e-08 5.97051e-12 0
-1.07788e-08 4.39459e-12 0
-1.07796e-08 3.23515e-12 0
-1.07801e-08 2.38168e-12 0
-1.07806e-08 1.75323e-12 0
-1.07809e-08 1.29037e-12 0
-1.07811e-08 9.49417e-13 0
-1.07813e-08 6.98224e-13 0
-1.07814e-08 5.13117e-13 0
-1.07815e-08 3.76654e-13 0
-1.07816e-08 2.75988e-13 0
-1.07816e-08 2.01654e-13 0
-1.07817e-08 1.46673e-13 0
-1.07817e-08 1.0595e-13 0
-1.07817e-08 7.61061e-14 0
-1.07817e-08 5.52023e-14 0
-1.07817e-08 4.24105e-14 0
-1.07817e-08 3.60293e-14 0
0.0117341 -7.78311e-09 0
0 -1.58236e-08 0
2.01924e-13 3.12078e-09 0
-2.29216e-08 2.11219e-09 0
-2.04218e-08 -5.92339e-10 0
-1.03319e-08 2.61854e-09 0
-3.48425e-14 2.20226e-09 0
-6.90204e-13 -7.13639e-13 0
6.17882e-13 -7.40726e-13 0
-1.39204e-08 -8.74865e-09 0
-1.82427e-08 -1.05217e-08 0
-1.30101e-08 -7.45553e-11 0
-1.19849e-08 3.98138e-09 0
-1.13308e-08 4.1548e-09 0
-1.08816e-08 3.28932e-09 0
-1.06869e-08 2.43751e-09 0
-1.06072e-08 1.73438e-09 0
-1.05752e-08 1.21003e-09 0
-1.05657e-08 8.41181e-10 0
-1.05676e-08 5.87829e-10 0
-1.05749e-08 4.14413e-10 0
-1.05844e-08 2.94911e-10 0
-1.0594e-08 2.11661e-10 0
-1.06029e-08 1.52992e-10 0
-1.06105e-08 1.11205e-10 0
-1.06169e-08 8.11769e-11 0
-1.0622e-08 5.94442e-11 0
-1.0626e-08 4.3629e-11 0
-1.06291e-08 3.20729e-11 0
-1.06314e-08 2.36036e-11 0
-1.06333e-08 1.73832e-11 0
-1.06346e-08 1.28078e-11 0
-1.06356e-08 9.43891e-12 0
-1.06364e-08 6.95678e-12 0
-1.0637e-08 5.12725e-12 0
-1.06374e-08 3.77846e-12 0
-1.06377e-08 2.784e-12 0
-1.06379e-08 2.05078e-12 0
-1.06381e-08 1.51021e-12 0
-1.06382e-08 1.11168e-12 0
-1.06383e-08 8.17844e-13 0
-1.06384e-08 6.01163e-13 0
-1.06384e-08 4.41284e-13 0
-1.06385e-08 3.23175e-13 0
-1.06385e-08 2.3573e-13 0
-1.06385e-08 1.70795e-13 0
-1.06385e-08 1.22437e-13 0
-1.06385e-08 8.63499e-14 0
-1.06386e-08 5.94593e-14 0
-1.06386e-08 3.96375e-14 0
-1.06386e-08 2.43778e-14 0
0.0117404 -3.74044e-09 0
0 -1.35782e-08 0
2.37357e-13 7.70417e-10 0
-2.44795e-08 7.50403e-11 0
-2.34167e-08 -1.69741e-09 0
-1.47417e-08 -1.98955e-09 0
-5.59336e-09 -9.87524e-10 0
-6.88641e-13 6.46532e-13 0
-2.86501e-14 2.86501e-14 0
5.91181e-13 -6.44584e-13 0
-8.96574e-09 -4.64301e-09 0
-1.10821e-08 -2.88612e-09 0
-1.42622e-08 3.97987e-09 0
-1.40054e-08 3.86306e-09 0
-1.2781e-08 2.85081e-09 0
-1.18737e-08 2.0705e-09 0
-1.13242e-08 1.4622e-09 0
-1.1012e-08 1.02761e-09 0
-1.0839e-08 7.28972e-10 0
-1.07438e-08 5.23482e-10 0
-1.06916e-08 3.79896e-10 0
-1.06631e-08 2.77839e-10 0
-1.06476e-08 2.04255e-10 0
-1.06393e-08 1.50641e-10 0
-1.06349e-08 1.11301e-10 0
-1.06325e-08 8.2307e-11 0
-1.06314e-08 6.08849e-11 0
-1.06308e-08 4.50365e-11 0
-1.06306e-08 3.33054e-11 0
-1.06305e-08 2.46214e-11 0
-1.06305e-08 1.81944e-11 0
-1.06305e-08 1.34395e-11 0
-1.06305e-08 9.92313e-12 0
-1.06305e-08 7.32379e-12 0
-1.06305e-08 5.40319e-12 0
-1.06306e-08 3.98471e-12 0
-1.06306e-08 2.93747e-12 0
-1.06306e-08 2.16461e-12 0
-1.06306e-08 1.5944e-12 0
-1.06306e-08 1.17381e-12 0
-1.06306e-08 8.63594e-13 0
-1.06306e-08 6.3476e-13 0
-1.06306e-08 4.65855e-13 0
-1.06306e-08 3.4102e-13 0
-1.06306e-08 2.48517e-13 0
-1.06306e-08 1.79636e-13 0
-1.06306e-08 1.27896e-13 0
-1.06306e-08 8.84562e-14 0
-1.06306e-08 5.77243e-14 0
-1.06306e-08 3.29523e-14 0
-1.06306e-08 1.16341e-14 0
0.0117407 1.30489e-10 0
0 -9.35057e-09 0
2.48269e-13 -1.41396e-09 0
-2.37706e-08 -2.57071e-09 0
-2.34293e-08 -1.887e-09 0
-1.62783e-08 -1.56206e-09 0
-1.14118e-08 -5.2363e-09 0
-7.3538e-09 -4.40447e-09 0
-6.97741e-13 5.95324e-13 0
-4.14299e-15 4.14299e-15 0
5.93575e-13 -5.88786e-13 0
-4.70486e-09 4.76969e-09 0
-1.78332e-08 7.22833e-09 0
-1.81293e-08 3.4368e-09 0
-1.47014e-08 1.60482e-09 0
-1.26267e-08 1.10033e-09 0
-1.1663e-08 8.44547e-10 0
-1.12063e-08 6.62448e-10 0
-1.09742e-08 5.19355e-10 0
-1.08481e-08 4.04166e-10 0
-1.07753e-08 3.11788e-10 0
-1.0731e-08 2.38557e-10 0
-1.07027e-08 1.81232e-10 0
-1.06839e-08 1.36866e-10 0
-1.0671e-08 1.0286e-10 0
-1.06621e-08 7.69999e-11 0
-1.06557e-08 5.74595e-11 0
-1.06511e-08 4.27691e-11 0
-1.06478e-08 3.17695e-11 0
-1.06454e-08 2.35599e-11 0
-1.06436e-08 1.74482e-11 0
-1.06423e-08 1.29077e-11 0
-1.06413e-08 9.53991e-12 0
-1.06406e-08 7.04538e-12 0
-1.06401e-08 5.19965e-12 0
-1.06397e-08 3.83521e-12 0
-1.06394e-08 2.82732e-12 0
-1.06392e-08 2.08325e-12 0
-1.0639e-08 1.53422e-12 0
-1.06389e-08 1.12925e-12 0
-1.06388e-08 8.30588e-13 0
-1.06388e-08 6.10306e-13 0
-1.06387e-08 4.47735e-13 0
-1.06387e-08 3.27572e-13 0
-1.06387e-08 2.3846e-13 0
-1.06386e-08 1.7191e-13 0
-1.06386e-08 1.21497e-13 0
-1.06386e-08 8.22696e-14 0
-1.06386e-08 5.03915e-14 0
-1.06386e-08 2.28735e-14 0
-1.06386e-08 -2.38232e-15 0
0.0117404 3.98547e-09 0
0 -6.65355e-09 0
1.97435e-13 -3.25602e-09 0
-2.19877e-08 -4.78285e-09 0
-2.20774e-08 -2.3164e-09 0
-1.63225e-08 -1.94514e-09 0
-1.27613e-08 -2.88611e-09 0
-1.32607e-08 -8.52766e-09 0
-9.6578e-09 -6.79712e-09 0
-7.07374e-13 4.83273e-13 0
6.07003e-13 3.86399e-13 0
8.76931e-14 1.37299e-08 0
-1.91648e-08 1.67533e-08 0
-2.07162e-08 2.03215e-09 0
-1.54551e-08 -1.46726e-09 0
-1.26032e-08 -4.68615e-10 0
-1.15965e-08 1.64816e-10 0
-1.12422e-08 3.38788e-10 0
-1.10913e-08 3.47374e-10 0
-1.10085e-08 3.04969e-10 0
-1.09532e-08 2.50588e-10 0
-1.09123e-08 1.98604e-10 0
-1.08811e-08 1.53972e-10 0
-1.08571e-08 1.17669e-10 0
-1.08386e-08 8.90526e-11 0
-1.08245e-08 6.69348e-11 0
-1.08138e-08 5.00621e-11 0
-1.08057e-08 3.73063e-11 0
-1.07996e-08 2.77247e-11 0
-1.0795e-08 2.05609e-11 0
-1.07916e-08 1.52233e-11 0
-1.07891e-08 1.12569e-11 0
-1.07872e-08 8.31533e-12 0
-1.07858e-08 6.1372e-12 0
-1.07847e-08 4.5264e-12 0
-1.0784e-08 3.33633e-12 0
-1.07834e-08 2.45781e-12 0
-1.0783e-08 1.8097e-12 0
-1.07827e-08 1.33182e-12 0
-1.07824e-08 9.79589e-13 0
-1.07823e-08 7.20011e-13 0
-1.07821e-08 5.28691e-13 0
-1.0782e-08 3.87584e-13 0
-1.0782e-08 2.8333e-13 0
-1.07819e-08 2.05994e-13 0
-1.07819e-08 1.48117e-13 0
-1.07819e-08 1.03945e-13 0
-1.07818e-08 6.88179e-14 0
-1.07818e-08 3.87713e-14 0
-1.07818e-08 1.0462e-14 0
-1.07818e-08 -1.77603e-14 0
0.0117341 7.97491e-09 0
0 -6.46696e-09 0
1.21947e-13 -4.29938e-09 0
-1.976e-08 -6.10543e-09 0
-2.0431e-08 -2.33277e-09 0
-1.66709e-08 -1.02384e-09 0
-1.47665e-08 -2.2164e-09 0
-1.409e-08 -4.5491e-09 0
-1.90419e-08 -1.17603e-08 0
-1.80963e-08 -8.93047e-09 0
-1.77114e-08 5.92408e-19 0
-1.49063e-08 1.96234e-08 0
-7.63013e-09 2.34798e-08 0
-8.68849e-09 6.58327e-10 0
-1.09688e-08 -4.77893e-09 0
-1.20542e-08 -1.87543e-09 0
-1.24861e-08 -2.05569e-10 0
-1.26368e-08 2.48798e-10 0
-1.26646e-08 3.08717e-10 0
-1.26413e-08 2.70442e-10 0
-1.26008e-08 2.15943e-10 0
-1.25583e-08 1.66354e-10 0
-1.25201e-08 1.26e-10 0
-1.2488e-08 9.45545e-11 0
-1.24623e-08 7.05564e-11 0
-1.24422e-08 5.24531e-11 0
-1.24267e-08 3.88939e-11 0
-1.24148e-08 2.87857e-11 0
-1.24059e-08 2.12748e-11 0
-1.23992e-08 1.57066e-11 0
-1.23942e-08 1.15859e-11 0
-1.23904e-08 8.54028e-12 0
-1.23876e-08 6.29157e-12 0
-1.23856e-08 4.63261e-12 0
-1.2384e-08 3.40956e-12 0
-1.23829e-08 2.50838e-12 0
-1.23821e-08 1.84467e-12 0
-1.23815e-08 1.35607e-12 0
-1.2381e-08 9.96479e-13 0
-1.23807e-08 7.31897e-13 0
-1.23804e-08 5.37231e-13 0
-1.23802e-08 3.93973e-13 0
-1.23801e-08 2.88464e-13 0
-1.238e-08 2.10602e-13 0
-1.23799e-08 1.52882e-13 0
-1.23799e-08 1.09646e-13 0
-1.23798e-08 7.64663e-14 0
-1.23798e-08 4.94963e-14 0
-1.23798e-08 2.47289e-14 0
-1.23798e-08 -2.82934e-15 0
-1.23798e-08 -3.68413e-14 0
0.0116197 1.21822e-08 0
0 -7.76038e-09 0
5.9387e-14 -3.43537e-09 0
-1.89438e-08 -4.79818e-09 0
-2.20978e-08 -1.85529e-09 0
-2.13236e-08 -6.29279e-10 0
-2.06297e-08 1.41106e-11 0
-2.01104e-08 -1.52e-10 0
-1.97131e-08 -2.61314e-10 0
-2.70717e-08 -1.3743e-09 0
-2.9231e-08 -7.60652e-09 0
-3.34343e-08 -7.61193e-09 0
-1.92196e-08 8.65244e-10 0
-1.74734e-08 4.73127e-09 0
-2.02897e-08 4.00926e-09 0
-2.12738e-08 2.41546e-09 0
-2.12665e-08 1.30519e-09 0
-2.10623e-08 7.11711e-10 0
-2.08655e-08 4.15083e-10 0
-2.07074e-08 2.60486e-10 0
-2.05855e-08 1.72775e-10 0
-2.0493e-08 1.18773e-10 0
-2.04232e-08 8.34658e-11 0
-2.03708e-08 5.94614e-11 0
-2.03317e-08 4.27366e-11 0
-2.03025e-08 3.09e-11 0
-2.02809e-08 2.2435e-11 0
-2.02648e-08 1.63374e-11 0
-2.02529e-08 1.19224e-11 0
-2.02442e-08 8.71375e-12 0
-2.02377e-08 6.37545e-12 0
-2.02329e-08 4.66806e-12 0
-2.02294e-08 3.41959e-12 0
-2.02268e-08 2.50578e-12 0
-2.02249e-08 1.83647e-12 0
-2.02235e-08 1.34601e-12 0
-2.02224e-08 9.86507e-13 0
-2.02217e-08 7.22947e-13 0
-2.02211e-08 5.29701e-13 0
-2.02207e-08 3.87995e-13 0
-2.02204e-08 2.84062e-13 0
-2.02202e-08 2.078e-13 0
-2.022e-08 1.51788e-13 0
-2.02199e-08 1.10555e-13 0
-2.02198e-08 8.00457e-14 0
-2.02197e-08 5.71957e-14 0
-2.02197e-08 3.95767e-14 0
-2.02197e-08 2.4938e-14 0
-2.02196e-08 1.01586e-14 0
-2.02196e-08 -1.33813e-14 0
-2.02197e-08 -6.30848e-14 0
0.0101833 1.42333e-08 0
0 0 0
2.00227e-14 0 0
-9.59669e-09 0 0
-1.21768e-08 0 0
-1.28558e-08 0 0
-1.2806e-08 0 0
-1.19274e-08 0 0
-1.0329e-08 0 0
-8.97553e-09 0 0
-1.15197e-08 0 0
-1.85279e-08 0 0
-2.07077e-08 0 0
-1.9132e-08 0 0
-1.69569e-08 0 0
-1.5409e-08 0 0
-1.45286e-08 0 0
-1.40561e-08 0 0
-1.37928e-08 0 0
-1.36352e-08 0 0
-1.35342e-08 0 0
-1.34663e-08 0 0
-1.34192e-08 0 0
-1.33858e-08 0 0
-1.3362e-08 0 0
-1.33447e-08 0 0
-1.33322e-08 0 0
-1.33231e-08 0 0
-1.33165e-08 0 0
-1.33116e-08 0 0
-1.33081e-08 0 0
-1.33055e-08 0 0
-1.33036e-08 0 0
-1.33022e-08 0 0
-1.33012e-08 0 0
-1.33004e-08 0 0
-1.32998e-08 0 0
-1.32994e-08 0 0
-1.32991e-08 0 0
-1.32989e-08 0 0
-1.32988e-08 0 0
-1.32987e-08 0 0
-1.32986e-08 0 0
-1.32985e-08 0 0
-1.32985e-08 0 0
-1.32984e-08 0 0
-1.32984e-08 0 0
-1.32984e-08 0 0
-1.32984e-08 0 0
-1.32984e-08 0 0
-1.32984e-08 0 0
0.00442767 0 0
0 0 6.45709e-09
2.45287e-14 0 3.09501e-09
-2.02235e-08 0 2.81817e-09
-2.39144e-08 0 -2.46547e-09
-1.88407e-08 0 -4.77796e-09
-4.15696e-09 0 -2.81442e-09
-7.10471e-09 0 2.0928e-10
-1.00449e-08 0 8.74311e-10
-1.18115e-08 0 4.96977e-10
-1.24966e-08 0 -7.64434e-11
-1.33734e-08 0 -2.82729e-10
-1.4604e-08 0 -2.51145e-10
-1.58534e-08 0 -1.56555e-10
-1.69282e-08 0 -7.89517e-11
-1.77936e-08 0 -3.32977e-11
-1.84618e-08 0 -1.1682e-11
-1.89607e-08 0 -3.3333e-12
-1.93241e-08 0 -8.88732e-13
-1.95844e-08 0 -5.5247e-13
-1.97693e-08 0 -7.28604e-13
-1.99001e-08 0 -8.8533e-13
-1.99927e-08 0 -9.1628e-13
-2.00584e-08 0 -8.48323e-13
-2.01052e-08 0 -7.29851e-13
-2.01387e-08 0 -5.97747e-13
-2.01628e-08 0 -4.73245e-13
-2.01802e-08 0 -3.65869e-13
-2.01929e-08 0 -2.78101e-13
-2.02021e-08 0 -2.08821e-13
-2.02088e-08 0 -1.55413e-13
-2.02138e-08 0 -1.14915e-13
-2.02174e-08 0 -8.45661e-14
-2.022e-08 0 -6.20131e-14
-2.0222e-08 0 -4.53561e-14
-2.02234e-08 0 -3.31094e-14
-2.02245e-08 0 -2.41336e-14
-2.02252e-08 0 -1.75712e-14
-2.02258e-08 0 -1.27816e-14
-2.02262e-08 0 -9.28929e-15
-2.02265e-08 0 -6.7441e-15
-2.02268e-08 0 -4.88775e-15
-2.02269e-08 0 -3.53271e-15
-2.02271e-08 0 -2.5429e-15
-2.02271e-08 0 -1.82596e-15
-2.02272e-08 0 -1.33863e-15
-2.02273e-08 0 -1.08279e-15
-2.02273e-08 0 -8.9872e-16
-2.02273e-08 0 6.44064e-16
-2.02273e-08 0 1.13479e-14
-2.02274e-08 0 5.0715e-14
0.0101831 0 -1.22284e-08
0.0036 8.79372e-09 5.0864e-09
0.00359998 -0.00398381 -0.00189798
0.0120211 -0.00830393 -0.00359931
0.0218957 -0.00894932 -0.00292747
0.032546 -0.00943208 -0.00204005
0.0456725 -0.00555258 -0.00099563
0.0467572 -0.000286721 -0.000198655
0.0461937 0.00240393 -3.07042e-07
0.040862 0.00408242 -4.53312e-05
0.0357248 0.00400415 -0.000130685
0.0314379 0.00327032 -0.000116833
0.0283144 0.00237232 -7.61367e-05
0.0262671 0.0015825 -4.26025e-05
0.0250083 0.000994635 -2.15319e-05
0.0242675 0.000597212 -1.00995e-05
0.0238489 0.000344169 -4.50914e-06
0.0236226 0.000190206 -1.97737e-06
0.0235066 0.000100152 -8.91714e-07
0.0234517 4.94301e-05 -4.39755e-07
0.0234291 2.19851e-05 -2.49611e-07
0.0234226 7.83773e-06 -1.63223e-07
0.0234235 1.02603e-06 -1.17484e-07
0.0234274 -1.89305e-06 -8.85182e-08
0.023432 -2.84612e-06 -6.76306e-08
0.0234363 -2.87659e-06 -5.16233e-08
0.0234399 -2.52831e-06 -3.91557e-08
0.0234429 -2.07051e-06 -2.94795e-08
0.0234451 -1.62613e-06 -2.20436e-08
0.0234469 -1.24309e-06 -1.63897e-08
0.0234481 -9.32945e-07 -1.21305e-08
0.0234491 -6.91125e-07 -8.94646e-09
0.0234498 -5.07167e-07 -6.58032e-09
0.0234503 -3.69574e-07 -4.83006e-09
0.0234507 -2.6789e-07 -3.53991e-09
0.0234509 -1.93397e-07 -2.59146e-09
0.0234511 -1.3918e-07 -1.89567e-09
0.0234513 -9.99134e-08 -1.38617e-09
0.0234514 -7.15823e-08 -1.01384e-09
0.0234514 -5.12021e-08 -7.42648e-10
0.0234515 -3.65766e-08 -5.46511e-10
0.0234515 -2.6102e-08 -4.0706e-10
0.0234515 -1.86147e-08 -3.12177e-10
0.0234516 -1.3275e-08 -2.55122e-10
0.0234516 -9.48348e-09 -2.33947e-10
0.0234516 -6.82218e-09 -2.49874e-10
0.0234516 -5.01911e-09 -2.97695e-10
0.0234516 -3.93168e-09 -3.34897e-10
0.0234516 -3.81254e-09 -4.948e-10
0.0234516 -7.76017e-09 -3.5726e-09
0.0234516 -2.34793e-08 -1.74144e-08
0.0234517 -3.55066e-08 -2.83315e-08
0.01 9.80578e-09 1.85838e-09
0.01 -0.00672347 -0.00329423
0.0168416 -0.0149867 -0.00607147
0.0256369 -0.0177726 -0.00452708
0.0357684 -0.0218832 -0.00266217
0.053648 -0.0131497 -0.000784665
0.0530765 -6.01858e-05 0.000326803
0.0536335 0.00612502 0.000362595
0.0455423 0.0106094 9.7315e-05
0.0385038 0.00953258 -0.000181929
0.0336423 0.00748461 -0.000192562
0.0304631 0.00521556 -0.000118953
0.0286354 0.00333073 -6.28904e-05
0.0276495 0.00201217 -2.98052e-05
0.0271388 0.00116541 -1.26529e-05
0.0268885 0.000647756 -4.73043e-06
0.0267761 0.00034357 -1.4426e-06
0.0267334 0.000171449 -2.39606e-07
0.0267239 7.78418e-05 1.16659e-07
0.0267287 2.92546e-05 1.6948e-07
0.0267385 5.58824e-06 1.35016e-07
0.0267489 -4.79715e-06 8.91924e-08
0.0267582 -8.42844e-06 5.32181e-08
0.0267659 -8.84908e-06 2.94489e-08
0.026772 -7.91348e-06 1.51318e-08
0.0267767 -6.54666e-06 7.05084e-09
0.0267802 -5.17738e-06 2.74756e-09
0.0267828 -3.9789e-06 6.04045e-10
0.0267847 -2.99941e-06 -3.62945e-10
0.0267861 -2.2307e-06 -7.20345e-10
0.0267871 -1.64296e-06 -7.81708e-10
0.0267878 -1.20147e-06 -7.13655e-10
0.0267884 -8.73941e-07 -6.00699e-10
0.0267888 -6.33143e-07 -4.82975e-10
0.026789 -4.57275e-07 -3.77488e-10
0.0267892 -3.29465e-07 -2.89738e-10
0.0267894 -2.3693e-07 -2.19922e-10
0.0267895 -1.70129e-07 -1.66141e-10
0.0267896 -1.22015e-07 -1.26042e-10
0.0267896 -8.74261e-08 -9.76457e-11
0.0267897 -6.26031e-08 -7.98499e-11
0.0267897 -4.48237e-08 -7.28088e-11
0.0267897 -3.21308e-08 -7.82632e-11
0.0267897 -2.31388e-08 -9.95332e-11
0.0267897 -1.69122e-08 -1.39951e-10
0.0267897 -1.29508e-08 -1.95047e-10
0.0267898 -1.13904e-08 -2.31304e-10
0.0267898 -1.31477e-08 -4.17156e-10
0.0267898 -1.84471e-08 -3.96799e-09
0.0267898 -2.69962e-08 -1.93421e-08
0.0267898 -3.21156e-08 -3.13449e-08
0.0148 -1.10489e-08 6.28512e-09
0.0148 -0.00785901 -0.00434068
0.0193287 -0.0180866 -0.00813941
0.0246099 -0.0231126 -0.00601123
0.0272325 -0.0344628 -0.00320087
0.0273455 -0.021578 -0.000775139
0.026571 -1.5596e-07 0.000408755
0.0272941 0.0100816 0.000391843
0.0326981 0.0193284 0.000246201
0.0307206 0.0160286 3.77502e-06
0.0284476 0.0114047 -0.000101051
0.0271265 0.0074358 -9.07483e-05
0.0265952 0.00442687 -5.36735e-05
0.0264916 0.00250653 -2.46614e-05
0.0265556 0.00136521 -8.47094e-06
0.0266653 0.000709855 -1.45255e-06
0.0267701 0.00034643 8.7634e-07
0.0268539 0.00015269 1.2736e-06
0.0269157 5.42436e-05 1.04983e-06
0.0269593 7.47096e-06 7.22843e-07
0.0269895 -1.23372e-05 4.54242e-07
0.0270102 -1.87389e-05 2.69723e-07
0.0270244 -1.89397e-05 1.53797e-07
0.0270341 -1.66309e-05 8.4818e-08
0.0270408 -1.36114e-05 4.52979e-08
0.0270454 -1.06902e-05 2.33224e-08
0.0270487 -8.17761e-06 1.14309e-08
0.0270509 -6.14526e-06 5.17959e-09
0.0270525 -4.56082e-06 2.00934e-09
0.0270536 -3.3547e-06 4.82611e-10
0.0270544 -2.45139e-06 -1.91204e-10
0.027055 -1.78256e-06 -4.38341e-10
0.0270554 -1.29142e-06 -4.83608e-10
0.0270557 -9.3296e-07 -4.42385e-10
0.0270559 -6.72517e-07 -3.71671e-10
0.0270561 -4.83942e-07 -2.97978e-10
0.0270562 -3.47766e-07 -2.32371e-10
0.0270562 -2.49631e-07 -1.78447e-10
0.0270563 -1.79028e-07 -1.36522e-10
0.0270563 -1.28307e-07 -1.05831e-10
0.0270564 -9.19188e-08 -8.57217e-11
0.0270564 -6.58619e-08 -7.63961e-11
0.0270564 -4.72672e-08 -7.9468e-11
0.0270564 -3.41094e-08 -9.84074e-11
0.0270564 -2.50136e-08 -1.38336e-10
0.0270564 -1.91106e-08 -2.00125e-10
0.0270564 -1.58273e-08 -2.60022e-10
0.0270564 -1.47781e-08 -4.85636e-10
0.0270564 -1.60686e-08 -3.95128e-09
0.0270564 -1.9498e-08 -1.85732e-08
0.0270564 -2.16362e-08 -2.99311e-08
0.018 -2.90673e-08 1.54509e-09
0.018 -0.0073249 -0.00521869
0.0197922 -0.016682 -0.00993625
0.0205292 -0.0187633 -0.00714155
0.0162766 -0.0203196 -0.00366046
-6.60923e-09 -0.0109135 -0.00123646
1.80653e-06 7.64145e-07 2.90685e-09
-8.07749e-07 8.76148e-07 5.3306e-05
0.0100698 0.00719559 0.000131108
0.0193048 0.0138308 0.000119239
0.021227 0.011134 2.72562e-05
0.0223862 0.00711007 -3.93131e-05
0.0237327 0.00399109 -3.84811e-05
0.0248498 0.00206459 -1.70452e-05
0.0256562 0.000997127 -3.16439e-06
0.0261958 0.000435033 2.16813e-06
0.0265391 0.000155319 3.14225e-06
0.0267505 2.57453e-05 2.58604e-06
0.0268782 -2.77783e-05 1.76427e-06
0.0269546 -4.47589e-05 1.09204e-06
0.0270002 -4.54262e-05 6.35641e-07
0.0270275 -3.97373e-05 3.53528e-07
0.0270439 -3.23529e-05 1.88901e-07
0.0270539 -2.52834e-05 9.66862e-08
0.02706 -1.92589e-05 4.67637e-08
0.0270638 -1.44229e-05 2.06406e-08
0.0270663 -1.06757e-05 7.51958e-09
0.0270679 -7.83677e-06 1.30714e-09
0.0270689 -5.71831e-06 -1.34719e-09
0.0270696 -4.15405e-06 -2.24308e-09
0.02707 -3.00768e-06 -2.32367e-09
0.0270704 -2.17216e-06 -2.06848e-09
0.0270706 -1.56568e-06 -1.71093e-09
0.0270707 -1.12681e-06 -1.35692e-09
0.0270708 -8.09959e-07 -1.04823e-09
0.0270709 -5.81628e-07 -7.95944e-10
0.027071 -4.1732e-07 -5.97575e-10
0.027071 -2.99222e-07 -4.4565e-10
0.027071 -2.1442e-07 -3.31805e-10
0.027071 -1.5358e-07 -2.48677e-10
0.0270711 -1.09973e-07 -1.90767e-10
0.0270711 -7.87553e-08 -1.54972e-10
0.0270711 -5.64562e-08 -1.41141e-10
0.0270711 -4.05951e-08 -1.52852e-10
0.0270711 -2.9402e-08 -1.97656e-10
0.0270711 -2.16105e-08 -2.79305e-10
0.0270711 -1.63312e-08 -3.6184e-10
0.0270711 -1.29509e-08 -5.72416e-10
0.0270711 -1.12321e-08 -3.91925e-09
0.0270711 -1.07773e-08 -1.81395e-08
0.0270711 -1.07627e-08 -2.91909e-08
0.0196 -3.20206e-08 -1.31625e-08
0.0196 -0.00493397 -0.00575451
0.0196802 -0.0105813 -0.0109197
0.0183919 -0.0110043 -0.0076179
0.0139433 -0.00883626 -0.00372658
0.00381909 -0.00347931 -0.0015715
1.41356e-06 -1.31273e-06 -0.000297661
5.04981e-07 -5.04981e-07 -8.48676e-10
-7.78193e-07 8.37306e-07 7.795e-06
0.00719397 0.00485779 3.18187e-05
0.0138267 0.00833151 1.96001e-05
0.0174178 0.00495151 -3.41083e-05
0.0209735 0.00198166 -4.67957e-05
0.0234786 0.000592764 -2.19652e-05
0.0250293 2.28401e-05 -4.31462e-06
0.0259339 -0.00017234 2.39048e-06
0.0264452 -0.000208603 3.49184e-06
0.0267293 -0.000186982 2.75627e-06
0.0268857 -0.000150336 1.78604e-06
0.0269712 -0.000114823 1.04452e-06
0.0270177 -8.53585e-05 5.70562e-07
0.0270429 -6.25066e-05 2.94081e-07
0.0270565 -4.53802e-05 1.41991e-07
0.0270638 -3.27821e-05 6.21595e-08
0.0270677 -2.36124e-05 2.22269e-08
0.0270697 -1.69782e-05 3.48831e-09
0.0270708 -1.21954e-05 -4.401e-09
0.0270713 -8.7543e-06 -6.98017e-09
0.0270715 -6.28148e-06 -7.12962e-09
0.0270717 -4.50577e-06 -6.2986e-09
0.0270717 -3.23122e-06 -5.18389e-09
0.0270717 -2.31668e-06 -4.09644e-09
0.0270717 -1.66061e-06 -3.15563e-09
0.0270717 -1.19007e-06 -2.39028e-09
0.0270717 -8.52652e-07 -1.78985e-09
0.0270717 -6.10751e-07 -1.32965e-09
0.0270717 -4.37364e-07 -9.8256e-10
0.0270717 -3.13115e-07 -7.23972e-10
0.0270717 -2.241e-07 -5.33579e-10
0.0270717 -1.60345e-07 -3.95685e-10
0.0270717 -1.14697e-07 -2.99061e-10
0.0270717 -8.20233e-08 -2.36846e-10
0.0270717 -5.864e-08 -2.06666e-10
0.0270717 -4.18964e-08 -2.10827e-10
0.0270717 -2.98709e-08 -2.55023e-10
0.0270717 -2.11451e-08 -3.38598e-10
0.0270717 -1.46423e-08 -4.20174e-10
0.0270717 -9.53877e-09 -6.17419e-10
0.0270717 -5.33254e-09 -3.92152e-09
0.0270717 -1.68317e-09 -1.80233e-08
0.0270717 5.04937e-11 -2.89873e-08
0.0196 -1.90749e-08 -2.6609e-08
0.0196 -0.00223568 -0.00582618
0.0199452 -0.00448091 -0.0108915
0.0197679 -0.00379645 -0.0075274
0.0169775 -0.000625659 -0.00361019
0.0128201 0.00514939 -0.00173269
0.00783974 0.00422385 -0.000739689
1.41861e-06 -1.20685e-06 -0.000155156
4.28658e-07 -4.28658e-07 -1.15678e-09
-7.48339e-07 8.08047e-07 1.93597e-06
0.00485785 0.000911807 5.07341e-05
0.0122046 -2.07789e-05 -3.10153e-06
0.0190926 -0.00204984 -9.67418e-05
0.0231116 -0.00197958 -6.28038e-05
0.0251263 -0.00145363 -2.24165e-05
0.0261175 -0.000979884 -4.63365e-06
0.0266084 -0.000640482 4.79345e-07
0.026852 -0.000415335 1.2283e-06
0.0269722 -0.000270086 9.19517e-07
0.0270305 -0.000177055 5.3163e-07
0.027058 -0.000117297 2.64912e-07
0.0270702 -7.85927e-05 1.129e-07
0.0270749 -5.32454e-05 3.53195e-08
0.0270763 -3.64417e-05 -3.67184e-10
0.0270761 -2.51653e-05 -1.43944e-08
0.0270754 -1.75109e-05 -1.80261e-08
0.0270746 -1.22616e-05 -1.7127e-08
0.0270738 -8.62969e-06 -1.45863e-08
0.0270732 -6.09815e-06 -1.17375e-08
0.0270726 -4.32284e-06 -9.13536e-09
0.0270722 -3.07179e-06 -6.96181e-09
0.0270719 -2.18678e-06 -5.23189e-09
0.0270717 -1.55886e-06 -3.89455e-09
0.0270715 -1.11233e-06 -2.87986e-09
0.0270714 -7.9424e-07 -2.11963e-09
0.0270713 -5.67369e-07 -1.55508e-09
0.0270713 -4.05408e-07 -1.13864e-09
0.0270712 -2.89713e-07 -8.33304e-10
0.0270712 -2.07031e-07 -6.11061e-10
0.0270712 -1.47924e-07 -4.51415e-10
0.0270711 -1.05654e-07 -3.40137e-10
0.0270711 -7.54058e-08 -2.68487e-10
0.0270711 -5.37224e-08 -2.32892e-10
0.0270711 -3.8107e-08 -2.34803e-10
0.0270711 -2.67267e-08 -2.79386e-10
0.0270711 -1.81883e-08 -3.6546e-10
0.0270711 -1.13566e-08 -4.49843e-10
0.0270711 -5.22913e-09 -6.46545e-10
0.0270711 9.99599e-10 -3.95782e-09
0.0270711 7.53905e-09 -1.81131e-08
0.0270711 1.08572e-08 -2.91218e-08
0.018 -1.21598e-08 -3.03699e-08
0.018 -6.30232e-05 -0.00553562
0.019623 0.00015089 -0.010173
0.0212489 0.00100058 -0.00691175
0.0210677 0.00309358 -0.00334214
0.0206497 0.00809139 -0.00162798
0.0211092 0.0138245 -0.000833311
0.0132241 0.00804003 -0.000369054
1.45223e-06 -9.61474e-07 -9.5921e-05
-6.25905e-07 -1.05217e-06 1.16812e-08
1.0731e-07 -0.00388366 0.00024961
0.0116514 -0.00927701 0.000203487
0.0205715 -0.00889274 -0.000116125
0.0247299 -0.00541732 -0.000102197
0.0262756 -0.00297229 -4.30235e-05
0.026831 -0.00165067 -1.40227e-05
0.0270307 -0.000942174 -4.03791e-06
0.0270971 -0.000550691 -1.06326e-06
0.0271125 -0.000328929 -2.66628e-07
0.0271094 -0.000200682 -8.18404e-08
0.0271005 -0.000125025 -4.81215e-08
0.0270911 -7.94836e-05 -4.28478e-08
0.0270828 -5.15024e-05 -3.89586e-08
0.0270761 -3.39566e-05 -3.32214e-08
0.027071 -2.27354e-05 -2.6797e-08
0.0270671 -1.54254e-05 -2.08079e-08
0.0270642 -1.05827e-05 -1.5764e-08
0.0270621 -7.32701e-06 -1.1757e-08
0.0270605 -5.11034e-06 -8.6824e-09
0.0270594 -3.58512e-06 -6.3722e-09
0.0270586 -2.52658e-06 -4.65862e-09
0.027058 -1.78683e-06 -3.39764e-09
0.0270575 -1.26703e-06 -2.4743e-09
0.0270572 -9.00227e-07 -1.80029e-09
0.027057 -6.40541e-07 -1.30928e-09
0.0270568 -4.56236e-07 -9.5216e-10
0.0270567 -3.25189e-07 -6.9288e-10
0.0270566 -2.31882e-07 -5.05236e-10
0.0270566 -1.65378e-07 -3.7043e-10
0.0270565 -1.17937e-07 -2.75366e-10
0.0270565 -8.40627e-08 -2.11565e-10
0.0270565 -5.98355e-08 -1.74648e-10
0.0270565 -4.24453e-08 -1.64287e-10
0.0270565 -2.98541e-08 -1.84408e-10
0.0270565 -2.05464e-08 -2.4242e-10
0.0270564 -1.33316e-08 -3.40235e-10
0.0270564 -7.15124e-09 -4.39088e-10
0.0270564 -8.46198e-10 -6.58172e-10
0.0270564 6.93846e-09 -4.04148e-09
0.0270564 1.6545e-08 -1.85034e-08
0.0270564 2.17099e-08 -2.97606e-08
0.0148 -1.01137e-08 -2.97237e-08
0.0148 0.00110786 -0.00498665
0.0183229 0.00242703 -0.00891512
0.0219035 0.00299226 -0.00586653
0.0240669 0.00453125 -0.0028975
0.0257434 0.00739905 -0.00153962
0.0287684 0.012804 -0.000904954
0.032655 0.0215788 -0.000449826
0.0274974 0.0133157 5.29394e-05
0.0293608 1.53176e-14 0.000499274
0.0334687 -0.010802 0.000741601
0.0338093 -0.0206404 0.000422954
0.0311119 -0.015091 -7.58377e-05
0.0292129 -0.00764773 -0.000121881
0.0281993 -0.00353642 -5.98705e-05
0.0276458 -0.00172751 -2.20293e-05
0.027325 -0.000903785 -7.28921e-06
0.0271315 -0.000496142 -2.26688e-06
0.0270118 -0.000281976 -6.42774e-07
0.0269362 -0.000164912 -1.3751e-07
0.0268878 -9.89748e-05 9.20293e-09
0.0268562 -6.08585e-05 4.38873e-08
0.0268352 -3.82813e-05 4.52958e-08
0.0268212 -2.45899e-05 3.81758e-08
0.0268117 -1.60962e-05 3.00363e-08
0.0268051 -1.07122e-05 2.29365e-08
0.0268006 -7.23065e-06 1.72486e-08
0.0267974 -4.9386e-06 1.28541e-08
0.0267952 -3.40583e-06 9.52172e-09
0.0267936 -2.36703e-06 7.0229e-09
0.0267925 -1.65516e-06 5.16313e-09
0.0267917 -1.16289e-06 3.78645e-09
0.0267912 -8.20006e-07 2.7715e-09
0.0267908 -5.79812e-07 2.02554e-09
0.0267905 -4.10808e-07 1.47851e-09
0.0267903 -2.91491e-07 1.07799e-09
0.0267901 -2.07037e-07 7.84922e-10
0.02679 -1.47144e-07 5.70265e-10
0.0267899 -1.04607e-07 4.12339e-10
0.0267899 -7.43559e-08 2.94691e-10
0.0267899 -5.28101e-08 2.04325e-10
0.0267898 -3.74238e-08 1.30129e-10
0.0267898 -2.63719e-08 6.13801e-11
0.0267898 -1.83238e-08 -1.3642e-11
0.0267898 -1.2272e-08 -1.08098e-10
0.0267898 -7.38813e-09 -2.30101e-10
0.0267898 -2.85343e-09 -3.53223e-10
0.0267898 2.51599e-09 -6.1777e-10
0.0267898 1.10384e-08 -4.12392e-09
0.0267898 2.43155e-08 -1.92193e-08
0.0267898 3.21514e-08 -3.10181e-08
0.01 -1.6295e-08 -3.16917e-08
0.01 0.000950171 -0.00409134
0.0150392 0.00201136 -0.00695809
0.0197065 0.00225981 -0.00428972
0.0233006 0.00316445 -0.00215387
0.0271914 0.00545393 -0.0012404
0.032334 0.00801004 -0.000946714
0.0409584 0.00981761 -0.000617652