# vtk DataFile Version 2.0
Tobias Weinzierl: CPU, Manycore and Cluster Computing
ASCII

DATASET STRUCTURED_POINTS
DIMENSIONS  51 11 6

ORIGIN 0 0 0 

SPACING 0.1 0.1 0.1 

POINT_DATA 3366

VECTORS velocity float
0 0 0
9.14398e-15 0 0
-1.61091e-08 0 0
-2.39163e-08 0 0
-2.48572e-08 0 0
-2.21887e-08 0 0
-2.66016e-08 0 0
-2.62197e-08 0 0
-2.40932e-08 0 0
-2.23395e-08 0 0
-2.17242e-08 0 0
-2.18059e-08 0 0
-2.21787e-08 0 0
-2.2637e-08 0 0
-2.30846e-08 0 0
-2.34769e-08 0 0
-2.3799e-08 0 0
-2.4053e-08 0 0
-2.4248e-08 0 0
-2.43954e-08 0 0
-2.45056e-08 0 0
-2.45875e-08 0 0
-2.46482e-08 0 0
-2.46931e-08 0 0
-2.47263e-08 0 0
-2.47509e-08 0 0
-2.4769e-08 0 0
-2.47825e-08 0 0
-2.47924e-08 0 0
-2.47998e-08 0 0
-2.48052e-08 0 0
-2.48093e-08 0 0
-2.48123e-08 0 0
-2.48145e-08 0 0
-2.48161e-08 0 0
-2.48173e-08 0 0
-2.48182e-08 0 0
-2.48189e-08 0 0
-2.48194e-08 0 0
-2.48198e-08 0 0
-2.482e-08 0 0
-2.48202e-08 0 0
-2.48204e-08 0 0
-2.48205e-08 0 0
-2.48206e-08 0 0
-2.48206e-08 0 0
-2.48207e-08 0 0
-2.48207e-08 0 0
-2.48207e-08 0 0
-2.48208e-08 0 0
0.00605957 0 0
0 7.82341e-09 0
1.20965e-14 1.13408e-08 0
-2.66934e-08 1.83149e-08 0
-3.35152e-08 8.25373e-09 0
-3.08758e-08 -9.76952e-10 0
-1.74405e-08 2.0419e-09 0
-3.03533e-08 3.75308e-09 0
-2.80659e-08 -2.74165e-09 0
-2.43911e-08 -3.91034e-09 0
-2.19577e-08 -2.26704e-09 0
-2.31791e-08 -4.23178e-10 0
-2.51416e-08 5.32004e-10 0
-2.6903e-08 8.76778e-10 0
-2.83626e-08 9.30668e-10 0
-2.953e-08 8.52844e-10 0
-3.04327e-08 7.21377e-10 0
-3.11129e-08 5.8013e-10 0
-3.16166e-08 4.51473e-10 0
-3.19861e-08 3.43986e-10 0
-3.22562e-08 2.58619e-10 0
-3.24534e-08 1.9287e-10 0
-3.25975e-08 1.4317e-10 0
-3.2703e-08 1.06015e-10 0
-3.27804e-08 7.84149e-11 0
-3.28374e-08 5.79803e-11 0
-3.28794e-08 4.28739e-11 0
-3.29104e-08 3.17114e-11 0
-3.29333e-08 2.34626e-11 0
-3.29502e-08 1.73645e-11 0
-3.29628e-08 1.28546e-11 0
-3.29721e-08 9.51776e-12 0
-3.2979e-08 7.04795e-12 0
-3.29841e-08 5.21937e-12 0
-3.29879e-08 3.86524e-12 0
-3.29907e-08 2.86233e-12 0
-3.29928e-08 2.11945e-12 0
-3.29943e-08 1.56916e-12 0
-3.29955e-08 1.16149e-12 0
-3.29963e-08 8.59452e-13 0
-3.2997e-08 6.35626e-13 0
-3.29974e-08 4.69697e-13 0
-3.29978e-08 3.46606e-13 0
-3.2998e-08 2.55198e-13 0
-3.29982e-08 1.87234e-13 0
-3.29984e-08 1.36701e-13 0
-3.29985e-08 9.94712e-14 0
-3.29985e-08 7.3688e-14 0
-3.29986e-08 6.15425e-14 0
-3.29986e-08 7.38002e-14 0
-3.29987e-08 1.44412e-13 0
0.0124935 -2.69125e-08 0
0 -8.17537e-10 0
6.37844e-14 1.38003e-08 0
-2.55384e-08 2.22922e-08 0
-2.04378e-08 8.4911e-09 0
-1.81966e-08 -1.13996e-08 0
-2.47755e-08 1.41804e-09 0
-2.26863e-08 1.02987e-08 0
-2.44253e-08 -6.2628e-09 0
3.84823e-09 -5.84503e-09 0
1.83746e-09 -6.11854e-10 0
-2.55586e-09 3.61153e-09 0
-6.80111e-09 3.97156e-09 0
-9.57463e-09 3.35222e-09 0
-1.14636e-08 2.69228e-09 0
-1.27811e-08 2.10121e-09 0
-1.3692e-08 1.59749e-09 0
-1.43174e-08 1.19083e-09 0
-1.47477e-08 8.76871e-10 0
-1.50464e-08 6.41635e-10 0
-1.52562e-08 4.6845e-10 0
-1.54053e-08 3.42083e-10 0
-1.55125e-08 2.50192e-10 0
-1.55902e-08 1.83376e-10 0
-1.5647e-08 1.34707e-10 0
-1.56886e-08 9.91649e-11 0
-1.57193e-08 7.31352e-11 0
-1.5742e-08 5.40205e-11 0
-1.57589e-08 3.99503e-11 0
-1.57713e-08 2.95724e-11 0
-1.57806e-08 2.19056e-11 0
-1.57875e-08 1.62344e-11 0
-1.57926e-08 1.20353e-11 0
-1.57964e-08 8.92417e-12 0
-1.57992e-08 6.61789e-12 0
-1.58013e-08 4.90767e-12 0
-1.58029e-08 3.63919e-12 0
-1.58041e-08 2.69822e-12 0
-1.58049e-08 2.00012e-12 0
-1.58056e-08 1.48215e-12 0
-1.5806e-08 1.09776e-12 0
-1.58064e-08 8.1243e-13 0
-1.58067e-08 6.00545e-13 0
-1.58068e-08 4.43138e-13 0
-1.5807e-08 3.26225e-13 0
-1.58071e-08 2.39619e-13 0
-1.58072e-08 1.76005e-13 0
-1.58072e-08 1.2996e-13 0
-1.58073e-08 9.83039e-14 0
-1.58073e-08 8.40691e-14 0
-1.58073e-08 9.10761e-14 0
0.0128737 -1.88524e-08 0
0 -1.00095e-08 0
1.98262e-13 1.23882e-08 0
-3.26807e-08 2.1439e-08 0
-1.63437e-08 1.34872e-08 0
-1.4313e-08 1.16419e-08 0
-2.95237e-08 7.20561e-09 0
-1.89346e-08 6.38886e-14 0
-2.25792e-08 -3.09813e-08 0
-2.70532e-08 -3.00085e-08 0
-1.01098e-08 5.34379e-09 0
-8.27764e-09 9.00876e-09 0
-9.56818e-09 7.94085e-09 0
-1.11856e-08 5.724e-09 0
-1.24574e-08 4.21784e-09 0
-1.33473e-08 3.11259e-09 0
-1.39343e-08 2.26787e-09 0
-1.43195e-08 1.63802e-09 0
-1.45783e-08 1.18011e-09 0
-1.47576e-08 8.5159e-10 0
-1.48854e-08 6.16782e-10 0
-1.49785e-08 4.48648e-10 0
-1.50472e-08 3.27721e-10 0
-1.50984e-08 2.40282e-10 0
-1.51366e-08 1.76722e-10 0
-1.51652e-08 1.30303e-10 0
-1.51867e-08 9.6265e-11 0
-1.52027e-08 7.12244e-11 0
-1.52147e-08 5.27555e-11 0
-1.52237e-08 3.91065e-11 0
-1.52304e-08 2.90046e-11 0
-1.52354e-08 2.15198e-11 0
-1.52391e-08 1.59698e-11 0
-1.52419e-08 1.18523e-11 0
-1.5244e-08 8.79652e-12 0
-1.52455e-08 6.5282e-12 0
-1.52467e-08 4.84421e-12 0
-1.52475e-08 3.59397e-12 0
-1.52482e-08 2.66571e-12 0
-1.52486e-08 1.97648e-12 0
-1.5249e-08 1.46464e-12 0
-1.52492e-08 1.08443e-12 0
-1.52494e-08 8.01818e-13 0
-1.52496e-08 5.91533e-13 0
-1.52497e-08 4.34794e-13 0
-1.52498e-08 3.17668e-13 0
-1.52498e-08 2.30017e-13 0
-1.52499e-08 1.65252e-13 0
-1.52499e-08 1.19613e-13 0
-1.52499e-08 9.00008e-14 0
-1.52499e-08 7.15022e-14 0
0.0128797 -1.19956e-08 0
0 -1.64361e-08 0
3.2297e-13 6.87125e-09 0
-4.12808e-08 1.06594e-08 0
-1.94332e-08 8.76143e-09 0
-8.84362e-09 1.11879e-08 0
-3.78443e-14 6.21461e-09 0
-1.13482e-12 -1.06464e-12 0
9.31614e-13 -1.15649e-12 0
-3.11994e-08 -1.91478e-08 0
-3.07695e-08 -1.92118e-08 0
-1.58509e-08 3.5799e-09 0
-1.43501e-08 7.2334e-09 0
-1.43133e-08 6.41635e-09 0
-1.46232e-08 4.92061e-09 0
-1.48163e-08 3.59431e-09 0
-1.49122e-08 2.56772e-09 0
-1.49686e-08 1.82855e-09 0
-1.50123e-08 1.30925e-09 0
-1.50511e-08 9.44735e-10 0
-1.50862e-08 6.86782e-10 0
-1.51171e-08 5.02338e-10 0
-1.51434e-08 3.69176e-10 0
-1.51651e-08 2.72267e-10 0
-1.51826e-08 2.01303e-10 0
-1.51964e-08 1.49097e-10 0
-1.52072e-08 1.10563e-10 0
-1.52155e-08 8.20533e-11 0
-1.52218e-08 6.09252e-11 0
-1.52266e-08 4.52505e-11 0
-1.52303e-08 3.36132e-11 0
-1.5233e-08 2.49695e-11 0
-1.5235e-08 1.85478e-11 0
-1.52366e-08 1.37762e-11 0
-1.52377e-08 1.02307e-11 0
-1.52386e-08 7.59635e-12 0
-1.52392e-08 5.63915e-12 0
-1.52397e-08 4.18518e-12 0
-1.524e-08 3.10512e-12 0
-1.52403e-08 2.30282e-12 0
-1.52405e-08 1.7068e-12 0
-1.52406e-08 1.26387e-12 0
-1.52407e-08 9.34466e-13 0
-1.52408e-08 6.89151e-13 0
-1.52409e-08 5.06035e-13 0
-1.52409e-08 3.68899e-13 0
-1.52409e-08 2.65848e-13 0
-1.52409e-08 1.88195e-13 0
-1.5241e-08 1.29677e-13 0
-1.5241e-08 8.51166e-14 0
-1.5241e-08 4.8974e-14 0
0.0128798 -5.88648e-09 0
0 -1.33899e-08 0
4.47699e-13 3.32245e-09 0
-4.85483e-08 6.25183e-09 0
-2.80415e-08 3.30763e-09 0
-1.69304e-08 5.49734e-10 0
-9.1135e-09 1.71484e-10 0
-1.12044e-12 1.03785e-12 0
-1.06236e-13 1.06236e-13 0
9.01105e-13 -9.62123e-13 0
-1.9204e-08 -1.07576e-08 0
-1.94508e-08 -7.51733e-09 0
-1.87875e-08 6.60724e-09 0
-1.79237e-08 6.13505e-09 0
-1.70203e-08 4.76192e-09 0
-1.62992e-08 3.3986e-09 0
-1.5837e-08 2.40556e-09 0
-1.55661e-08 1.7244e-09 0
-1.54133e-08 1.25277e-09 0
-1.53291e-08 9.19302e-10 0
-1.52838e-08 6.79135e-10 0
-1.52601e-08 5.03803e-10 0
-1.5248e-08 3.74633e-10 0
-1.52422e-08 2.78925e-10 0
-1.52397e-08 2.07776e-10 0
-1.52388e-08 1.54789e-10 0
-1.52387e-08 1.15297e-10 0
-1.52389e-08 8.58565e-11 0
-1.52392e-08 6.39121e-11 0
-1.52396e-08 4.75597e-11 0
-1.52399e-08 3.53787e-11 0
-1.52401e-08 2.63085e-11 0
-1.52403e-08 1.95573e-11 0
-1.52405e-08 1.45341e-11 0
-1.52406e-08 1.07978e-11 0
-1.52407e-08 8.01959e-12 0
-1.52407e-08 5.95445e-12 0
-1.52408e-08 4.41971e-12 0
-1.52408e-08 3.27935e-12 0
-1.52409e-08 2.43211e-12 0
-1.52409e-08 1.80261e-12 0
-1.52409e-08 1.33474e-12 0
-1.52409e-08 9.86712e-13 0
-1.52409e-08 7.27411e-13 0
-1.52409e-08 5.33636e-13 0
-1.52409e-08 3.88066e-13 0
-1.52409e-08 2.77743e-13 0
-1.52409e-08 1.92928e-13 0
-1.52409e-08 1.26201e-13 0
-1.52409e-08 7.14285e-14 0
-1.52409e-08 2.35039e-14 0
0.0128798 1.12499e-11 0
0 -8.30481e-09 0
5.00284e-13 -4.41775e-10 0
-4.87831e-08 4.8082e-10 0
-2.79589e-08 2.15315e-10 0
-2.09285e-08 -8.14122e-10 0
-1.63575e-08 -9.34197e-09 0
-1.42039e-08 -9.23512e-09 0
-1.13999e-12 9.35709e-13 0
-3.46036e-14 3.46036e-14 0
9.36355e-13 -8.65855e-13 0
-1.07765e-08 3.04216e-09 0
-2.74421e-08 5.87492e-09 0
-2.22009e-08 4.79571e-09 0
-1.8816e-08 3.33795e-09 0
-1.7194e-08 2.405e-09 0
-1.63753e-08 1.81714e-09 0
-1.59352e-08 1.38957e-09 0
-1.56853e-08 1.0621e-09 0
-1.55361e-08 8.09217e-10 0
-1.54431e-08 6.14329e-10 0
-1.53826e-08 4.64758e-10 0
-1.53421e-08 3.50493e-10 0
-1.53141e-08 2.6359e-10 0
-1.52943e-08 1.97768e-10 0
-1.52802e-08 1.48089e-10 0
-1.52699e-08 1.10708e-10 0
-1.52624e-08 8.26517e-11 0
-1.52569e-08 6.16372e-11 0
-1.52528e-08 4.59238e-11 0
-1.52498e-08 3.41902e-11 0
-1.52476e-08 2.54384e-11 0
-1.52459e-08 1.89166e-11 0
-1.52447e-08 1.40602e-11 0
-1.52437e-08 1.04462e-11 0
-1.5243e-08 7.75825e-12 0
-1.52425e-08 5.75988e-12 0
-1.52421e-08 4.27471e-12 0
-1.52419e-08 3.17125e-12 0
-1.52416e-08 2.3515e-12 0
-1.52415e-08 1.74252e-12 0
-1.52414e-08 1.28995e-12 0
-1.52413e-08 9.53323e-13 0
-1.52412e-08 7.02463e-13 0
-1.52412e-08 5.148e-13 0
-1.52411e-08 3.73354e-13 0
-1.52411e-08 2.65211e-13 0
-1.52411e-08 1.80404e-13 0
-1.52411e-08 1.11121e-13 0
-1.52411e-08 5.10386e-14 0
-1.52411e-08 -4.18497e-15 0
0.0128798 5.90764e-09 0
0 -5.21425e-09 0
4.00329e-13 -4.0128e-09 0
-4.424e-08 -4.89669e-09 0
-2.67218e-08 -1.77297e-09 0
-2.11628e-08 -3.5822e-09 0
-1.86279e-08 -4.57604e-09 0
-2.22152e-08 -1.60953e-08 0
-1.7166e-08 -1.42124e-08 0
-1.13058e-12 7.40841e-13 0
1.06269e-12 6.71661e-13 0
4.80501e-14 1.98725e-08 0
-4.2795e-08 1.82652e-08 0
-2.54525e-08 -2.09531e-09 0
-1.88485e-08 -8.01942e-11 0
-1.70299e-08 9.97508e-10 0
-1.6364e-08 1.1472e-09 0
-1.60275e-08 1.02763e-09 0
-1.58183e-08 8.48119e-10 0
-1.56737e-08 6.73763e-10 0
-1.55684e-08 5.2396e-10 0
-1.54899e-08 4.02083e-10 0
-1.54308e-08 3.05827e-10 0
-1.53861e-08 2.31176e-10 0
-1.53523e-08 1.7397e-10 0
-1.53268e-08 1.30492e-10 0
-1.53075e-08 9.76413e-11 0
-1.52931e-08 7.29248e-11 0
-1.52822e-08 5.4387e-11 0
-1.52741e-08 4.05161e-11 0
-1.5268e-08 3.0156e-11 0
-1.52634e-08 2.24287e-11 0
-1.526e-08 1.66715e-11 0
-1.52574e-08 1.23859e-11 0
-1.52555e-08 9.19794e-12 0
-1.52541e-08 6.82787e-12 0
-1.52531e-08 5.06667e-12 0
-1.52523e-08 3.75842e-12 0
-1.52517e-08 2.78689e-12 0
-1.52513e-08 2.06553e-12 0
-1.52509e-08 1.5299e-12 0
-1.52507e-08 1.13204e-12 0
-1.52505e-08 8.36237e-13 0
-1.52504e-08 6.15834e-13 0
-1.52503e-08 4.50862e-13 0
-1.52502e-08 3.26181e-13 0
-1.52502e-08 2.30044e-13 0
-1.52501e-08 1.52989e-13 0
-1.52501e-08 8.71882e-14 0
-1.52501e-08 2.62522e-14 0
-1.52501e-08 -3.34384e-14 0
0.0128797 1.20125e-08 0
0 -5.27531e-09 0
2.34736e-13 -6.44658e-09 0
-3.62347e-08 -8.38388e-09 0
-2.47412e-08 -2.61712e-09 0
-2.08016e-08 -1.26536e-09 0
-2.25004e-08 -5.22214e-09 0
-2.64159e-08 -9.66092e-09 0
-3.98229e-08 -2.22083e-08 0
-3.68718e-08 -1.7184e-08 0
-1.74844e-08 -7.37854e-19 0
-4.86824e-09 4.50378e-08 0
-2.26231e-09 3.09658e-08 0
-1.16955e-08 -1.84707e-08 0
-1.5291e-08 -4.76197e-09 0
-1.63403e-08 2.30798e-11 0
-1.65775e-08 8.42405e-10 0
-1.65548e-08 8.50351e-10 0
-1.64532e-08 7.09552e-10 0
-1.63365e-08 5.5953e-10 0
-1.62281e-08 4.30701e-10 0
-1.61357e-08 3.27328e-10 0
-1.60603e-08 2.46874e-10 0
-1.60005e-08 1.85287e-10 0
-1.59538e-08 1.38612e-10 0
-1.59179e-08 1.03462e-10 0
-1.58906e-08 7.71026e-11 0
-1.58698e-08 5.73917e-11 0
-1.58541e-08 4.26819e-11 0
-1.58423e-08 3.17204e-11 0
-1.58335e-08 2.35609e-11 0
-1.58268e-08 1.74921e-11 0
-1.58219e-08 1.29814e-11 0
-1.58182e-08 9.6305e-12 0
-1.58154e-08 7.14235e-12 0
-1.58134e-08 5.29551e-12 0
-1.58119e-08 3.92512e-12 0
-1.58107e-08 2.90852e-12 0
-1.58099e-08 2.15451e-12 0
-1.58092e-08 1.59531e-12 0
-1.58088e-08 1.18056e-12 0
-1.58084e-08 8.72816e-13 0
-1.58082e-08 6.44248e-13 0
-1.5808e-08 4.74101e-13 0
-1.58078e-08 3.46811e-13 0
-1.58077e-08 2.5052e-13 0
-1.58077e-08 1.75824e-13 0
-1.58076e-08 1.14565e-13 0
-1.58076e-08 5.88504e-14 0
-1.58076e-08 8.81238e-16 0
-1.58076e-08 -6.45052e-14 0
0.0128738 1.88599e-08 0
0 -7.56896e-09 0
1.18217e-13 -6.48077e-09 0
-3.41483e-08 -8.13938e-09 0
-3.34737e-08 -1.93501e-09 0
-3.28267e-08 8.7951e-10 0
-3.25894e-08 4.80466e-09 0
-3.60306e-08 3.60045e-09 0
-3.9518e-08 -3.51467e-09 0
-5.65332e-08 -2.46933e-08 0
-5.86323e-08 -3.56441e-08 0
-6.09922e-08 1.7822e-09 0
-1.69703e-08 2.4411e-08 0
-3.1021e-08 1.15481e-08 0
-3.52877e-08 4.87195e-09 0
-3.55776e-08 2.38573e-09 0
-3.51609e-08 1.39124e-09 0
-3.46943e-08 9.10666e-10 0
-3.42974e-08 6.30825e-10 0
-3.39822e-08 4.4821e-10 0
-3.37387e-08 3.22415e-10 0
-3.35533e-08 2.33608e-10 0
-3.34131e-08 1.70115e-10 0
-3.33078e-08 1.24355e-10 0
-3.32289e-08 9.11777e-11 0
-3.317e-08 6.70095e-11 0
-3.3126e-08 4.93366e-11 0
-3.30933e-08 3.63741e-11 0
-3.3069e-08 2.68442e-11 0
-3.30509e-08 1.98253e-11 0
-3.30374e-08 1.46488e-11 0
-3.30274e-08 1.08276e-11 0
-3.302e-08 8.00473e-12 0
-3.30145e-08 5.91848e-12 0
-3.30105e-08 4.37613e-12 0
-3.30074e-08 3.23565e-12 0
-3.30052e-08 2.39224e-12 0
-3.30035e-08 1.76847e-12 0
-3.30023e-08 1.30711e-12 0
-3.30014e-08 9.65842e-13 0
-3.30007e-08 7.1335e-13 0
-3.30002e-08 5.26457e-13 0
-3.29998e-08 3.87983e-13 0
-3.29996e-08 2.85166e-13 0
-3.29994e-08 2.08472e-13 0
-3.29992e-08 1.50661e-13 0
-3.29991e-08 1.05971e-13 0
-3.2999e-08 6.90588e-14 0
-3.2999e-08 3.29963e-14 0
-3.2999e-08 -1.68245e-14 0
-3.29991e-08 -1.24587e-13 0
0.0124935 2.68987e-08 0
0 0 0
4.56847e-14 0 0
-1.83644e-08 0 0
-2.16085e-08 0 0
-2.24812e-08 0 0
-2.14729e-08 0 0
-1.7626e-08 0 0
-1.68611e-08 0 0
-1.96615e-08 0 0
-4.11478e-08 0 0
-5.61239e-08 0 0
-4.06011e-08 0 0
-3.25229e-08 0 0
-2.91456e-08 0 0
-2.75675e-08 0 0
-2.66951e-08 0 0
-2.61451e-08 0 0
-2.57723e-08 0 0
-2.55106e-08 0 0
-2.53236e-08 0 0
-2.51887e-08 0 0
-2.50908e-08 0 0
-2.50194e-08 0 0
-2.49671e-08 0 0
-2.49287e-08 0 0
-2.49004e-08 0 0
-2.48796e-08 0 0
-2.48643e-08 0 0
-2.48529e-08 0 0
-2.48445e-08 0 0
-2.48384e-08 0 0
-2.48338e-08 0 0
-2.48304e-08 0 0
-2.48279e-08 0 0
-2.4826e-08 0 0
-2.48247e-08 0 0
-2.48237e-08 0 0
-2.48229e-08 0 0
-2.48224e-08 0 0
-2.4822e-08 0 0
-2.48216e-08 0 0
-2.48214e-08 0 0
-2.48213e-08 0 0
-2.48211e-08 0 0
-2.48211e-08 0 0
-2.4821e-08 0 0
-2.48209e-08 0 0
-2.48209e-08 0 0
-2.48209e-08 0 0
-2.4821e-08 0 0
0.00605958 0 0
0 0 5.78935e-09
3.91939e-14 0 4.76832e-09
-2.82711e-08 0 5.60138e-09
-3.40061e-08 0 4.94343e-10
-2.90949e-08 0 -7.50651e-10
-1.76906e-08 0 -2.97546e-10
-2.43448e-08 0 2.77904e-10
-2.33388e-08 0 2.33265e-10
-2.1247e-08 0 3.0194e-11
-2.06608e-08 0 -1.01944e-10
-2.20395e-08 0 -1.10454e-10
-2.41318e-08 0 -7.75072e-11
-2.61529e-08 0 -4.56345e-11
-2.78495e-08 0 -2.47131e-11
-2.91908e-08 0 -1.30188e-11
-3.02132e-08 0 -7.00444e-12
-3.09732e-08 0 -3.99365e-12
-3.15291e-08 0 -2.44838e-12
-3.19321e-08 0 -1.60057e-12
-3.22231e-08 0 -1.09455e-12
-3.24331e-08 0 -7.69102e-13
-3.2585e-08 0 -5.48666e-13
-3.26953e-08 0 -3.947e-13
-3.27756e-08 0 -2.85334e-13
-3.28343e-08 0 -2.06923e-13
-3.28774e-08 0 -1.50396e-13
-3.2909e-08 0 -1.09496e-13
-3.29324e-08 0 -7.98228e-14
-3.29496e-08 0 -5.82502e-14
-3.29624e-08 0 -4.25402e-14
-3.29718e-08 0 -3.10859e-14
-3.29788e-08 0 -2.27261e-14
-3.2984e-08 0 -1.66191e-14
-3.29878e-08 0 -1.21563e-14
-3.29907e-08 0 -8.8935e-15
-3.29928e-08 0 -6.50672e-15
-3.29944e-08 0 -4.76119e-15
-3.29955e-08 0 -3.48462e-15
-3.29964e-08 0 -2.55253e-15
-3.2997e-08 0 -1.87586e-15
-3.29975e-08 0 -1.39212e-15
-3.29978e-08 0 -1.06483e-15
-3.29981e-08 0 -8.84295e-16
-3.29983e-08 0 -8.69752e-16
-3.29984e-08 0 -1.05334e-15
-3.29985e-08 0 -1.30812e-15
-3.29986e-08 0 -5.34799e-16
-3.29987e-08 0 5.60323e-15
-3.29987e-08 0 2.95531e-14
-3.29988e-08 0 1.07736e-13
0.0124935 0 -2.27294e-08
0.0036 1.24833e-08 6.542e-09
0.00359998 -0.00564194 -0.00290635
0.0151187 -0.0101407 -0.00447782
0.0248424 -0.00862668 -0.00239572
0.034197 -0.00777813 -0.0012692
0.0439713 -0.00483253 -0.000664542
0.0459588 -0.000825051 -0.000332938
0.0453785 0.00230108 -0.000171851
0.0400462 0.00408903 -9.22275e-05
0.0351559 0.00391089 -5.1757e-05
0.0314337 0.00302706 -2.74826e-05
0.0289297 0.00208203 -1.434e-05
0.0273783 0.0013168 -7.43472e-06
0.0264801 0.000776342 -3.84096e-06
0.0259951 0.000426761 -1.98481e-06
0.0257551 0.000215424 -1.03122e-06
0.025652 9.52229e-05 -5.41264e-07
0.0256206 3.11528e-05 -2.87948e-07
0.0256236 -2.52103e-07 -1.55549e-07
0.0256408 -1.36536e-05 -8.54051e-08
0.0256619 -1.77227e-05 -4.76949e-08
0.0256822 -1.73454e-05 -2.71152e-08
0.0256997 -1.51427e-05 -1.57117e-08
0.0257139 -1.24396e-05 -9.29215e-09
0.0257252 -9.85023e-06 -5.61674e-09
0.0257338 -7.61601e-06 -3.47343e-09
0.0257404 -5.79405e-06 -2.19828e-09
0.0257453 -4.35846e-06 -1.42311e-09
0.025749 -3.25232e-06 -9.41115e-10
0.0257517 -2.41288e-06 -6.34496e-10
0.0257538 -1.78256e-06 -4.35058e-10
0.0257552 -1.31284e-06 -3.02622e-10
0.0257563 -9.64681e-07 -2.13038e-10
0.0257571 -7.07657e-07 -1.51486e-10
0.0257577 -5.18459e-07 -1.08679e-10
0.0257581 -3.79485e-07 -7.86961e-11
0.0257585 -2.77561e-07 -5.77261e-11
0.0257587 -2.02895e-07 -4.33556e-11
0.0257589 -1.4824e-07 -3.41766e-11
0.025759 -1.08253e-07 -2.96105e-11
0.0257591 -7.90055e-08 -2.9875e-11
0.0257591 -5.76146e-08 -3.60125e-11
0.0257592 -4.19708e-08 -4.9806e-11
0.0257592 -3.05396e-08 -7.32894e-11
0.0257592 -2.22242e-08 -1.08195e-10
0.0257593 -1.62893e-08 -1.62781e-10
0.0257593 -1.23992e-08 -3.23644e-10
0.0257593 -1.11234e-08 -1.2737e-09
0.0257593 -1.68699e-08 -7.32971e-09
0.0257593 -4.0514e-08 -2.98539e-08
0.0257594 -5.85833e-08 -4.71455e-08
0.01 1.1035e-08 9.28542e-09
0.01 -0.00873341 -0.00521315
0.0183719 -0.0166822 -0.00768964
0.0259881 -0.0162656 -0.00362097
0.0349739 -0.017491 -0.00172315
0.0521802 -0.0108372 -0.000800668
0.0513397 -0.000906679 -0.000336314
0.0518854 0.00618103 -0.00016806
0.0409846 0.0103641 -9.00898e-05
0.0344382 0.00868738 -5.60181e-05
0.0305771 0.00626516 -2.94967e-05
0.0283593 0.00407557 -1.47997e-05
0.0271953 0.00246006 -7.48641e-06
0.0266327 0.00138868 -3.76608e-06
0.0263933 0.000727922 -1.88209e-06
0.0263165 0.00034457 -9.40026e-07
0.0263147 0.000135236 -4.7219e-07
0.0263428 2.87883e-05 -2.39573e-07
0.0263791 -1.99936e-05 -1.23028e-07
0.026414 -3.82052e-05 -6.39733e-08
0.026444 -4.12997e-05 -3.36653e-08
0.0264682 -3.7689e-05 -1.79134e-08
0.0264872 -3.1721e-05 -9.63063e-09
0.0265018 -2.54914e-05 -5.22928e-09
0.0265127 -1.9899e-05 -2.86813e-09
0.0265209 -1.5237e-05 -1.59016e-09
0.026527 -1.15135e-05 -8.9236e-10
0.0265315 -8.61905e-06 -5.07814e-10
0.0265349 -6.40924e-06 -2.93715e-10
0.0265373 -4.74296e-06 -1.73101e-10
0.0265391 -3.49749e-06 -1.04212e-10
0.0265404 -2.57237e-06 -6.42365e-11
0.0265414 -1.88832e-06 -4.06243e-11
0.0265421 -1.38421e-06 -2.64238e-11
0.0265426 -1.01359e-06 -1.77619e-11
0.026543 -7.41614e-07 -1.24861e-11
0.0265433 -5.42281e-07 -9.43897e-12
0.0265435 -3.9633e-07 -8.0861e-12
0.0265436 -2.89536e-07 -8.35647e-12
0.0265437 -2.11431e-07 -1.06226e-11
0.0265438 -1.54327e-07 -1.57783e-11
0.0265438 -1.12592e-07 -2.53615e-11
0.0265439 -8.2119e-08 -4.16052e-11
0.0265439 -5.9944e-08 -6.72681e-11
0.0265439 -4.3993e-08 -1.05997e-10
0.026544 -3.29717e-08 -1.71716e-10
0.026544 -2.64341e-08 -3.66583e-10
0.026544 -2.49218e-08 -1.40814e-09
0.026544 -2.88783e-08 -7.65742e-09
0.026544 -3.85037e-08 -2.97746e-08
0.026544 -4.48057e-08 -4.65318e-08
0.0148 -8.57581e-09 2.13403e-08
0.0148 -0.00943549 -0.00723353
0.0202505 -0.0188766 -0.0106141
0.0239503 -0.0211456 -0.0048651
0.0260864 -0.0317835 -0.00224725
0.0284508 -0.0200793 -0.000865463
0.0269538 -1.55451e-07 -0.000156799
0.0278046 0.0129359 -8.92858e-05
0.033292 0.0216759 -5.60024e-05
0.0293961 0.0143916 -3.49808e-05
0.0269303 0.00914341 -2.25324e-05
0.0258555 0.00548314 -1.26231e-05
0.0255857 0.0030533 -6.55411e-06
0.0256656 0.00158346 -3.24706e-06
0.0258483 0.000745694 -1.56301e-06
0.0260302 0.000295473 -7.45833e-07
0.0261781 6.96688e-05 -3.57729e-07
0.0262885 -3.2862e-05 -1.73987e-07
0.0263676 -7.12432e-05 -8.6248e-08
0.0264233 -7.8399e-05 -4.36863e-08
0.0264622 -7.18659e-05 -2.26293e-08
0.0264894 -6.05374e-05 -1.19874e-08
0.0265086 -4.86331e-05 -6.49285e-09
0.0265221 -3.79385e-05 -3.5962e-09
0.0265317 -2.90294e-05 -2.03788e-09
0.0265386 -2.19215e-05 -1.18256e-09
0.0265435 -1.64018e-05 -7.03413e-10
0.026547 -1.21914e-05 -4.29202e-10
0.0265496 -9.01884e-06 -2.68692e-10
0.0265514 -6.64884e-06 -1.72473e-10
0.0265528 -4.88922e-06 -1.1336e-10
0.0265538 -3.58857e-06 -7.61395e-11
0.0265545 -2.63028e-06 -5.2153e-11
0.026555 -1.92591e-06 -3.638e-11
0.0265554 -1.40908e-06 -2.58634e-11
0.0265556 -1.03034e-06 -1.88495e-11
0.0265558 -7.53059e-07 -1.43241e-11
0.026556 -5.50192e-07 -1.17764e-11
0.0265561 -4.0184e-07 -1.11072e-11
0.0265562 -2.93386e-07 -1.264e-11
0.0265562 -2.14117e-07 -1.72082e-11
0.0265563 -1.56193e-07 -2.62665e-11
0.0265563 -1.13895e-07 -4.18817e-11
0.0265563 -8.30813e-08 -6.63451e-11
0.0265563 -6.07997e-08 -1.01729e-10
0.0265563 -4.50261e-08 -1.5626e-10
0.0265563 -3.44556e-08 -3.11153e-10
0.0265564 -2.83232e-08 -1.20897e-09
0.0265564 -2.64575e-08 -6.97096e-09
0.0265564 -2.81119e-08 -2.7711e-08
0.0265563 -2.96084e-08 -4.3466e-08
0.018 -2.84224e-08 2.28966e-08
0.018 -0.00797475 -0.00867669
0.0210176 -0.016003 -0.0127554
0.0208585 -0.0166436 -0.00580288
0.0157906 -0.019096 -0.00263009
-2.06753e-09 -0.0104807 -0.000905915
1.96487e-06 9.24218e-07 1.0606e-09
-9.43583e-07 1.0441e-06 -1.19344e-05
0.0129552 0.00886962 -1.86633e-05
0.0217126 0.0151021 -1.20671e-05
0.0216889 0.00983489 -1.08281e-05
0.0224599 0.00543595 -8.99495e-06
0.0235905 0.00265843 -5.27882e-06
0.0245739 0.00113057 -2.60489e-06
0.02529 0.000365638 -1.21252e-06
0.0257662 1.60541e-05 -5.5734e-07
0.0260677 -0.000122343 -2.59483e-07
0.026254 -0.000160315 -1.24449e-07
0.0263678 -0.000154562 -6.21336e-08
0.0264373 -0.000132702 -3.2445e-08
0.0264801 -0.000107427 -1.77215e-08
0.0265066 -8.40496e-05 -1.00982e-08
0.0265234 -6.43681e-05 -5.98057e-09
0.0265342 -4.86063e-05 -3.66689e-09
0.0265412 -3.6354e-05 -2.31881e-09
0.0265459 -2.70092e-05 -1.50677e-09
0.0265491 -1.99716e-05 -1.00249e-09
0.0265512 -1.47176e-05 -6.80487e-10
0.0265528 -1.08191e-05 -4.69682e-10
0.0265538 -7.93889e-06 -3.28617e-10
0.0265546 -5.81775e-06 -2.32438e-10
0.0265551 -4.25918e-06 -1.65841e-10
0.0265555 -3.11589e-06 -1.19158e-10
0.0265558 -2.27826e-06 -8.61373e-11
0.026556 -1.66512e-06 -6.2661e-11
0.0265561 -1.21661e-06 -4.59876e-11
0.0265562 -8.88683e-07 -3.43078e-11
0.0265563 -6.48996e-07 -2.64936e-11
0.0265564 -4.73843e-07 -2.19799e-11
0.0265564 -3.45859e-07 -2.07505e-11
0.0265564 -2.5234e-07 -2.34042e-11
0.0265564 -1.83995e-07 -3.1247e-11
0.0265565 -1.34038e-07 -4.62453e-11
0.0265565 -9.75253e-08 -7.05006e-11
0.0265565 -7.08618e-08 -1.05282e-10
0.0265565 -5.1452e-08 -1.55583e-10
0.0265565 -3.74384e-08 -2.91537e-10
0.0265565 -2.75171e-08 -1.12464e-09
0.0265565 -2.08965e-08 -6.69792e-09
0.0265565 -1.65453e-08 -2.70164e-08
0.0265565 -1.4744e-08 -4.2489e-08
0.0196 -2.734e-08 1.44351e-08
0.0196 -0.00503942 -0.00941922
0.0215086 -0.00993854 -0.0138639
0.0200809 -0.00937113 -0.00626316
0.0148826 -0.00749296 -0.00272417
0.00465521 -0.00302097 -0.00114739
1.56939e-06 -1.45894e-06 -0.000241695
5.15361e-07 -5.15361e-07 -2.52887e-10
-9.09019e-07 9.78146e-07 -4.0625e-06
0.00887591 0.00568642 -6.67029e-06
0.0151149 0.00841448 -6.43781e-06
0.0186515 0.00359303 -6.90527e-06
0.0217073 0.000946065 -4.68732e-06
0.0237463 -0.000112212 -2.36924e-06
0.0249752 -0.000444463 -1.10284e-06
0.0256804 -0.000481147 -5.07138e-07
0.0260752 -0.000417542 -2.40911e-07
0.0262934 -0.000332608 -1.21112e-07
0.0264132 -0.000254413 -6.4744e-08
0.0264786 -0.000190557 -3.65254e-08
0.0265143 -0.000141116 -2.15029e-08
0.0265337 -0.000103849 -1.30863e-08
0.0265442 -7.61555e-05 -8.18236e-09
0.0265499 -5.57368e-05 -5.23721e-09
0.026553 -4.07474e-05 -3.4236e-09
0.0265546 -2.97705e-05 -2.28146e-09
0.0265555 -2.17432e-05 -1.54684e-09
0.026556 -1.58772e-05 -1.0648e-09
0.0265562 -1.15926e-05 -7.42516e-10
0.0265564 -8.46371e-06 -5.23378e-10
0.0265564 -6.17913e-06 -3.72154e-10
0.0265565 -4.51113e-06 -2.6649e-10
0.0265565 -3.29336e-06 -1.91912e-10
0.0265565 -2.40429e-06 -1.38873e-10
0.0265565 -1.75521e-06 -1.00973e-10
0.0265565 -1.28132e-06 -7.38761e-11
0.0265565 -9.35348e-07 -5.46529e-11
0.0265565 -6.82741e-07 -4.13847e-11
0.0265565 -4.98289e-07 -3.29509e-11
0.0265565 -3.63582e-07 -2.89525e-11
0.0265565 -2.65171e-07 -2.97388e-11
0.0265565 -1.93235e-07 -3.64716e-11
0.0265565 -1.40588e-07 -5.10426e-11
0.0265565 -1.01968e-07 -7.54549e-11
0.0265565 -7.35018e-08 -1.10586e-10
0.0265565 -5.23094e-08 -1.60091e-10
0.0265565 -3.62204e-08 -2.90596e-10
0.0265565 -2.35905e-08 -1.10557e-09
0.0265565 -1.32432e-08 -6.63231e-09
0.0265565 -4.25915e-09 -2.68607e-08
0.0265565 4.30669e-12 -4.22761e-08
0.0196 -1.83638e-08 3.96981e-09
0.0196 -0.00184318 -0.00943414
0.0218388 -0.00365894 -0.0138858
0.0212753 -0.002937 -0.00626702
0.0181911 -0.000119074 -0.00266373
0.013867 0.0060136 -0.00130618
0.00891976 0.00501145 -0.000580931
1.57844e-06 -1.33944e-06 -0.000123087
4.30423e-07 -4.30423e-07 -9.31773e-11
-8.83355e-07 9.34683e-07 -1.55096e-06
0.00568882 7.08206e-05 -4.1143e-06
0.0150998 -0.00114789 -7.25282e-06
0.0208274 -0.00243068 -7.22123e-06
0.0237481 -0.00213392 -3.65585e-06
0.0251972 -0.00156646 -1.62028e-06
0.0259123 -0.00108283 -7.28909e-07
0.0262633 -0.000734797 -3.50479e-07
0.0264335 -0.000497978 -1.81256e-07
0.026514 -0.00033958 -9.93645e-08
0.0265503 -0.000233696 -5.67266e-08
0.0265651 -0.000162414 -3.33021e-08
0.0265697 -0.000113925 -1.99716e-08
0.0265699 -8.05687e-05 -1.22057e-08
0.0265683 -5.73724e-05 -7.60044e-09
0.0265662 -4.10849e-05 -4.82463e-09
0.0265641 -2.95537e-05 -3.12302e-09
0.0265624 -2.13339e-05 -2.06073e-09
0.026561 -1.54423e-05 -1.38457e-09
0.0265599 -1.12012e-05 -9.45594e-10
0.026559 -8.13788e-06 -6.55037e-10
0.0265584 -5.91945e-06 -4.59229e-10
0.0265579 -4.30969e-06 -3.25145e-10
0.0265575 -3.13984e-06 -2.3207e-10
0.0265572 -2.2887e-06 -1.66752e-10
0.026557 -1.66891e-06 -1.20554e-10
0.0265569 -1.21728e-06 -8.77651e-11
0.0265568 -8.88023e-07 -6.45913e-11
0.0265567 -6.47878e-07 -4.85637e-11
0.0265567 -4.72661e-07 -3.82082e-11
0.0265566 -3.44762e-07 -3.29028e-11
0.0265566 -2.51344e-07 -3.28679e-11
0.0265566 -1.83039e-07 -3.92137e-11
0.0265565 -1.32986e-07 -5.38568e-11
0.0265565 -9.61414e-08 -7.89251e-11
0.0265565 -6.87492e-08 -1.15611e-10
0.0265565 -4.79497e-08 -1.68391e-10
0.0265565 -3.14747e-08 -3.06198e-10
0.0265565 -1.74474e-08 -1.13877e-09
0.0265565 -4.37342e-09 -6.70743e-09
0.0265565 8.41828e-09 -2.70166e-08
0.0265565 1.47522e-08 -4.24835e-08
0.018 -1.28977e-08 -5.11592e-09
0.018 0.000778397 -0.00876361
0.0214136 0.0012329 -0.0128934
0.0225081 0.00135175 -0.00583998
0.0219232 0.00337539 -0.00250096
0.0213327 0.00809834 -0.00120212
0.0222557 0.0147265 -0.000638558
0.0143076 0.00910631 -0.000289742
1.60845e-06 -1.07044e-06 -6.25447e-05
-7.74301e-07 -1.14846e-06 4.0498e-09
9.44851e-08 -0.00667898 4.6016e-06
0.0157553 -0.0115377 -2.69905e-06
0.0227171 -0.00769588 -1.1325e-05
0.0252298 -0.00447811 -5.76186e-06
0.0261652 -0.00260644 -2.49675e-06
0.0265152 -0.00154598 -1.11924e-06
0.0266356 -0.000938088 -5.37946e-07
0.0266649 -0.000582986 -2.74937e-07
0.0266598 -0.000370998 -1.46767e-07
0.0266437 -0.000241487 -8.06299e-08
0.026626 -0.000160474 -4.51785e-08
0.0266102 -0.000108609 -2.5712e-08
0.0265972 -7.46681e-05 -1.48491e-08
0.026587 -5.20083e-05 -8.71017e-09
0.0265791 -3.66116e-05 -5.19878e-09
0.0265732 -2.59919e-05 -3.16364e-09
0.0265688 -1.85756e-05 -1.96598e-09
0.0265655 -1.33439e-05 -1.24865e-09
0.0265631 -9.62362e-06 -8.1043e-10
0.0265613 -6.9615e-06 -5.36959e-10
0.02656 -5.0473e-06 -3.62518e-10
0.026559 -3.66576e-06 -2.4883e-10
0.0265583 -2.66581e-06 -1.73241e-10
0.0265578 -1.94051e-06 -1.22097e-10
0.0265574 -1.41355e-06 -8.70141e-11
0.0265571 -1.03023e-06 -6.27586e-11
0.0265569 -7.51129e-07 -4.60463e-11
0.0265568 -5.47759e-07 -3.48659e-11
0.0265567 -3.99475e-07 -2.81265e-11
0.0265566 -2.91284e-07 -2.55161e-11
0.0265565 -2.12275e-07 -2.75078e-11
0.0265565 -1.54488e-07 -3.54389e-11
0.0265565 -1.12094e-07 -5.15004e-11
0.0265564 -8.07845e-08 -7.83351e-11
0.0265564 -5.73219e-08 -1.18448e-10
0.0265564 -3.91695e-08 -1.80025e-10
0.0265564 -2.41738e-08 -3.42545e-10
0.0265564 -1.02741e-08 -1.24461e-09
0.0265564 4.57805e-09 -6.99806e-09
0.0265564 2.10545e-08 -2.77133e-08
0.0265564 2.9615e-08 -4.34526e-08
0.0148 -1.20028e-08 -1.32337e-08
0.0148 0.00226058 -0.00751509
0.0200236 0.00379944 -0.011069
0.0230393 0.00314881 -0.0050797
0.0246821 0.00429309 -0.00224742
0.0264555 0.00737288 -0.00109794
0.0297979 0.0129827 -0.000580908
0.0351596 0.0226971 -0.000311787
0.0304336 0.0144041 -0.000112033
0.0304873 1.54465e-14 4.25405e-07
0.0322554 -0.0156798 7.26789e-06
0.0304519 -0.0238553 -6.40726e-06
0.0290799 -0.0118967 -1.28488e-05
0.028252 -0.00557674 -6.36783e-06
0.027706 -0.00284907 -2.80872e-06
0.0273364 -0.00155171 -1.27733e-06
0.0270865 -0.00088362 -6.07471e-07
0.0269179 -0.000521753 -2.98848e-07
0.0268038 -0.000318168 -1.50035e-07
0.026726 -0.000199805 -7.59576e-08
0.0266725 -0.000128855 -3.8371e-08
0.0266354 -8.50785e-05 -1.91327e-08
0.0266094 -5.73269e-05 -9.28601e-09
0.026591 -3.92925e-05 -4.28845e-09
0.0265779 -2.73113e-05 -1.79796e-09
0.0265685 -1.91983e-05 -5.96759e-10
0.0265618 -1.3616e-05 -5.02532e-11
0.0265569 -9.72407e-06 1.71174e-10
0.0265534 -6.98185e-06 2.37212e-10
0.0265508 -5.0335e-06 2.3385e-10
0.026549 -3.64015e-06 2.03538e-10
0.0265476 -2.63869e-06 1.66336e-10
0.0265466 -1.91613e-06 1.30996e-10
0.0265459 -1.39328e-06 1.00719e-10
0.0265454 -1.01409e-06 7.61092e-11
0.026545 -7.38634e-07 5.66368e-11
0.0265447 -5.38275e-07 4.13401e-11
0.0265445 -3.92391e-07 2.91095e-11
0.0265444 -2.86081e-07 1.87501e-11
0.0265443 -2.08542e-07 8.90463e-12
0.0265442 -1.51925e-07 -2.11687e-12
0.0265442 -1.10504e-07 -1.65569e-11
0.0265441 -8.00846e-08 -3.73721e-11
0.0265441 -5.75543e-08 -6.81998e-11
0.0265441 -4.0547e-08 -1.13843e-10
0.026544 -2.71506e-08 -1.89498e-10
0.026544 -1.55892e-08 -3.973e-10
0.026544 -3.73056e-09 -1.44908e-09
0.026544 1.16632e-08 -7.68656e-09
0.026544 3.27775e-08 -2.97666e-08
0.026544 4.48103e-08 -4.65016e-08
0.01 -1.79496e-08 -2.30389e-08
0.01 0.00209885 -0.00591559
0.0176448 0.00340127 -0.00875217
0.0223504 0.00247798 -0.00413171
0.0256156 0.00287335 -0.00193028
0.0291811 0.00451853 -0.000973117