# vtk DataFile Version 2.0
Tobias Weinzierl: CPU, Manycore and Cluster Computing
ASCII

DATASET STRUCTURED_POINTS
DIMENSIONS  51 11 6

ORIGIN 0 0 0 

SPACING 0.1 0.1 0.1 

POINT_DATA 3366

VECTORS velocity float
0 0 0
-7.83221e-15 0 0
-5.98881e-09 0 0
-8.38443e-09 0 0
-7.09924e-09 0 0
-2.21298e-09 0 0
-2.1474e-09 0 0
-3.89621e-09 0 0
-5.72894e-09 0 0
-6.79521e-09 0 0
-6.96391e-09 0 0
-6.79655e-09 0 0
-6.63922e-09 0 0
-6.57218e-09 0 0
-6.58296e-09 0 0
-6.63704e-09 0 0
-6.70381e-09 0 0
-6.76567e-09 0 0
-6.81587e-09 0 0
-6.85368e-09 0 0
-6.88093e-09 0 0
-6.90004e-09 0 0
-6.91324e-09 0 0
-6.92228e-09 0 0
-6.92845e-09 0 0
-6.93267e-09 0 0
-6.93557e-09 0 0
-6.93757e-09 0 0
-6.93895e-09 0 0
-6.93992e-09 0 0
-6.94059e-09 0 0
-6.94107e-09 0 0
-6.94141e-09 0 0
-6.94164e-09 0 0
-6.94181e-09 0 0
-6.94193e-09 0 0
-6.94202e-09 0 0
-6.94208e-09 0 0
-6.94212e-09 0 0
-6.94215e-09 0 0
-6.94217e-09 0 0
-6.94219e-09 0 0
-6.9422e-09 0 0
-6.94221e-09 0 0
-6.94221e-09 0 0
-6.94222e-09 0 0
-6.94222e-09 0 0
-6.94222e-09 0 0
-6.94223e-09 0 0
-6.94224e-09 0 0
0.00340923 0 0
0 7.77385e-09 0
9.40691e-15 3.67023e-09 0
-1.18628e-08 5.42936e-09 0
-1.63707e-08 2.651e-09 0
-1.27553e-08 5.81356e-10 0
-3.84311e-09 1.09741e-09 0
-2.77688e-09 3.17734e-09 0
-4.91332e-09 3.05647e-09 0
-6.94129e-09 2.06388e-09 0
-8.81971e-09 9.97941e-10 0
-9.38502e-09 2.27915e-10 0
-9.5814e-09 -3.00707e-12 0
-9.88742e-09 7.93249e-12 0
-1.02702e-08 6.42618e-11 0
-1.06623e-08 1.09166e-10 0
-1.10158e-08 1.26716e-10 0
-1.13032e-08 1.20404e-10 0
-1.15197e-08 1.01588e-10 0
-1.16745e-08 7.95845e-11 0
-1.17813e-08 5.94339e-11 0
-1.18534e-08 4.30207e-11 0
-1.19015e-08 3.05216e-11 0
-1.19333e-08 2.13915e-11 0
-1.19544e-08 1.4895e-11 0
-1.19685e-08 1.03456e-11 0
-1.19779e-08 7.1879e-12 0
-1.19843e-08 5.00436e-12 0
-1.19887e-08 3.49484e-12 0
-1.19917e-08 2.44913e-12 0
-1.19937e-08 1.72224e-12 0
-1.19952e-08 1.21491e-12 0
-1.19962e-08 8.59353e-13 0
-1.1997e-08 6.09188e-13 0
-1.19975e-08 4.32569e-13 0
-1.19978e-08 3.07516e-13 0
-1.19981e-08 2.18771e-13 0
-1.19983e-08 1.55686e-13 0
-1.19984e-08 1.10787e-13 0
-1.19985e-08 7.881e-14 0
-1.19986e-08 5.60269e-14 0
-1.19987e-08 3.97941e-14 0
-1.19987e-08 2.82299e-14 0
-1.19987e-08 1.99945e-14 0
-1.19987e-08 1.41365e-14 0
-1.19987e-08 9.98516e-15 0
-1.19988e-08 7.07125e-15 0
-1.19988e-08 5.09679e-15 0
-1.19988e-08 4.39938e-15 0
-1.19988e-08 8.84463e-15 0
-1.19988e-08 2.79332e-14 0
0.00853812 -7.52923e-09 0
0 1.10801e-09 0
7.21776e-14 4.7714e-09 0
-1.04167e-08 6.16196e-09 0
-1.40596e-08 2.0631e-09 0
-7.4103e-09 9.36677e-10 0
-3.2164e-09 1.47175e-09 0
-4.4946e-09 2.43243e-09 0
-6.50438e-09 7.8929e-10 0
-5.47427e-09 -5.661e-11 0
-5.24774e-09 1.00969e-09 0
-5.16272e-09 1.58219e-09 0
-5.34336e-09 1.98439e-09 0
-5.9431e-09 1.88513e-09 0
-6.58437e-09 1.48684e-09 0
-7.16621e-09 1.09324e-09 0
-7.64746e-09 7.83281e-10 0
-8.01123e-09 5.50304e-10 0
-8.26795e-09 3.79661e-10 0
-8.44089e-09 2.57979e-10 0
-8.55404e-09 1.73354e-10 0
-8.62689e-09 1.15706e-10 0
-8.67354e-09 7.70338e-11 0
-8.70348e-09 5.13477e-11 0
-8.72284e-09 3.43704e-11 0
-8.73551e-09 2.31541e-11 0
-8.74392e-09 1.57199e-11 0
-8.74958e-09 1.07625e-11 0
-8.75345e-09 7.43026e-12 0
-8.75613e-09 5.17003e-12 0
-8.758e-09 3.62259e-12 0
-8.75933e-09 2.55359e-12 0
-8.76027e-09 1.80898e-12 0
-8.76094e-09 1.28658e-12 0
-8.76142e-09 9.1784e-13 0
-8.76177e-09 6.56264e-13 0
-8.76202e-09 4.69979e-13 0
-8.76221e-09 3.36915e-13 0
-8.76234e-09 2.41658e-13 0
-8.76243e-09 1.7336e-13 0
-8.7625e-09 1.24343e-13 0
-8.76255e-09 8.91442e-14 0
-8.76259e-09 6.38685e-14 0
-8.76261e-09 4.57345e-14 0
-8.76263e-09 3.27683e-14 0
-8.76265e-09 2.36274e-14 0
-8.76266e-09 1.75651e-14 0
-8.76266e-09 1.45143e-14 0
-8.76267e-09 1.49821e-14 0
-8.76268e-09 1.8612e-14 0
-8.76269e-09 2.54639e-14 0
0.0105182 -7.75191e-09 0
0 -8.56014e-09 0
1.18812e-13 2.98948e-09 0
-9.0068e-09 1.86332e-09 0
-1.30208e-08 -3.19213e-09 0
-5.6833e-09 -1.43296e-09 0
-1.58627e-09 6.33002e-10 0
-3.86512e-09 -1.80401e-14 0
-5.48726e-09 -4.67244e-09 0
-1.04919e-08 -7.69563e-09 0
-9.06003e-09 -3.40479e-09 0
-7.79896e-09 8.61542e-10 0
-7.07224e-09 2.99786e-09 0
-6.7641e-09 3.19817e-09 0
-6.57857e-09 2.48624e-09 0
-6.57918e-09 1.77058e-09 0
-6.69131e-09 1.22397e-09 0
-6.82174e-09 8.27831e-10 0
-6.92814e-09 5.50262e-10 0
-7.00319e-09 3.61558e-10 0
-7.05267e-09 2.36234e-10 0
-7.08443e-09 1.54302e-10 0
-7.10479e-09 1.01196e-10 0
-7.11802e-09 6.68584e-11 0
-7.12683e-09 4.45968e-11 0
-7.13283e-09 3.00682e-11 0
-7.13701e-09 2.04961e-11 0
-7.13998e-09 1.41186e-11 0
-7.14212e-09 9.81851e-12 0
-7.14366e-09 6.8849e-12 0
-7.14479e-09 4.86144e-12 0
-7.14561e-09 3.45205e-12 0
-7.14621e-09 2.46214e-12 0
-7.14666e-09 1.76203e-12 0
-7.14698e-09 1.26412e-12 0
-7.14721e-09 9.08482e-13 0
-7.14739e-09 6.53632e-13 0
-7.14751e-09 4.70572e-13 0
-7.1476e-09 3.38859e-13 0
-7.14767e-09 2.43989e-13 0
-7.14772e-09 1.75613e-13 0
-7.14775e-09 1.26322e-13 0
-7.14778e-09 9.07971e-14 0
-7.1478e-09 6.52269e-14 0
-7.14781e-09 4.68912e-14 0
-7.14782e-09 3.38484e-14 0
-7.14783e-09 2.46963e-14 0
-7.14783e-09 1.84696e-14 0
-7.14783e-09 1.47135e-14 0
-7.14783e-09 1.37383e-14 0
-7.14784e-09 1.56076e-14 0
0.0108063 -5.21405e-09 0
0 -1.64186e-08 0
1.16842e-13 6.59342e-10 0
-9.40057e-09 -1.55842e-09 0
-1.449e-08 -4.34196e-09 0
-9.53375e-09 -2.2788e-09 0
-3.0386e-14 -1.54641e-10 0
-4.0974e-13 -4.50079e-13 0
3.8361e-13 -4.49479e-13 0
-6.22995e-09 -4.36789e-09 0
-1.05875e-08 -6.14136e-09 0
-9.38952e-09 -1.16072e-09 0
-9.22552e-09 2.07786e-09 0
-8.83455e-09 2.71207e-09 0
-8.0618e-09 2.19165e-09 0
-7.48649e-09 1.63298e-09 0
-7.17384e-09 1.16565e-09 0
-7.01778e-09 7.95968e-10 0
-6.93867e-09 5.27034e-10 0
-6.89663e-09 3.43852e-10 0
-6.87347e-09 2.23839e-10 0
-6.86065e-09 1.46622e-10 0
-6.8538e-09 9.71253e-11 0
-6.85042e-09 6.52133e-11 0
-6.84902e-09 4.43977e-11 0
-6.8487e-09 3.06196e-11 0
-6.84891e-09 2.13572e-11 0
-6.84934e-09 1.50373e-11 0
-6.84982e-09 1.06675e-11 0
-6.85028e-09 7.61181e-12 0
-6.85068e-09 5.45527e-12 0
-6.851e-09 3.92221e-12 0
-6.85126e-09 2.8263e-12 0
-6.85146e-09 2.03963e-12 0
-6.85161e-09 1.47325e-12 0
-6.85172e-09 1.06462e-12 0
-6.85181e-09 7.69399e-13 0
-6.85187e-09 5.55938e-13 0
-6.85192e-09 4.01531e-13 0
-6.85195e-09 2.8983e-13 0
-6.85198e-09 2.09032e-13 0
-6.852e-09 1.50602e-13 0
-6.85201e-09 1.08357e-13 0
-6.85202e-09 7.78123e-14 0
-6.85203e-09 5.57019e-14 0
-6.85203e-09 3.96736e-14 0
-6.85203e-09 2.80742e-14 0
-6.85204e-09 1.97777e-14 0
-6.85203e-09 1.40482e-14 0
-6.85203e-09 1.06095e-14 0
-6.85204e-09 8.99211e-15 0
0.0108362 -2.43555e-09 0
0 -1.45596e-08 0
1.1174e-13 -6.96454e-10 0
-9.54543e-09 -2.4059e-09 0
-1.51954e-08 -3.71926e-09 0
-1.21008e-08 -3.68638e-09 0
-3.83084e-09 -1.67657e-09 0
-4.04123e-13 3.88612e-13 0
-5.00941e-15 5.00941e-15 0
3.59439e-13 -4.07775e-13 0
-4.75069e-09 -2.44188e-09 0
-6.87266e-09 -1.55284e-09 0
-9.54639e-09 2.60093e-09 0
-1.05716e-08 2.79645e-09 0
-9.62596e-09 1.77831e-09 0
-8.50312e-09 1.16698e-09 0
-7.76546e-09 7.89946e-10 0
-7.34702e-09 5.24106e-10 0
-7.11593e-09 3.43e-10 0
-6.98739e-09 2.25674e-10 0
-6.91509e-09 1.5114e-10 0
-6.87415e-09 1.03466e-10 0
-6.8509e-09 7.22912e-11 0
-6.8377e-09 5.13358e-11 0
-6.83023e-09 3.68786e-11 0
-6.82601e-09 2.66933e-11 0
-6.82364e-09 1.94081e-11 0
-6.82231e-09 1.41452e-11 0
-6.82157e-09 1.03199e-11 0
-6.82116e-09 7.53013e-12 0
-6.82093e-09 5.49241e-12 0
-6.82081e-09 4.0033e-12 0
-6.82074e-09 2.91536e-12 0
-6.8207e-09 2.12101e-12 0
-6.82068e-09 1.54151e-12 0
-6.82067e-09 1.11917e-12 0
-6.82066e-09 8.11672e-13 0
-6.82066e-09 5.88024e-13 0
-6.82066e-09 4.25527e-13 0
-6.82065e-09 3.07575e-13 0
-6.82065e-09 2.22032e-13 0
-6.82065e-09 1.60036e-13 0
-6.82065e-09 1.1512e-13 0
-6.82065e-09 8.25694e-14 0
-6.82065e-09 5.89513e-14 0
-6.82065e-09 4.17556e-14 0
-6.82065e-09 2.91272e-14 0
-6.82065e-09 1.96967e-14 0
-6.82065e-09 1.25165e-14 0
-6.82064e-09 7.04266e-15 0
-6.82065e-09 2.76235e-15 0
0.0108384 2.56863e-10 0
0 -1.03603e-08 0
1.06195e-13 -1.58511e-09 0
-9.03561e-09 -3.39108e-09 0
-1.4983e-08 -2.87494e-09 0
-1.27676e-08 -2.07194e-09 0
-8.3713e-09 -2.96705e-09 0
-3.75358e-09 -1.96408e-09 0
-4.07922e-13 3.69298e-13 0
-9.8655e-15 9.8655e-15 0
3.41062e-13 -3.77812e-13 0
-2.54049e-09 3.00412e-09 0
-9.26544e-09 5.84649e-09 0
-1.29942e-08 3.7355e-09 0
-1.16138e-08 1.09914e-09 0
-9.4151e-09 2.85081e-10 0
-8.10095e-09 1.32782e-10 0
-7.46928e-09 9.69846e-11 0
-7.17176e-09 8.05606e-11 0
-7.02604e-09 6.99752e-11 0
-6.95125e-09 6.10316e-11 0
-6.91111e-09 5.21621e-11 0
-6.88861e-09 4.33393e-11 0
-6.87547e-09 3.50417e-11 0
-6.86748e-09 2.76864e-11 0
-6.86246e-09 2.1473e-11 0
-6.8592e-09 1.64126e-11 0
-6.85704e-09 1.24022e-11 0
-6.85557e-09 9.28831e-12 0
-6.85455e-09 6.9073e-12 0
-6.85384e-09 5.10789e-12 0
-6.85334e-09 3.76022e-12 0
-6.85298e-09 2.75795e-12 0
-6.85272e-09 2.01667e-12 0
-6.85254e-09 1.47086e-12 0
-6.8524e-09 1.07041e-12 0
-6.8523e-09 7.77488e-13 0
-6.85223e-09 5.63745e-13 0
-6.85218e-09 4.08104e-13 0
-6.85214e-09 2.94972e-13 0
-6.85212e-09 2.12857e-13 0
-6.8521e-09 1.53322e-13 0
-6.85208e-09 1.10184e-13 0
-6.85207e-09 7.8916e-14 0
-6.85207e-09 5.62017e-14 0
-6.85206e-09 3.95878e-14 0
-6.85206e-09 2.72155e-14 0
-6.85205e-09 1.76211e-14 0
-6.85205e-09 9.66876e-15 0
-6.85204e-09 2.59987e-15 0
-6.85205e-09 -3.88608e-15 0
0.0108362 2.9152e-09 0
0 -7.52181e-09 0
8.55716e-14 -2.26083e-09 0
-8.72135e-09 -3.98794e-09 0
-1.41618e-08 -2.55104e-09 0
-1.25154e-08 -1.32896e-09 0
-9.22169e-09 -1.60612e-09 0
-7.70477e-09 -4.18608e-09 0
-5.15165e-09 -3.08499e-09 0
-4.2547e-13 3.13125e-13 0
3.15682e-13 2.59818e-13 0
3.54035e-14 6.3277e-09 0
-6.8524e-09 1.12781e-08 0
-1.25703e-08 5.37762e-09 0
-1.20729e-08 -2.54167e-10 0
-9.65141e-09 -1.11885e-09 0
-8.16347e-09 -6.36375e-10 0
-7.54189e-09 -2.81157e-10 0
-7.3146e-09 -1.09041e-10 0
-7.23325e-09 -2.76406e-11 0
-7.20181e-09 9.61197e-12 0
-7.18699e-09 2.41869e-11 0
-7.17791e-09 2.74076e-11 0
-7.17123e-09 2.54686e-11 0
-7.16594e-09 2.16216e-11 0
-7.16171e-09 1.74528e-11 0
-7.15837e-09 1.36534e-11 0
-7.15577e-09 1.04612e-11 0
-7.15377e-09 7.9e-12 0
-7.15225e-09 5.90372e-12 0
-7.1511e-09 4.37762e-12 0
-7.15025e-09 3.22675e-12 0
-7.14961e-09 2.3674e-12 0
-7.14914e-09 1.73046e-12 0
-7.14879e-09 1.26104e-12 0
-7.14854e-09 9.16615e-13 0
-7.14835e-09 6.64807e-13 0
-7.14821e-09 4.81241e-13 0
-7.14811e-09 3.47744e-13 0
-7.14804e-09 2.50853e-13 0
-7.14799e-09 1.80645e-13 0
-7.14795e-09 1.29832e-13 0
-7.14792e-09 9.30776e-14 0
-7.1479e-09 6.64736e-14 0
-7.14789e-09 4.71507e-14 0
-7.14788e-09 3.29764e-14 0
-7.14787e-09 2.2304e-14 0
-7.14786e-09 1.37233e-14 0
-7.14786e-09 5.87251e-15 0
-7.14785e-09 -2.49308e-15 0
-7.14786e-09 -1.15609e-14 0
0.0108063 5.57504e-09 0
0 -7.05063e-09 0
5.8449e-14 -2.50881e-09 0
-8.84905e-09 -4.17515e-09 0
-1.358e-08 -2.24641e-09 0
-1.27305e-08 -8.83256e-10 0
-1.04317e-08 -9.39211e-10 0
-8.48028e-09 -2.2449e-09 0
-9.40026e-09 -5.96137e-09 0
-7.95726e-09 -4.35249e-09 0
-1.05181e-08 -9.20097e-18 0
-1.05185e-08 6.46286e-09 0
-6.78559e-09 1.25771e-08 0
-6.54577e-09 6.62747e-09 0
-8.26056e-09 -6.97858e-10 0
-8.69981e-09 -1.96724e-09 0
-8.67973e-09 -1.05329e-09 0
-8.69396e-09 -3.88723e-10 0
-8.73878e-09 -1.07433e-10 0
-8.77479e-09 -6.60687e-12 0
-8.79346e-09 2.47095e-11 0
-8.79917e-09 3.07889e-11 0
-8.79767e-09 2.8306e-11 0
-8.79304e-09 2.34718e-11 0
-8.78756e-09 1.85397e-11 0
-8.78236e-09 1.42511e-11 0
-8.77789e-09 1.07695e-11 0
-8.77424e-09 8.04481e-12 0
-8.77137e-09 5.9597e-12 0
-8.76916e-09 4.3876e-12 0
-8.76748e-09 3.21465e-12 0
-8.76622e-09 2.34622e-12 0
-8.76528e-09 1.70702e-12 0
-8.76458e-09 1.23868e-12 0
-8.76407e-09 8.96803e-13 0
-8.76369e-09 6.47985e-13 0
-8.76342e-09 4.67355e-13 0
-8.76322e-09 3.36509e-13 0
-8.76307e-09 2.41905e-13 0
-8.76296e-09 1.73615e-13 0
-8.76289e-09 1.24388e-13 0
-8.76283e-09 8.89371e-14 0
-8.76279e-09 6.34148e-14 0
-8.76276e-09 4.5017e-14 0
-8.76274e-09 3.16872e-14 0
-8.76272e-09 2.18928e-14 0
-8.76271e-09 1.44363e-14 0
-8.76271e-09 8.19749e-15 0
-8.7627e-09 1.6557e-15 0
-8.7627e-09 -7.7779e-15 0
-8.7627e-09 -2.18194e-14 0
0.0105182 7.85169e-09 0
0 -7.84396e-09 0
3.32802e-14 -1.71937e-09 0
-9.1069e-09 -2.80988e-09 0
-1.34857e-08 -1.51043e-09 0
-1.37825e-08 -7.65891e-10 0
-1.31556e-08 -1.08689e-09 0
-1.19548e-08 -1.78717e-09 0
-1.10707e-08 -1.52063e-09 0
-1.36805e-08 2.38537e-09 0
-1.4183e-08 3.7113e-09 0
-1.44571e-08 -1.56563e-09 0
-1.09952e-08 -4.23845e-09 0
-9.97212e-09 -1.78071e-09 0
-1.1719e-08 8.26126e-10 0
-1.24789e-08 1.46852e-09 0
-1.24289e-08 1.08305e-09 0
-1.2275e-08 6.03006e-10 0
-1.21767e-08 3.0302e-10 0
-1.21224e-08 1.51448e-10 0
-1.20899e-08 7.96228e-11 0
-1.20676e-08 4.5093e-11 0
-1.20511e-08 2.74549e-11 0
-1.20383e-08 1.76909e-11 0
-1.20285e-08 1.18513e-11 0
-1.20209e-08 8.13871e-12 0
-1.20152e-08 5.67528e-12 0
-1.20108e-08 3.99457e-12 0
-1.20076e-08 2.82748e-12 0
-1.20052e-08 2.00804e-12 0
-1.20035e-08 1.4287e-12 0
-1.20022e-08 1.01734e-12 0
-1.20012e-08 7.2452e-13 0
-1.20006e-08 5.15793e-13 0
-1.20001e-08 3.66926e-13 0
-1.19997e-08 2.60754e-13 0
-1.19994e-08 1.85067e-13 0
-1.19993e-08 1.31152e-13 0
-1.19991e-08 9.27848e-14 0
-1.1999e-08 6.55123e-14 0
-1.1999e-08 4.61484e-14 0
-1.19989e-08 3.24129e-14 0
-1.19989e-08 2.26706e-14 0
-1.19988e-08 1.57446e-14 0
-1.19988e-08 1.07779e-14 0
-1.19988e-08 7.12533e-15 0
-1.19988e-08 4.2586e-15 0
-1.19988e-08 1.617e-15 0
-1.19988e-08 -1.95659e-15 0
-1.19988e-08 -1.04447e-14 0
-1.19988e-08 -3.01091e-14 0
0.00853811 7.26102e-09 0
0 0 0
1.29797e-14 0 0
-4.55255e-09 0 0
-6.73739e-09 0 0
-7.29598e-09 0 0
-7.40519e-09 0 0
-7.42577e-09 0 0
-6.82211e-09 0 0
-5.72332e-09 0 0
-3.66491e-09 0 0
-3.93857e-09 0 0
-6.63118e-09 0 0
-8.80873e-09 0 0
-9.1739e-09 0 0
-8.52434e-09 0 0
-7.82596e-09 0 0
-7.39274e-09 0 0
-7.17219e-09 0 0
-7.06647e-09 0 0
-7.01484e-09 0 0
-6.98786e-09 0 0
-6.97248e-09 0 0
-6.96298e-09 0 0
-6.95674e-09 0 0
-6.95249e-09 0 0
-6.94953e-09 0 0
-6.94743e-09 0 0
-6.94594e-09 0 0
-6.94488e-09 0 0
-6.94412e-09 0 0
-6.94357e-09 0 0
-6.94319e-09 0 0
-6.94291e-09 0 0
-6.94271e-09 0 0
-6.94257e-09 0 0
-6.94247e-09 0 0
-6.9424e-09 0 0
-6.94235e-09 0 0
-6.94231e-09 0 0
-6.94229e-09 0 0
-6.94227e-09 0 0
-6.94226e-09 0 0
-6.94225e-09 0 0
-6.94224e-09 0 0
-6.94224e-09 0 0
-6.94223e-09 0 0
-6.94223e-09 0 0
-6.94223e-09 0 0
-6.94224e-09 0 0
-6.94225e-09 0 0
0.00340923 0 0
0 0 7.6403e-09
3.09729e-14 0 2.31858e-09
-1.27508e-08 0 2.95506e-09
-1.87154e-08 0 -1.54057e-09
-1.68097e-08 0 -6.75281e-09
-6.73031e-10 0 -6.04926e-09
1.71141e-09 0 -1.49411e-09
-6.00655e-10 0 5.25078e-10
-3.73585e-09 0 8.35126e-10
-6.12469e-09 0 2.37032e-10
-7.46632e-09 0 -2.26575e-10
-8.42072e-09 0 -3.21689e-10
-9.24189e-09 0 -2.32304e-10
-9.92352e-09 0 -1.20523e-10
-1.04746e-08 0 -4.4306e-11
-1.09124e-08 0 -5.86055e-12
-1.12472e-08 0 8.22681e-12
-1.14924e-08 0 1.04667e-11
-1.16656e-08 0 8.42454e-12
-1.17847e-08 0 5.63141e-12
-1.18651e-08 0 3.3409e-12
-1.19189e-08 0 1.78527e-12
-1.19546e-08 0 8.40886e-13
-1.19784e-08 0 3.162e-13
-1.19943e-08 0 5.02373e-14
-1.20049e-08 0 -6.83627e-14
-1.20121e-08 0 -1.08972e-13
-1.2017e-08 0 -1.11772e-13
-1.20204e-08 0 -9.86294e-14
-1.20228e-08 0 -8.06756e-14
-1.20244e-08 0 -6.30898e-14
-1.20256e-08 0 -4.79222e-14
-1.20264e-08 0 -3.5683e-14
-1.2027e-08 0 -2.61961e-14
-1.20274e-08 0 -1.90332e-14
-1.20277e-08 0 -1.37217e-14
-1.20279e-08 0 -9.83321e-15
-1.20281e-08 0 -7.01295e-15
-1.20282e-08 0 -4.98137e-15
-1.20282e-08 0 -3.52355e-15
-1.20283e-08 0 -2.47842e-15
-1.20283e-08 0 -1.72667e-15
-1.20284e-08 0 -1.17708e-15
-1.20284e-08 0 -7.5989e-16
-1.20284e-08 0 -4.24699e-16
-1.20284e-08 0 -1.68154e-16
-1.20284e-08 0 -4.88638e-17
-1.20284e-08 0 3.03072e-16
-1.20284e-08 0 4.72626e-15
-1.20285e-08 0 2.3166e-14
0.00853595 0 -6.35533e-09
0.0036 5.51495e-09 4.47213e-09
0.00359999 -0.00258882 -0.000996329
0.00931637 -0.00661133 -0.00256125
0.018681 -0.00908087 -0.00335789
0.0302575 -0.0113905 -0.00345001
0.0464962 -0.00704734 -0.00194113
0.0479569 4.33258e-05 -0.000142678
0.0472541 0.00296323 0.00039158
0.0418828 0.00450968 0.000265551
0.0364453 0.00428437 -0.000104719
0.0317424 0.0035054 -0.000249493
0.0280863 0.00260304 -0.000220203
0.0255427 0.00178864 -0.000142172
0.0239048 0.00116285 -7.63343e-05
0.022895 0.000728923 -3.57082e-05
0.0222906 0.000444249 -1.47968e-05
0.0219383 0.000263992 -5.38707e-06
0.0217383 0.000153174 -1.64168e-06
0.0216279 8.68297e-05 -3.56669e-07
0.0215688 4.80605e-05 -1.71373e-08
0.0215383 2.59133e-05 1.49505e-08
0.0215235 1.35414e-05 -2.26778e-08
0.0215169 6.79146e-06 -5.64178e-08
0.0215144 3.20708e-06 -7.21553e-08
0.0215139 1.36697e-06 -7.33749e-08
0.0215142 4.65418e-07 -6.63504e-08
0.0215148 5.47272e-08 -5.59483e-08
0.0215155 -1.08653e-07 -4.50983e-08
0.021516 -1.54013e-07 -3.52614e-08
0.0215165 -1.47924e-07 -2.69905e-08
0.0215169 -1.23251e-07 -2.03496e-08
0.0215171 -9.5208e-08 -1.51762e-08
0.0215173 -7.00641e-08 -1.12285e-08
0.0215175 -4.97738e-08 -8.2595e-09
0.0215176 -3.43653e-08 -6.0496e-09
0.0215176 -2.31304e-08 -4.41705e-09
0.0215177 -1.51842e-08 -3.21771e-09
0.0215177 -9.70365e-09 -2.34037e-09
0.0215177 -6.00947e-09 -1.70094e-09
0.0215177 -3.57683e-09 -1.23684e-09
0.0215178 -2.01708e-09 -9.0233e-10
0.0215178 -1.05134e-09 -6.64861e-10
0.0215178 -4.8499e-10 -5.02496e-10
0.0215178 -1.86785e-10 -4.02188e-10
0.0215178 -7.5894e-11 -3.5953e-10
0.0215178 -1.19165e-10 -3.75989e-10
0.0215178 -3.03533e-10 -4.00478e-10
0.0215178 -6.95969e-10 -3.08244e-10
0.0215178 -3.19198e-09 -1.6185e-09
0.0215178 -1.31941e-08 -9.63396e-09
0.0215178 -2.09674e-08 -1.62459e-08
0.01 5.77633e-09 -5.91466e-09
0.01 -0.00486426 -0.00174629
0.0156691 -0.0130476 -0.00412038
0.0248284 -0.0185881 -0.00473182
0.0363141 -0.0255184 -0.00380482
0.0547663 -0.0162342 -0.000938634
0.0540092 -0.000329687 0.00118703
0.0546355 0.00617451 0.00135492
0.0481895 0.0108772 0.000847169
0.0415452 0.0102733 2.69182e-06
0.0362836 0.00850111 -0.000374984
0.0323743 0.00630784 -0.000352808
0.0298585 0.00424816 -0.000227981
0.0283856 0.00268277 -0.000121162
0.0275534 0.00163044 -5.52861e-05
0.0270956 0.000963311 -2.17202e-05
0.0268518 0.000554593 -6.87269e-06
0.0267272 0.000311051 -1.16186e-06
0.0266669 0.000169606 6.15546e-07
0.0266401 8.94733e-05 9.0759e-07
0.0266301 4.52165e-05 7.4455e-07
0.026628 2.14531e-05 5.09174e-07
0.0266293 9.1243e-06 3.16921e-07
0.0266316 3.02003e-06 1.85438e-07
0.0266341 2.09035e-07 1.03326e-07
0.0266363 -9.21729e-07 5.49441e-08
0.0266381 -1.2386e-06 2.76677e-08
0.0266395 -1.19342e-06 1.28864e-08
0.0266406 -1.01282e-06 5.20806e-09
0.0266414 -8.03922e-07 1.43017e-09
0.0266419 -6.12463e-07 -2.7861e-10
0.0266423 -4.53911e-07 -9.3346e-10
0.0266426 -3.2982e-07 -1.08092e-09
0.0266428 -2.36105e-07 -1.00596e-09
0.026643 -1.67041e-07 -8.51198e-10
0.0266431 -1.1704e-07 -6.83869e-10
0.0266432 -8.13293e-08 -5.32477e-10
0.0266432 -5.61006e-08 -4.06527e-10
0.0266432 -3.84409e-08 -3.0687e-10
0.0266433 -2.61821e-08 -2.31035e-10
0.0266433 -1.77435e-08 -1.75947e-10
0.0266433 -1.19911e-08 -1.39356e-10
0.0266433 -8.12596e-09 -1.20638e-10
0.0266433 -5.60046e-09 -1.20969e-10
0.0266433 -4.06367e-09 -1.42302e-10
0.0266433 -3.3726e-09 -1.85883e-10
0.0266433 -3.83368e-09 -2.1722e-10
0.0266433 -6.43591e-09 -1.35377e-10
0.0266433 -1.15237e-08 -1.86612e-09
0.0266433 -1.86444e-08 -1.17616e-08
0.0266433 -2.26814e-08 -1.98407e-08
0.0148 -1.29927e-08 -7.31101e-09
0.0148 -0.00650394 -0.00234137
0.0191634 -0.017312 -0.00560496
0.024951 -0.0251718 -0.00616957
0.0286019 -0.0375237 -0.00425042
0.0274675 -0.0231603 -0.000735249
0.0261145 -1.58755e-07 0.00115354
0.0267326 0.00854841 0.00123243
0.0319428 0.0175282 0.00101467
0.0312301 0.0163204 0.000325913
0.0293533 0.0128666 -0.000120328
0.0279811 0.0091798 -0.000227186
0.0272874 0.00587223 -0.000172926
0.0270688 0.00351828 -9.47958e-05
0.0270484 0.00204188 -3.85789e-05
0.0270998 0.00115475 -9.69899e-06
0.0271682 0.000635191 1.63172e-06
0.0272307 0.000338551 4.53263e-06
0.0272802 0.000173597 4.2332e-06
0.0273165 8.4398e-05 3.11127e-06
0.027342 3.76754e-05 2.04485e-06
0.0273594 1.41762e-05 1.25841e-06
0.0273712 3.03569e-06 7.41022e-07
0.0273791 -1.73651e-06 4.22267e-07
0.0273844 -3.36703e-06 2.34161e-07
0.0273879 -3.54858e-06 1.26568e-07
0.0273903 -3.1399e-06 6.65491e-08
0.0273919 -2.55622e-06 3.38134e-08
0.027393 -1.98314e-06 1.63638e-08
0.0273937 -1.49154e-06 7.30777e-09
0.0273942 -1.09805e-06 2.77129e-09
0.0273946 -7.959e-07 6.16293e-10
0.0273948 -5.70143e-07 -3.17156e-10
0.027395 -4.04663e-07 -6.47146e-10
0.0273951 -2.85059e-07 -6.96129e-10
0.0273952 -1.99537e-07 -6.27712e-10
0.0273952 -1.38906e-07 -5.21619e-10
0.0273953 -9.62234e-08 -4.14257e-10
0.0273953 -6.63617e-08 -3.2037e-10
0.0273953 -4.55906e-08 -2.44464e-10
0.0273953 -3.12315e-08 -1.86758e-10
0.0273954 -2.13827e-08 -1.46265e-10
0.0273954 -1.47143e-08 -1.22324e-10
0.0273954 -1.0327e-08 -1.15736e-10
0.0273954 -7.67505e-09 -1.31948e-10
0.0273954 -6.50786e-09 -1.85682e-10
0.0273954 -6.65334e-09 -2.71017e-10
0.0273954 -7.89056e-09 -3.39962e-10
0.0273954 -1.03344e-08 -2.2803e-09
0.0273954 -1.39733e-08 -1.19052e-08
0.0273954 -1.60325e-08 -1.96121e-08
0.018 -3.05079e-08 -1.37085e-08
0.018 -0.00677529 -0.00309713
0.0195666 -0.0170792 -0.00746129
0.0199248 -0.0208677 -0.00749798
0.0162262 -0.0221565 -0.0050551
-1.17973e-08 -0.0115928 -0.00192128
1.69291e-06 6.38916e-07 5.76155e-09
-7.03757e-07 7.51123e-07 0.000210356
0.00847625 0.00615876 0.000419661
0.0174025 0.0128494 0.000335937
0.0203151 0.0118396 0.000122231
0.021769 0.00847448 -6.70275e-05
0.0233694 0.00523315 -0.000110366
0.0247497 0.00296193 -6.6799e-05
0.0257425 0.00161641 -2.07562e-05
0.0264032 0.000848317 3.02992e-06
0.0268245 0.000423449 1.02479e-05
0.0270854 0.000197391 9.89987e-06
0.0272435 8.21975e-05 7.34139e-06
0.0273378 2.6478e-05 4.80819e-06
0.0273936 1.49415e-06 2.9266e-06
0.0274264 -8.24229e-06 1.69563e-06
0.0274456 -1.0814e-05 9.46394e-07
0.0274569 -1.03034e-05 5.11345e-07
0.0274636 -8.69089e-06 2.67269e-07
0.0274675 -6.88108e-06 1.34184e-07
0.0274699 -5.24484e-06 6.35821e-08
0.0274713 -3.89932e-06 2.72741e-08
0.0274722 -2.84921e-06 9.35474e-09
0.0274727 -2.05582e-06 1.05377e-09
0.0274731 -1.46929e-06 -2.36871e-09
0.0274733 -1.04228e-06 -3.4226e-09
0.0274734 -7.34901e-07 -3.40558e-09
0.0274735 -5.1554e-07 -2.96763e-09
0.0274735 -3.60058e-07 -2.4191e-09
0.0274736 -2.50468e-07 -1.89657e-09
0.0274736 -1.73592e-07 -1.45064e-09
0.0274736 -1.19894e-07 -1.09165e-09
0.0274736 -8.2536e-08 -8.12883e-10
0.0274736 -5.66534e-08 -6.01974e-10
0.0274736 -3.8807e-08 -4.46348e-10
0.0274736 -2.65832e-08 -3.35793e-10
0.0274736 -1.83043e-08 -2.6399e-10
0.0274737 -1.28174e-08 -2.30332e-10
0.0274737 -9.32415e-09 -2.44924e-10
0.0274737 -7.25059e-09 -3.34917e-10
0.0274737 -6.19873e-09 -4.85372e-10
0.0274737 -5.89421e-09 -5.84651e-10
0.0274737 -6.31548e-09 -2.4799e-09
0.0274736 -7.36984e-09 -1.17665e-08
0.0274736 -8.00755e-09 -1.91751e-08
0.0196 -3.59349e-08 -3.04112e-08
0.0196 -0.00493191 -0.00371859
0.0190855 -0.0111149 -0.00856547
0.0170212 -0.0125775 -0.00793541
0.0128223 -0.0104994 -0.00510338
0.00315506 -0.00410487 -0.00247772
1.30255e-06 -1.20632e-06 -0.000462838
5.02563e-07 -5.02563e-07 -8.94797e-10
-6.79582e-07 7.27932e-07 4.00642e-05
0.00614646 0.00440562 0.000100408
0.0128242 0.00848894 7.89411e-05
0.0159588 0.00616488 -5.55389e-05
0.0196998 0.00294122 -0.000142413
0.0227401 0.00117614 -9.90748e-05
0.0247352 0.000399915 -3.6168e-05
0.0259293 7.35295e-05 -1.02181e-06
0.0266162 -5.00132e-05 1.01716e-05
0.0270034 -8.38096e-05 1.03942e-05
0.0272191 -8.15276e-05 7.5557e-06
0.027338 -6.75464e-05 4.75695e-06
0.0274033 -5.19965e-05 2.76043e-06
0.0274388 -3.84822e-05 1.51488e-06
0.027458 -2.78413e-05 7.93497e-07
0.0274683 -1.98695e-05 3.95777e-07
0.0274738 -1.40605e-05 1.84897e-07
0.0274767 -9.89592e-06 7.72743e-08
0.0274782 -6.93963e-06 2.48534e-08
0.027479 -4.85395e-06 1.05292e-09
0.0274793 -3.38834e-06 -8.41705e-09
0.0274795 -2.36125e-06 -1.10484e-08
0.0274796 -1.6429e-06 -1.06647e-08
0.0274796 -1.14128e-06 -9.15112e-09
0.0274796 -7.91518e-07 -7.38973e-09
0.0274796 -5.47975e-07 -5.7569e-09
0.0274796 -3.78639e-07 -4.38316e-09
0.0274796 -2.61084e-07 -3.28636e-09
0.0274796 -1.79615e-07 -2.43812e-09
0.0274795 -1.23266e-07 -1.79576e-09
0.0274795 -8.43783e-08 -1.31663e-09
0.0274795 -5.76156e-08 -9.63919e-10
0.0274795 -3.9262e-08 -7.08485e-10
0.0274795 -2.67356e-08 -5.29243e-10
0.0274795 -1.82424e-08 -4.13405e-10
0.0274795 -1.25314e-08 -3.57041e-10
0.0274795 -8.7217e-09 -3.66005e-10
0.0274795 -6.17308e-09 -4.56861e-10
0.0274795 -4.38806e-09 -6.0533e-10
0.0274795 -2.95608e-09 -6.89467e-10
0.0274795 -1.67057e-09 -2.54557e-09
0.0274795 -4.71922e-10 -1.16947e-08
0.0274795 1.15844e-10 -1.89921e-08
0.0196 -1.94852e-08 -4.44264e-08
0.0196 -0.0026373 -0.00392715
0.0192289 -0.00539262 -0.00855782
0.0185076 -0.00479487 -0.00767471
0.0156776 -0.00137718 -0.00475477
0.0117799 0.00439074 -0.00260999
0.00714788 0.00372838 -0.00111946
1.30452e-06 -1.10812e-06 -0.000220238
4.2854e-07 -4.2854e-07 -1.85402e-09
-6.5089e-07 7.08275e-07 1.05968e-05
0.00440233 0.00201347 0.000202899
0.00989731 0.00163127 0.000139186
0.0167031 -0.00148457 -0.000188878
0.0217844 -0.00202805 -0.000220384
0.0246346 -0.00155337 -0.000115183
0.0260658 -0.00102888 -3.6541e-05
0.0267743 -0.000652869 -4.7722e-06
0.0271282 -0.00040872 3.37808e-06
0.0273058 -0.000255021 3.78085e-06
0.0273945 -0.000159435 2.56696e-06
0.0274384 -0.000100235 1.46139e-06
0.0274596 -6.35272e-05 7.45718e-07
0.0274695 -4.06479e-05 3.4202e-07
0.0274738 -2.6273e-05 1.33055e-07
0.0274754 -1.71522e-05 3.29717e-08
0.0274758 -1.1303e-05 -1.02919e-08
0.0274756 -7.51117e-06 -2.56081e-08
0.0274753 -5.02746e-06 -2.81098e-08
0.027475 -3.38515e-06 -2.53703e-08
0.0274746 -2.29014e-06 -2.09913e-08
0.0274744 -1.55488e-06 -1.65646e-08
0.0274742 -1.05832e-06 -1.27023e-08
0.0274741 -7.21448e-07 -9.56261e-09
0.0274739 -4.92142e-07 -7.11058e-09
0.0274739 -3.35689e-07 -5.24251e-09
0.0274738 -2.28795e-07 -3.8423e-09
0.0274738 -1.55721e-07 -2.80442e-09
0.0274737 -1.05778e-07 -2.04139e-09
0.0274737 -7.16788e-08 -1.48426e-09
0.0274737 -4.84369e-08 -1.08064e-09
0.0274737 -3.26346e-08 -7.92124e-10
0.0274737 -2.19224e-08 -5.92068e-10
0.0274737 -1.46789e-08 -4.63936e-10
0.0274737 -9.77428e-09 -4.00561e-10
0.0274737 -6.40286e-09 -4.05659e-10
0.0274737 -3.95804e-09 -4.95506e-10
0.0274737 -1.92143e-09 -6.43972e-10
0.0274737 2.40301e-10 -7.15577e-10
0.0274737 3.00466e-09 -2.54148e-09
0.0274737 6.40479e-09 -1.16988e-08
0.0274736 8.22326e-09 -1.90224e-08
0.018 -1.19229e-08 -4.49055e-08
0.018 -0.000789609 -0.00382837
0.0188354 -0.0010256 -0.00806603
0.0200005 0.000340918 -0.00694404
0.0199763 0.00274119 -0.00420568
0.0198045 0.00793408 -0.00232821
0.0201002 0.0131784 -0.00119209
0.0124341 0.00740853 -0.000546354
1.33585e-06 -8.80393e-07 -0.000183125
-5.31826e-07 -9.90833e-07 8.9842e-09
1.24927e-07 -0.00146669 0.000699763
0.00982781 -0.00615596 0.000801387
0.018314 -0.00885351 -5.07158e-05
0.02356 -0.00666185 -0.00027963
0.0259907 -0.00383064 -0.00018491
0.0269327 -0.00204722 -7.77678e-05
0.0272729 -0.00110791 -2.62664e-05
0.0273899 -0.000615359 -7.79255e-06
0.027425 -0.000348791 -2.06891e-06
0.0274307 -0.000200947 -4.90365e-07
0.0274266 -0.000117551 -1.22782e-07
0.0274203 -6.98276e-05 -6.42901e-08
0.0274143 -4.21277e-05 -6.41356e-08
0.0274094 -2.58113e-05 -6.44993e-08
0.0274055 -1.60529e-05 -5.83352e-08
0.0274027 -1.01256e-05 -4.86311e-08
0.0274006 -6.46983e-06 -3.8437e-08
0.0273991 -4.18151e-06 -2.93639e-08
0.027398 -2.7292e-06 -2.19533e-08
0.0273972 -1.79582e-06 -1.61903e-08
0.0273967 -1.18928e-06 -1.18384e-08
0.0273963 -7.91414e-07 -8.61044e-09
0.027396 -5.28401e-07 -6.2425e-09
0.0273958 -3.53474e-07 -4.51715e-09
0.0273957 -2.36604e-07 -3.2652e-09
0.0273956 -1.58283e-07 -2.35907e-09
0.0273955 -1.05706e-07 -1.70438e-09
0.0273955 -7.0393e-08 -1.23216e-09
0.0273954 -4.66927e-08 -8.92555e-10
0.0273954 -3.08136e-08 -6.49976e-10
0.0273954 -2.02007e-08 -4.7972e-10
0.0273954 -1.31229e-08 -3.65701e-10
0.0273954 -8.39678e-09 -2.99244e-10
0.0273954 -5.19891e-09 -2.78812e-10
0.0273954 -2.9324e-09 -3.11994e-10
0.0273954 -1.12565e-09 -4.19009e-10
0.0273954 6.73255e-10 -5.78674e-10
0.0273954 3.08819e-09 -6.44846e-10
0.0273954 7.07262e-09 -2.43247e-09
0.0273954 1.2897e-08 -1.17352e-08
0.0273954 1.61953e-08 -1.92323e-08
0.0148 -8.64914e-09 -3.95582e-08
0.0148 0.000194117 -0.00357985
0.0172732 0.00108351 -0.00720779
0.0204691 0.00251779 -0.00584591
0.0229234 0.00458193 -0.00346788
0.0248123 0.00747719 -0.00208807
0.0278923 0.0126765 -0.00130246
0.0310534 0.0206962 -0.000707821
0.02538 0.0125433 -6.18247e-05
0.0268033 1.50861e-14 0.000614252
0.0316915 -0.00804142 0.00163455
0.0352655 -0.0169204 0.00169328
0.0333845 -0.0151585 0.000422823
0.0305839 -0.00958084 -0.000240981
0.0287775 -0.00484416 -0.000273107
0.0278164 -0.00227363 -0.000142723
0.0273099 -0.00109585 -5.76261e-05
0.0270332 -0.000555947 -2.09537e-05
0.0268768 -0.000294238 -7.24761e-06
0.0267859 -0.000160609 -2.41171e-06
0.026732 -8.97592e-05 -7.54867e-07
0.0266993 -5.11533e-05 -2.01255e-07
0.0266793 -2.96624e-05 -2.38635e-08
0.0266667 -1.7479e-05 2.71612e-08
0.0266587 -1.04564e-05 3.68214e-08
0.0266535 -6.34413e-06 3.3827e-08
0.0266502 -3.89917e-06 2.77613e-08
0.026648 -2.42414e-06 2.17121e-08
0.0266465 -1.52195e-06 1.65592e-08
0.0266455 -9.63112e-07 1.24384e-08
0.0266448 -6.13051e-07 9.24756e-09
0.0266443 -3.91667e-07 6.82413e-09
0.026644 -2.50578e-07 5.00733e-09
0.0266438 -1.60147e-07 3.65803e-09
0.0266437 -1.01975e-07 2.66296e-09
0.0266435 -6.44981e-08 1.93303e-09
0.0266435 -4.03733e-08 1.39969e-09
0.0266434 -2.48927e-08 1.01093e-09
0.0266434 -1.50162e-08 7.27624e-10
0.0266434 -8.76842e-09 5.203e-10
0.0266434 -4.85826e-09 3.66426e-10
0.0266433 -2.43566e-09 2.48039e-10
0.0266433 -9.32354e-10 1.49564e-10
0.0266433 4.5602e-11 5.56596e-11
0.0266433 7.96136e-10 -5.21397e-11
0.0266433 1.58541e-09 -2.00294e-10
0.0266433 2.7185e-09 -3.77817e-10
0.0266433 4.78339e-09 -4.53756e-10
0.0266433 9.37683e-09 -2.16908e-09
0.0266433 1.7672e-08 -1.15546e-08
0.0266433 2.2743e-08 -1.92115e-08
0.01 -1.52993e-08 -3.69289e-08
0.01 0.00020314 -0.00302704
0.013255 0.000958085 -0.0056588
0.0173118 0.0018908 -0.00414031
0.0210494 0.00317804 -0.00235443
0.0252277 0.0057354 -0.00157425
0.0305241 0.00841964 -0.00147352
0.0391579 0.0105332 -0.00111131
0.0518331 0.00426885 -2.6425e-05