# vtk DataFile Version 2.0
Tobias Weinzierl: CPU, Manycore and Cluster Computing
ASCII

DATASET STRUCTURED_POINTS
DIMENSIONS  51 11 6

ORIGIN 0 0 0 

SPACING 0.1 0.1 0.1 

POINT_DATA 3366

VECTORS velocity float
0 0 0
-1.75609e-15 0 0
-1.39692e-08 0 0
-1.98881e-08 0 0
-2.02546e-08 0 0
-1.72635e-08 0 0
-2.13852e-08 0 0
-2.20021e-08 0 0
-2.08991e-08 0 0
-1.94922e-08 0 0
-1.88518e-08 0 0
-1.8799e-08 0 0
-1.90339e-08 0 0
-1.93756e-08 0 0
-1.9731e-08 0 0
-2.00527e-08 0 0
-2.03219e-08 0 0
-2.05364e-08 0 0
-2.07023e-08 0 0
-2.08281e-08 0 0
-2.09223e-08 0 0
-2.09924e-08 0 0
-2.10444e-08 0 0
-2.10828e-08 0 0
-2.11111e-08 0 0
-2.11321e-08 0 0
-2.11476e-08 0 0
-2.1159e-08 0 0
-2.11675e-08 0 0
-2.11737e-08 0 0
-2.11783e-08 0 0
-2.11817e-08 0 0
-2.11843e-08 0 0
-2.11861e-08 0 0
-2.11875e-08 0 0
-2.11885e-08 0 0
-2.11893e-08 0 0
-2.11898e-08 0 0
-2.11902e-08 0 0
-2.11905e-08 0 0
-2.11908e-08 0 0
-2.11909e-08 0 0
-2.11911e-08 0 0
-2.11911e-08 0 0
-2.11912e-08 0 0
-2.11913e-08 0 0
-2.11913e-08 0 0
-2.11913e-08 0 0
-2.11913e-08 0 0
-2.11914e-08 0 0
0.00556368 0 0
0 7.71407e-09 0
3.0208e-15 9.86066e-09 0
-2.44409e-08 1.55382e-08 0
-2.94992e-08 6.97394e-09 0
-2.67546e-08 -8.06708e-10 0
-1.47111e-08 1.86251e-09 0
-2.41487e-08 4.27381e-09 0
-2.41988e-08 -9.74113e-10 0
-2.17599e-08 -2.65463e-09 0
-1.99776e-08 -1.91448e-09 0
-2.06539e-08 -5.10621e-10 0
-2.22519e-08 3.19923e-10 0
-2.37782e-08 6.59549e-10 0
-2.50607e-08 7.41574e-10 0
-2.60935e-08 6.99701e-10 0
-2.68959e-08 6.02404e-10 0
-2.75016e-08 4.90027e-10 0
-2.79502e-08 3.84235e-10 0
-2.82786e-08 2.94177e-10 0
-2.8518e-08 2.21816e-10 0
-2.86921e-08 1.65675e-10 0
-2.88189e-08 1.23044e-10 0
-2.89114e-08 9.10938e-11 0
-2.89791e-08 6.73313e-11 0
-2.90288e-08 4.97339e-11 0
-2.90653e-08 3.67303e-11 0
-2.90921e-08 2.71299e-11 0
-2.9112e-08 2.00433e-11 0
-2.91266e-08 1.48115e-11 0
-2.91374e-08 1.09477e-11 0
-2.91454e-08 8.09314e-12 0
-2.91513e-08 5.98358e-12 0
-2.91557e-08 4.42414e-12 0
-2.9159e-08 3.27115e-12 0
-2.91614e-08 2.41854e-12 0
-2.91632e-08 1.788e-12 0
-2.91645e-08 1.32167e-12 0
-2.91654e-08 9.76755e-13 0
-2.91662e-08 7.21625e-13 0
-2.91667e-08 5.32873e-13 0
-2.91671e-08 3.9318e-13 0
-2.91674e-08 2.89729e-13 0
-2.91676e-08 2.13039e-13 0
-2.91678e-08 1.56113e-13 0
-2.91679e-08 1.13833e-13 0
-2.9168e-08 8.26331e-14 0
-2.9168e-08 6.07415e-14 0
-2.91681e-08 4.96967e-14 0
-2.91681e-08 5.95737e-14 0
-2.91682e-08 1.19305e-13 0
0.0118229 -2.29541e-08 0
0 -3.52404e-10 0
6.60585e-14 1.24097e-08 0
-2.39381e-08 1.92901e-08 0
-1.91374e-08 7.88615e-09 0
-1.51442e-08 -7.99678e-09 0
-2.04567e-08 -1.18157e-11 0
-1.9991e-08 8.31675e-09 0
-2.23469e-08 -3.53632e-09 0
-2.37468e-10 -4.2167e-09 0
2.03387e-11 -2.18008e-10 0
-3.07851e-09 3.03908e-09 0
-6.64537e-09 3.6011e-09 0
-9.19838e-09 3.0686e-09 0
-1.09572e-08 2.4449e-09 0
-1.21894e-08 1.89594e-09 0
-1.30444e-08 1.43567e-09 0
-1.36316e-08 1.06686e-09 0
-1.40343e-08 7.83134e-10 0
-1.4312e-08 5.71124e-10 0
-1.45055e-08 4.15506e-10 0
-1.4642e-08 3.02349e-10 0
-1.47392e-08 2.20374e-10 0
-1.48092e-08 1.60998e-10 0
-1.48601e-08 1.17913e-10 0
-1.48972e-08 8.65628e-11 0
-1.49244e-08 6.36798e-11 0
-1.49445e-08 4.69274e-11 0
-1.49593e-08 3.46303e-11 0
-1.49703e-08 2.55833e-11 0
-1.49784e-08 1.8915e-11 0
-1.49845e-08 1.3993e-11 0
-1.49889e-08 1.03559e-11 0
-1.49922e-08 7.66605e-12 0
-1.49947e-08 5.67565e-12 0
-1.49965e-08 4.2022e-12 0
-1.49979e-08 3.11115e-12 0
-1.49989e-08 2.3031e-12 0
-1.49996e-08 1.70458e-12 0
-1.50002e-08 1.26121e-12 0
-1.50006e-08 9.32707e-13 0
-1.50009e-08 6.89251e-13 0
-1.50011e-08 5.08752e-13 0
-1.50013e-08 3.74875e-13 0
-1.50014e-08 2.75599e-13 0
-1.50015e-08 2.02197e-13 0
-1.50016e-08 1.48474e-13 0
-1.50016e-08 1.09979e-13 0
-1.50017e-08 8.4224e-14 0
-1.50017e-08 7.29142e-14 0
-1.50017e-08 7.90765e-14 0
0.0125408 -1.68401e-08 0
0 -9.5661e-09 0
1.88843e-13 1.06583e-08 0
-2.94572e-08 1.68739e-08 0
-1.6627e-08 9.93055e-09 0
-1.13367e-08 1.02034e-08 0
-2.30091e-08 6.48852e-09 0
-1.72276e-08 4.49486e-14 0
-2.01501e-08 -2.48771e-08 0
-2.47058e-08 -2.57409e-08 0
-1.08892e-08 2.61196e-09 0
-8.47914e-09 7.59226e-09 0
-9.18758e-09 7.22153e-09 0
-1.0431e-08 5.35746e-09 0
-1.1498e-08 3.90569e-09 0
-1.2285e-08 2.85557e-09 0
-1.282e-08 2.0676e-09 0
-1.31755e-08 1.48515e-09 0
-1.34142e-08 1.06406e-09 0
-1.35785e-08 7.63608e-10 0
-1.36945e-08 5.50143e-10 0
-1.37783e-08 3.98235e-10 0
-1.38396e-08 2.89634e-10 0
-1.3885e-08 2.11545e-10 0
-1.39187e-08 1.55067e-10 0
-1.39439e-08 1.14e-10 0
-1.39627e-08 8.40024e-11 0
-1.39767e-08 6.20076e-11 0
-1.39872e-08 4.58321e-11 0
-1.3995e-08 3.39085e-11 0
-1.40009e-08 2.51038e-11 0
-1.40052e-08 1.85936e-11 0
-1.40085e-08 1.37755e-11 0
-1.40109e-08 1.02074e-11 0
-1.40127e-08 7.56383e-12 0
-1.4014e-08 5.60471e-12 0
-1.4015e-08 4.1526e-12 0
-1.40157e-08 3.07619e-12 0
-1.40163e-08 2.27823e-12 0
-1.40167e-08 1.68666e-12 0
-1.4017e-08 1.24804e-12 0
-1.40172e-08 9.22718e-13 0
-1.40174e-08 6.81301e-13 0
-1.40175e-08 5.01972e-13 0
-1.40176e-08 3.68541e-13 0
-1.40176e-08 2.69009e-13 0
-1.40177e-08 1.94626e-13 0
-1.40177e-08 1.39682e-13 0
-1.40177e-08 1.00882e-13 0
-1.40177e-08 7.58645e-14 0
-1.40178e-08 6.06773e-14 0
0.0125637 -1.07122e-08 0
0 -1.61152e-08 0
2.86848e-13 5.76684e-09 0
-3.62523e-08 7.74853e-09 0
-2.06812e-08 5.66644e-09 0
-9.47093e-09 8.69973e-09 0
-3.75284e-14 5.01496e-09 0
-1.01879e-12 -9.74904e-13 0
8.51965e-13 -1.04431e-12 0
-2.53291e-08 -1.55395e-08 0
-2.70249e-08 -1.64115e-08 0
-1.537e-08 2.15077e-09 0
-1.37962e-08 6.20804e-09 0
-1.34746e-08 5.7317e-09 0
-1.35622e-08 4.44356e-09 0
-1.36648e-08 3.2579e-09 0
-1.37238e-08 2.32552e-09 0
-1.37622e-08 1.64957e-09 0
-1.37946e-08 1.17484e-09 0
-1.38252e-08 8.43122e-10 0
-1.38538e-08 6.09835e-10 0
-1.38794e-08 4.441e-10 0
-1.39015e-08 3.25155e-10 0
-1.39199e-08 2.39038e-10 0
-1.39348e-08 1.76253e-10 0
-1.39467e-08 1.30234e-10 0
-1.39559e-08 9.63722e-11 0
-1.3963e-08 7.13851e-11 0
-1.39685e-08 5.29104e-11 0
-1.39726e-08 3.92323e-11 0
-1.39758e-08 2.90962e-11 0
-1.39781e-08 2.15807e-11 0
-1.39799e-08 1.60061e-11 0
-1.39812e-08 1.18706e-11 0
-1.39822e-08 8.80248e-12 0
-1.39829e-08 6.52623e-12 0
-1.39834e-08 4.8376e-12 0
-1.39838e-08 3.585e-12 0
-1.39841e-08 2.65591e-12 0
-1.39844e-08 1.96679e-12 0
-1.39845e-08 1.45562e-12 0
-1.39846e-08 1.07633e-12 0
-1.39847e-08 7.94693e-13 0
-1.39848e-08 5.85288e-13 0
-1.39848e-08 4.29228e-13 0
-1.39849e-08 3.12548e-13 0
-1.39849e-08 2.25015e-13 0
-1.39849e-08 1.59149e-13 0
-1.39849e-08 1.09566e-13 0
-1.39849e-08 7.20055e-14 0
-1.3985e-08 4.17735e-14 0
0.0125642 -5.23836e-09 0
0 -1.33165e-08 0
3.80206e-13 2.56986e-09 0
-4.13963e-08 4.16963e-09 0
-2.73945e-08 1.67074e-09 0
-1.63608e-08 -1.09574e-10 0
-7.97603e-09 -1.80547e-10 0
-1.00549e-12 9.34671e-13 0
-8.27075e-14 8.27075e-14 0
8.22624e-13 -8.81308e-13 0
-1.563e-08 -8.57891e-09 0
-1.67735e-08 -5.90251e-09 0
-1.77267e-08 5.64656e-09 0
-1.68047e-08 5.39093e-09 0
-1.58074e-08 4.18983e-09 0
-1.50593e-08 3.01928e-09 0
-1.45873e-08 2.13886e-09 0
-1.43134e-08 1.52893e-09 0
-1.416e-08 1.10694e-09 0
-1.40758e-08 8.09739e-10 0
-1.40303e-08 5.96596e-10 0
-1.40061e-08 4.41581e-10 0
-1.39936e-08 3.27737e-10 0
-1.39874e-08 2.43601e-10 0
-1.39845e-08 1.81185e-10 0
-1.39833e-08 1.34787e-10 0
-1.39829e-08 1.0026e-10 0
-1.39829e-08 7.4558e-11 0
-1.39831e-08 5.54268e-11 0
-1.39833e-08 4.11898e-11 0
-1.39835e-08 3.05987e-11 0
-1.39837e-08 2.27228e-11 0
-1.39838e-08 1.68683e-11 0
-1.39839e-08 1.25181e-11 0
-1.3984e-08 9.28692e-12 0
-1.39841e-08 6.88763e-12 0
-1.39841e-08 5.10662e-12 0
-1.39842e-08 3.78491e-12 0
-1.39842e-08 2.80425e-12 0
-1.39842e-08 2.07673e-12 0
-1.39842e-08 1.53698e-12 0
-1.39843e-08 1.13642e-12 0
-1.39843e-08 8.38928e-13 0
-1.39843e-08 6.17641e-13 0
-1.39843e-08 4.52557e-13 0
-1.39843e-08 3.28763e-13 0
-1.39843e-08 2.35114e-13 0
-1.39843e-08 1.63242e-13 0
-1.39843e-08 1.06811e-13 0
-1.39843e-08 6.06653e-14 0
-1.39843e-08 2.03739e-14 0
0.0125642 3.21226e-11 0
0 -8.55964e-09 0
4.19375e-13 -7.77084e-10 0
-4.12381e-08 -5.72696e-10 0
-2.73867e-08 -4.21002e-10 0
-1.94539e-08 -9.91626e-10 0
-1.48558e-08 -8.02762e-09 0
-1.20184e-08 -7.66137e-09 0
-1.02112e-12 8.48225e-13 0
-2.56016e-14 2.56016e-14 0
8.46945e-13 -7.98304e-13 0
-8.60621e-09 4.04022e-09 0
-2.50551e-08 6.5196e-09 0
-2.11631e-08 4.12453e-09 0
-1.75866e-08 2.80916e-09 0
-1.58826e-08 2.03942e-09 0
-1.50588e-08 1.54906e-09 0
-1.46304e-08 1.19232e-09 0
-1.43929e-08 9.1607e-10 0
-1.42537e-08 7.00383e-10 0
-1.41679e-08 5.32837e-10 0
-1.41127e-08 4.0358e-10 0
-1.40758e-08 3.04511e-10 0
-1.40505e-08 2.29016e-10 0
-1.40327e-08 1.71772e-10 0
-1.402e-08 1.28549e-10 0
-1.40108e-08 9.60259e-11 0
-1.40041e-08 7.16237e-11 0
-1.39991e-08 5.33571e-11 0
-1.39955e-08 3.97091e-11 0
-1.39928e-08 2.95275e-11 0
-1.39908e-08 2.19413e-11 0
-1.39893e-08 1.62945e-11 0
-1.39882e-08 1.20948e-11 0
-1.39874e-08 8.97351e-12 0
-1.39868e-08 6.65506e-12 0
-1.39863e-08 4.93375e-12 0
-1.3986e-08 3.65628e-12 0
-1.39857e-08 2.70849e-12 0
-1.39855e-08 2.00542e-12 0
-1.39854e-08 1.48388e-12 0
-1.39853e-08 1.09689e-12 0
-1.39852e-08 8.09507e-13 0
-1.39852e-08 5.95698e-13 0
-1.39851e-08 4.3604e-13 0
-1.39851e-08 3.15939e-13 0
-1.39851e-08 2.2431e-13 0
-1.3985e-08 1.52599e-13 0
-1.3985e-08 9.41249e-14 0
-1.3985e-08 4.3514e-14 0
-1.3985e-08 -3.01455e-15 0
0.0125642 5.29883e-09 0
0 -5.64644e-09 0
3.35112e-13 -3.84948e-09 0
-3.75608e-08 -4.90965e-09 0
-2.60345e-08 -1.91349e-09 0
-1.967e-08 -3.01318e-09 0
-1.68105e-08 -4.07349e-09 0
-1.95229e-08 -1.36931e-08 0
-1.48513e-08 -1.17795e-08 0
-1.01873e-12 6.77721e-13 0
9.34129e-13 5.95682e-13 0
6.83888e-14 1.88741e-08 0
-3.50049e-08 1.84379e-08 0
-2.48539e-08 -1.29721e-09 0
-1.78421e-08 -7.01453e-10 0
-1.57094e-08 6.01546e-10 0
-1.50076e-08 8.97671e-10 0
-1.46938e-08 8.51756e-10 0
-1.45109e-08 7.19002e-10 0
-1.43867e-08 5.77509e-10 0
-1.42962e-08 4.51715e-10 0
-1.42282e-08 3.47704e-10 0
-1.41767e-08 2.64864e-10 0
-1.41376e-08 2.00323e-10 0
-1.41079e-08 1.50744e-10 0
-1.40855e-08 1.13019e-10 0
-1.40685e-08 8.45037e-11 0
-1.40557e-08 6.30535e-11 0
-1.40462e-08 4.69741e-11 0
-1.4039e-08 3.49522e-11 0
-1.40336e-08 2.59818e-11 0
-1.40296e-08 1.92985e-11 0
-1.40266e-08 1.43251e-11 0
-1.40243e-08 1.06277e-11 0
-1.40227e-08 7.88094e-12 0
-1.40214e-08 5.84169e-12 0
-1.40205e-08 4.32846e-12 0
-1.40198e-08 3.20603e-12 0
-1.40193e-08 2.37372e-12 0
-1.40189e-08 1.75666e-12 0
-1.40186e-08 1.29917e-12 0
-1.40184e-08 9.59889e-13 0
-1.40183e-08 7.08044e-13 0
-1.40182e-08 5.2072e-13 0
-1.40181e-08 3.80775e-13 0
-1.4018e-08 2.7524e-13 0
-1.4018e-08 1.94074e-13 0
-1.40179e-08 1.29184e-13 0
-1.40179e-08 7.38414e-14 0
-1.40179e-08 2.25078e-14 0
-1.40179e-08 -2.79207e-14 0
0.0125637 1.07604e-08 0
0 -5.65054e-09 0
1.99087e-13 -5.86126e-09 0
-3.1485e-08 -7.71527e-09 0
-2.40272e-08 -2.46723e-09 0
-1.96297e-08 -1.18112e-09 0
-1.99456e-08 -4.12825e-09 0
-2.21441e-08 -7.87852e-09 0
-3.28574e-08 -1.90016e-08 0
-3.13426e-08 -1.46834e-08 0
-2.00227e-08 -1.12242e-18 0
-1.04036e-08 3.72314e-08 0
-3.28978e-09 3.02051e-08 0
-1.02603e-08 -1.18767e-08 0
-1.39762e-08 -5.62849e-09 0
-1.52296e-08 -5.48434e-10 0
-1.55807e-08 6.03736e-10 0
-1.56206e-08 7.12717e-10 0
-1.55561e-08 6.12184e-10 0
-1.54637e-08 4.8598e-10 0
-1.53723e-08 3.74424e-10 0
-1.52922e-08 2.84337e-10 0
-1.52261e-08 2.14171e-10 0
-1.51732e-08 1.60505e-10 0
-1.51318e-08 1.19887e-10 0
-1.50999e-08 8.93443e-11 0
-1.50756e-08 6.64762e-11 0
-1.50571e-08 4.94035e-11 0
-1.50431e-08 3.66831e-11 0
-1.50326e-08 2.72192e-11 0
-1.50248e-08 2.01857e-11 0
-1.50189e-08 1.49628e-11 0
-1.50145e-08 1.10869e-11 0
-1.50113e-08 8.21217e-12 0
-1.50088e-08 6.08091e-12 0
-1.5007e-08 4.50145e-12 0
-1.50057e-08 3.3313e-12 0
-1.50047e-08 2.4646e-12 0
-1.50039e-08 1.8228e-12 0
-1.50034e-08 1.34757e-12 0
-1.5003e-08 9.95662e-13 0
-1.50027e-08 7.34979e-13 0
-1.50024e-08 5.41688e-13 0
-1.50023e-08 3.98055e-13 0
-1.50022e-08 2.90808e-13 0
-1.50021e-08 2.09867e-13 0
-1.5002e-08 1.47266e-13 0
-1.5002e-08 9.61138e-14 0
-1.50019e-08 4.96439e-14 0
-1.50019e-08 7.33992e-16 0
-1.50019e-08 -5.55967e-14 0
0.0125408 1.68616e-08 0
0 -7.608e-09 0
9.79418e-14 -5.50069e-09 0
-2.9631e-08 -7.06554e-09 0
-3.01754e-08 -1.97081e-09 0
-2.9318e-08 2.55324e-10 0
-2.88908e-08 3.05108e-09 0
-3.07394e-08 2.51418e-09 0
-3.2675e-08 -1.67369e-09 0
-4.68492e-08 -1.56408e-08 0
-4.98944e-08 -2.67486e-08 0
-5.39288e-08 -3.93603e-09 0
-1.89756e-08 1.60149e-08 0
-2.61435e-08 1.04567e-08 0
-3.07214e-08 5.04684e-09 0
-3.1332e-08 2.49978e-09 0
-3.10326e-08 1.38081e-09 0
-3.06345e-08 8.53124e-10 0
-3.02896e-08 5.68057e-10 0
-3.00158e-08 3.94068e-10 0
-2.98048e-08 2.7936e-10 0
-2.96444e-08 2.00496e-10 0
-2.95235e-08 1.45025e-10 0
-2.94328e-08 1.05475e-10 0
-2.9365e-08 7.70209e-11 0
-2.93144e-08 5.64137e-11 0
-2.92767e-08 4.14146e-11 0
-2.92487e-08 3.04555e-11 0
-2.92279e-08 2.24246e-11 0
-2.92124e-08 1.65264e-11 0
-2.9201e-08 1.21874e-11 0
-2.91925e-08 8.9915e-12 0
-2.91862e-08 6.63554e-12 0
-2.91815e-08 4.89771e-12 0
-2.91781e-08 3.6153e-12 0
-2.91755e-08 2.6687e-12 0
-2.91736e-08 1.96986e-12 0
-2.91722e-08 1.45388e-12 0
-2.91712e-08 1.07287e-12 0
-2.91704e-08 7.9149e-13 0
-2.91698e-08 5.83648e-13 0
-2.91694e-08 4.30053e-13 0
-2.91691e-08 3.16434e-13 0
-2.91689e-08 2.32207e-13 0
-2.91687e-08 1.69474e-13 0
-2.91686e-08 1.22247e-13 0
-2.91685e-08 8.57729e-14 0
-2.91684e-08 5.56735e-14 0
-2.91684e-08 2.62679e-14 0
-2.91684e-08 -1.56219e-14 0
-2.91685e-08 -1.05065e-13 0
0.0118229 2.29196e-08 0
0 0 0
3.55115e-14 0 0
-1.56033e-08 0 0
-1.861e-08 0 0
-1.94867e-08 0 0
-1.88759e-08 0 0
-1.60998e-08 0 0
-1.46689e-08 0 0
-1.55068e-08 0 0
-2.98716e-08 0 0
-4.35251e-08 0 0
-3.55613e-08 0 0
-2.8881e-08 0 0
-2.54716e-08 0 0
-2.37818e-08 0 0
-2.28831e-08 0 0
-2.23521e-08 0 0
-2.20105e-08 0 0
-2.17785e-08 0 0
-2.16161e-08 0 0
-2.15005e-08 0 0
-2.14173e-08 0 0
-2.1357e-08 0 0
-2.13131e-08 0 0
-2.12809e-08 0 0
-2.12573e-08 0 0
-2.124e-08 0 0
-2.12273e-08 0 0
-2.12179e-08 0 0
-2.12109e-08 0 0
-2.12058e-08 0 0
-2.1202e-08 0 0
-2.11993e-08 0 0
-2.11972e-08 0 0
-2.11957e-08 0 0
-2.11946e-08 0 0
-2.11937e-08 0 0
-2.11931e-08 0 0
-2.11927e-08 0 0
-2.11923e-08 0 0
-2.11921e-08 0 0
-2.11919e-08 0 0
-2.11918e-08 0 0
-2.11917e-08 0 0
-2.11916e-08 0 0
-2.11916e-08 0 0
-2.11915e-08 0 0
-2.11915e-08 0 0
-2.11915e-08 0 0
-2.11916e-08 0 0
0.00556369 0 0
0 0 5.82805e-09
3.16952e-14 0 4.10854e-09
-2.59598e-08 0 4.34991e-09
-3.04938e-08 0 -6.88533e-10
-2.53601e-08 0 -1.81787e-09
-1.31026e-08 0 -7.31878e-10
-1.91838e-08 0 4.64734e-10
-1.95913e-08 0 4.87969e-10
-1.87186e-08 0 1.44756e-10
-1.83156e-08 0 -1.32814e-10
-1.94754e-08 0 -1.8254e-10
-2.12842e-08 0 -1.37813e-10
-2.30634e-08 0 -8.2959e-11
-2.45694e-08 0 -4.44472e-11
-2.57666e-08 0 -2.25761e-11
-2.66819e-08 0 -1.15575e-11
-2.73634e-08 0 -6.32365e-12
-2.78619e-08 0 -3.82897e-12
-2.82228e-08 0 -2.55177e-12
-2.84828e-08 0 -1.81334e-12
-2.867e-08 0 -1.33094e-12
-2.8805e-08 0 -9.88678e-13
-2.89027e-08 0 -7.35891e-13
-2.89736e-08 0 -5.46655e-13
-2.90253e-08 0 -4.04842e-13
-2.90631e-08 0 -2.98936e-13
-2.90909e-08 0 -2.20192e-13
-2.91113e-08 0 -1.61879e-13
-2.91263e-08 0 -1.18836e-13
-2.91374e-08 0 -8.71427e-14
-2.91456e-08 0 -6.38508e-14
-2.91517e-08 0 -4.67568e-14
-2.91561e-08 0 -3.4224e-14
-2.91595e-08 0 -2.50421e-14
-2.91619e-08 0 -1.83189e-14
-2.91637e-08 0 -1.33977e-14
-2.91651e-08 0 -9.79606e-15
-2.91661e-08 0 -7.1611e-15
-2.91668e-08 0 -5.23422e-15
-2.91674e-08 0 -3.82589e-15
-2.91678e-08 0 -2.80108e-15
-2.91681e-08 0 -2.06544e-15
-2.91683e-08 0 -1.56088e-15
-2.91685e-08 0 -1.26898e-15
-2.91686e-08 0 -1.20385e-15
-2.91687e-08 0 -1.3099e-15
-2.91687e-08 0 -8.64933e-16
-2.91688e-08 0 3.43909e-15
-2.91688e-08 0 2.30671e-14
-2.91689e-08 0 8.90708e-14
0.0118229 0 -1.9429e-08
0.0036 1.13512e-08 5.92096e-09
0.00359998 -0.00519317 -0.00263744
0.0143187 -0.0096354 -0.00424728
0.0241146 -0.00869494 -0.00250346
0.0338342 -0.00816217 -0.00139329
0.0444913 -0.00495835 -0.000712962
0.0460679 -0.00070049 -0.000316162
0.0455547 0.0022594 -0.000156172
0.040235 0.00404566 -9.54901e-05
0.0352946 0.00392843 -6.81773e-05
0.0314069 0.00309777 -4.04703e-05
0.0287369 0.00216601 -2.21867e-05
0.0270582 0.00139288 -1.16629e-05
0.0260676 0.000838551 -5.94888e-06
0.0255166 0.000475183 -2.98041e-06
0.0252302 0.000251942 -1.4903e-06
0.0250948 0.000122181 -7.56398e-07
0.025041 5.07873e-05 -3.95386e-07
0.0250285 1.39456e-05 -2.14988e-07
0.0250349 -3.41384e-06 -1.22141e-07
0.0250485 -1.03335e-05 -7.24725e-08
0.0250633 -1.20003e-05 -4.47454e-08
0.025077 -1.1263e-05 -2.85961e-08
0.0250885 -9.61325e-06 -1.88115e-08
0.0250977 -7.78398e-06 -1.26713e-08
0.0251049 -6.10066e-06 -8.69923e-09
0.0251104 -4.67973e-06 -6.06304e-09
0.0251146 -3.53725e-06 -4.27589e-09
0.0251177 -2.64608e-06 -3.04319e-09
0.02512 -1.96474e-06 -2.1811e-09
0.0251217 -1.45098e-06 -1.57159e-09
0.0251229 -1.06731e-06 -1.13701e-09
0.0251238 -7.82797e-07 -8.25135e-10
0.0251245 -5.72876e-07 -6.00246e-10
0.025125 -4.18567e-07 -4.37531e-10
0.0251254 -3.05447e-07 -3.19584e-10
0.0251256 -2.22689e-07 -2.34125e-10
0.0251258 -1.62234e-07 -1.72505e-10
0.0251259 -1.18119e-07 -1.28754e-10
0.025126 -8.59511e-08 -9.89862e-11
0.0251261 -6.25066e-08 -8.10967e-11
0.0251262 -4.54247e-08 -7.4651e-11
0.0251262 -3.29826e-08 -8.07973e-11
0.0251262 -2.39311e-08 -1.01777e-10
0.0251263 -1.73801e-08 -1.39333e-10
0.0251263 -1.27325e-08 -1.94042e-10
0.0251263 -9.70408e-09 -3.03362e-10
0.0251263 -8.7677e-09 -9.77495e-10
0.0251263 -1.39987e-08 -6.13364e-09
0.0251263 -3.53312e-08 -2.6095e-08
0.0251264 -5.16192e-08 -4.14967e-08
0.01 1.10479e-08 7.32867e-09
0.01 -0.00823048 -0.00469842
0.017977 -0.0162764 -0.00731021
0.0259603 -0.0167085 -0.00388459
0.0352118 -0.0186967 -0.00191789
0.0526162 -0.011288 -0.0008042
0.0518753 -0.000565631 -0.000231028
0.0524034 0.00610066 -0.000104157
0.0423703 0.0104057 -8.48779e-05
0.035574 0.00891015 -8.81796e-05
0.0314044 0.00660219 -5.3822e-05
0.0289276 0.00437227 -2.7448e-05
0.0276003 0.00268161 -1.36187e-05
0.0269351 0.00154792 -6.4844e-06
0.0266297 0.000840656 -2.95059e-06
0.0265105 0.000423432 -1.29217e-06
0.0264815 0.000189979 -5.4938e-07
0.0264919 6.67062e-05 -2.28688e-07
0.0265166 6.34045e-06 -9.40337e-08
0.0265437 -1.98044e-05 -3.86385e-08
0.0265683 -2.83389e-05 -1.6158e-08
0.0265889 -2.84805e-05 -7.0822e-09
0.0266052 -2.51229e-05 -3.38618e-09
0.0266178 -2.07274e-05 -1.82969e-09
0.0266274 -1.64365e-05 -1.12436e-09
0.0266346 -1.27065e-05 -7.64296e-10
0.02664 -9.65603e-06 -5.52316e-10
0.0266439 -7.2509e-06 -4.11166e-10
0.0266469 -5.39886e-06 -3.09506e-10
0.026649 -3.99535e-06 -2.33423e-10
0.0266506 -2.94352e-06 -1.75693e-10
0.0266517 -2.16148e-06 -1.3182e-10
0.0266525 -1.58336e-06 -9.86038e-11
0.0266532 -1.15777e-06 -7.36065e-11
0.0266536 -8.45421e-07 -5.49436e-11
0.0266539 -6.16707e-07 -4.11788e-11
0.0266542 -4.49514e-07 -3.12674e-11
0.0266543 -3.27446e-07 -2.45325e-11
0.0266545 -2.38403e-07 -2.06836e-11
0.0266545 -1.73495e-07 -1.9891e-11
0.0266546 -1.26204e-07 -2.29282e-11
0.0266547 -9.17687e-08 -3.13646e-11
0.0266547 -6.67276e-08 -4.76946e-11
0.0266547 -4.85903e-08 -7.50802e-11
0.0266547 -3.56285e-08 -1.16346e-10
0.0266548 -2.67949e-08 -1.75469e-10
0.0266548 -2.18333e-08 -3.02889e-10
0.0266548 -2.14085e-08 -1.05279e-09
0.0266548 -2.585e-08 -6.53078e-09
0.0266548 -3.52006e-08 -2.67985e-08
0.0266548 -4.11733e-08 -4.22456e-08
0.0148 -9.27242e-09 1.73013e-08
0.0148 -0.00903103 -0.00641568
0.0199478 -0.018658 -0.0100069
0.0241734 -0.0216121 -0.00523853
0.0263245 -0.0324558 -0.00246084
0.0280357 -0.0204709 -0.000856638
0.0269113 -1.55334e-07 -5.9949e-05
0.0276833 0.0120346 -2.60137e-05
0.033151 0.0210208 -2.49591e-05
0.0298334 0.0149802 -3.76042e-05
0.0273831 0.00979058 -3.712e-05
0.0262224 0.00599431 -2.36192e-05
0.0258748 0.00339791 -1.22573e-05
0.0259023 0.00181556 -5.51292e-06
0.0260527 0.000902981 -2.15569e-06
0.0262153 0.000401784 -7.10021e-07
0.0263517 0.00014155 -1.63488e-07
0.0264548 1.60294e-05 1.04858e-08
0.026529 -3.76523e-05 4.77228e-08
0.0265812 -5.50404e-05 4.2819e-08
0.0266176 -5.54215e-05 2.95957e-08
0.0266429 -4.88276e-05 1.81528e-08
0.0266605 -4.02111e-05 1.03071e-08
0.0266729 -3.18307e-05 5.47893e-09
0.0266816 -2.45703e-05 2.70269e-09
0.0266878 -1.86489e-05 1.19055e-09
0.0266923 -1.39905e-05 4.11133e-10
0.0266954 -1.04094e-05 3.71997e-11
0.0266977 -7.69906e-06 -1.21875e-10
0.0266993 -5.66989e-06 -1.72729e-10
0.0267005 -4.1623e-06 -1.72918e-10
0.0267014 -3.04842e-06 -1.52341e-10
0.026702 -2.22874e-06 -1.25783e-10
0.0267024 -1.62734e-06 -1.00022e-10
0.0267028 -1.18706e-06 -7.77536e-11
0.026703 -8.65256e-07 -5.97091e-11
0.0267032 -6.30327e-07 -4.57853e-11
0.0267033 -4.58972e-07 -3.56413e-11
0.0267034 -3.34068e-07 -2.90379e-11
0.0267034 -2.43066e-07 -2.60723e-11
0.0267035 -1.7679e-07 -2.73945e-11
0.0267035 -1.28544e-07 -3.44277e-11
0.0267036 -9.34632e-08 -4.94928e-11
0.0267036 -6.80396e-08 -7.54955e-11
0.0267036 -4.97954e-08 -1.14627e-10
0.0267036 -3.70516e-08 -1.68199e-10
0.0267036 -2.87221e-08 -2.74051e-10
0.0267036 -2.41591e-08 -9.2979e-10
0.0267036 -2.32908e-08 -6.02642e-09
0.0267036 -2.55447e-08 -2.509e-08
0.0267036 -2.72705e-08 -3.96375e-08
0.018 -2.84564e-08 1.66866e-08
0.018 -0.00782231 -0.00765467
0.0205991 -0.0162036 -0.0120202
0.0208577 -0.0171517 -0.00624299
0.0159706 -0.0193498 -0.00283325
-3.17695e-09 -0.0105795 -0.000955816
1.91873e-06 8.79297e-07 1.3782e-09
-9.05206e-07 9.96258e-07 -4.81693e-06
0.0120487 0.00834465 3.61461e-06
0.0210469 0.0147331 9.75099e-06
0.021636 0.0102473 -6.84141e-06
0.0225021 0.00590019 -1.48097e-05
0.0236743 0.00301228 -9.69069e-06
0.0246787 0.0013755 -4.04764e-06
0.0254112 0.000530344 -1.18753e-06
0.0258999 0.000125697 -1.09093e-07
0.0262097 -4.88684e-05 1.8314e-07
0.0264008 -0.000110306 1.98717e-07
0.0265171 -0.000119904 1.44857e-07
0.0265877 -0.000108272 9.05063e-08
0.0266307 -8.99587e-05 5.16155e-08
0.0266571 -7.14154e-05 2.73665e-08
0.0266736 -5.51507e-05 1.34066e-08
0.026684 -4.18383e-05 5.83693e-09
0.0266907 -3.13614e-05 1.96519e-09
0.0266951 -2.33142e-05 1.27481e-10
0.026698 -1.72307e-05 -6.41443e-10
0.0267 -1.26813e-05 -8.77494e-10
0.0267014 -9.30475e-06 -8.67321e-10
0.0267023 -6.81204e-06 -7.58335e-10
0.026703 -4.97894e-06 -6.2256e-10
0.0267035 -3.63468e-06 -4.92448e-10
0.0267038 -2.65095e-06 -3.8043e-10
0.0267041 -1.93214e-06 -2.89337e-10
0.0267042 -1.40751e-06 -2.17797e-10
0.0267043 -1.02492e-06 -1.62945e-10
0.0267044 -7.46081e-07 -1.21715e-10
0.0267045 -5.42955e-07 -9.14309e-11
0.0267045 -3.95028e-07 -7.00661e-11
0.0267046 -2.87322e-07 -5.63893e-11
0.0267046 -2.08908e-07 -5.01073e-11
0.0267046 -1.51824e-07 -5.20396e-11
0.0267046 -1.10276e-07 -6.42263e-11
0.0267046 -8.00543e-08 -8.9577e-11
0.0267047 -5.81146e-08 -1.30224e-10
0.0267047 -4.22611e-08 -1.85553e-10
0.0267047 -3.09286e-08 -2.83128e-10
0.0267047 -2.30225e-08 -8.90363e-10
0.0267047 -1.79285e-08 -5.81759e-09
0.0267047 -1.4809e-08 -2.44592e-08
0.0267047 -1.35753e-08 -3.87144e-08
0.0196 -2.85508e-08 6.09168e-09
0.0196 -0.00501654 -0.00829967
0.0208852 -0.0101149 -0.0130652
0.0196593 -0.00977591 -0.00671649
0.0146674 -0.00780461 -0.00290575
0.00441556 -0.00312712 -0.00119877
1.52415e-06 -1.41675e-06 -0.000243972
5.11541e-07 -5.11541e-07 -4.80709e-10
-8.71932e-07 9.3848e-07 -2.484e-06
0.00834935 0.00541408 -8.00276e-08
0.0147425 0.00835252 -2.8828e-06
0.0183812 0.00396915 -1.18789e-05
0.0215722 0.00122955 -9.64126e-06
0.0237184 8.31373e-05 -3.97829e-06
0.0250207 -0.00031592 -1.02801e-06
0.0257709 -0.000395717 2.21625e-08
0.0261917 -0.000358922 2.50108e-07
0.0264245 -0.000291148 2.18045e-07
0.0265523 -0.000224424 1.40491e-07
0.0266221 -0.000168542 7.81208e-08
0.0266601 -0.000124808 3.86909e-08
0.0266807 -9.17041e-05 1.65674e-08
0.0266919 -6.70861e-05 5.19023e-09
0.0266979 -4.89556e-05 -1.3889e-10
0.0267011 -3.56751e-05 -2.2896e-09
0.0267028 -2.59769e-05 -2.87661e-09
0.0267038 -1.89069e-05 -2.75974e-09
0.0267042 -1.37577e-05 -2.37479e-09
0.0267045 -1.00095e-05 -1.93001e-09
0.0267046 -7.28193e-06 -1.51603e-09
0.0267047 -5.29737e-06 -1.16517e-09
0.0267047 -3.85355e-06 -8.82552e-10
0.0267047 -2.80318e-06 -6.61817e-10
0.0267047 -2.03907e-06 -4.92856e-10
0.0267047 -1.48321e-06 -3.65323e-10
0.0267047 -1.07884e-06 -2.70082e-10
0.0267047 -7.84676e-07 -1.9966e-10
0.0267047 -5.70678e-07 -1.48266e-10
0.0267047 -4.14991e-07 -1.11672e-10
0.0267047 -3.01712e-07 -8.71062e-11
0.0267047 -2.19269e-07 -7.32297e-11
0.0267047 -1.5924e-07 -7.02036e-11
0.0267047 -1.15489e-07 -7.97086e-11
0.0267047 -8.35336e-08 -1.04429e-10
0.0267047 -6.00874e-08 -1.45977e-10
0.0267047 -4.271e-08 -2.02085e-10
0.0267047 -2.95599e-08 -2.96602e-10
0.0267047 -1.92427e-08 -8.88695e-10
0.0267047 -1.07925e-08 -5.77118e-09
0.0267047 -3.46524e-09 -2.43154e-08
0.0267047 1.15678e-11 -3.85059e-08
0.0196 -1.85554e-08 -5.43013e-09
0.0196 -0.00194413 -0.00831511
0.0212004 -0.00385621 -0.0130693
0.0209068 -0.00313867 -0.00670889
0.017892 -0.000220507 -0.00284993
0.0135945 0.0057806 -0.00136626
0.00859476 0.00477454 -0.000596761
1.5322e-06 -1.3013e-06 -0.000125767
4.29365e-07 -4.29365e-07 -3.10411e-10
-8.44762e-07 8.99101e-07 -1.05705e-06
0.00541596 0.000225105 -7.99841e-07
0.0143502 -0.000920025 -1.27224e-05
0.0204664 -0.00231761 -2.00511e-05
0.0236397 -0.00206878 -9.56564e-06
0.0252119 -0.00152 -3.18575e-06
0.0259883 -0.00104422 -8.32787e-07
0.0263711 -0.000701992 -1.49704e-07
0.0265582 -0.000470674 1.01636e-09
0.0266481 -0.00031739 1.37582e-08
0.0266897 -0.000216019 2.56938e-09
0.0267075 -0.000148549 -6.33806e-09
0.0267141 -0.00010318 -1.01414e-08
0.0267154 -7.2317e-05 -1.06048e-08
0.0267146 -5.10804e-05 -9.48849e-09
0.026713 -3.6313e-05 -7.8534e-09
0.0267114 -2.59498e-05 -6.21918e-09
0.0267099 -1.86209e-05 -4.79456e-09
0.0267086 -1.34051e-05 -3.63376e-09
0.0267076 -9.67451e-06 -2.72332e-09
0.0267069 -6.99553e-06 -2.02566e-09
0.0267063 -5.06577e-06 -1.49894e-09
0.0267059 -3.6724e-06 -1.10519e-09
0.0267056 -2.66449e-06 -8.12824e-10
0.0267053 -1.9344e-06 -5.96788e-10
0.0267052 -1.405e-06 -4.37754e-10
0.026705 -1.02082e-06 -3.21092e-10
0.0267049 -7.41848e-07 -2.35909e-10
0.0267049 -5.39179e-07 -1.74247e-10
0.0267048 -3.91881e-07 -1.30488e-10
0.0267048 -2.84777e-07 -1.00964e-10
0.0267047 -2.06855e-07 -8.37757e-11
0.0267047 -1.50102e-07 -7.87635e-11
0.0267047 -1.08682e-07 -8.74653e-11
0.0267047 -7.83115e-08 -1.12561e-10
0.0267047 -5.58142e-08 -1.55786e-10
0.0267047 -3.87709e-08 -2.1521e-10
0.0267047 -2.52533e-08 -3.15796e-10
0.0267047 -1.36489e-08 -9.20927e-10
0.0267047 -2.67578e-09 -5.8375e-09
0.0267047 8.19247e-09 -2.44573e-08
0.0267047 1.35971e-08 -3.86984e-08
0.018 -1.26398e-08 -1.29169e-08
0.018 0.000556209 -0.00776198
0.0208293 0.000971625 -0.0121504
0.0222228 0.00129203 -0.00622901
0.021732 0.00330642 -0.0026824
0.0211764 0.00812045 -0.00127929
0.0219549 0.014471 -0.000668945
0.014 0.00878038 -0.000295579
1.56397e-06 -1.03862e-06 -6.40626e-05
-7.30617e-07 -1.11834e-06 7.44908e-09
9.61088e-08 -0.00599324 3.27272e-05
0.0144546 -0.0110731 1.32375e-05
0.0222584 -0.0080505 -3.17123e-05
0.0251673 -0.00465648 -1.68425e-05
0.0262225 -0.00266157 -6.20318e-06
0.0266145 -0.00155344 -2.15047e-06
0.0267533 -0.000928153 -7.8418e-07
0.0267923 -0.000567837 -3.21466e-07
0.026793 -0.00035567 -1.52844e-07
0.0267807 -0.000227909 -8.30616e-08
0.0267657 -0.000149189 -4.95264e-08
0.0267518 -9.95636e-05 -3.12117e-08
0.0267402 -6.75788e-05 -2.03184e-08
0.026731 -4.65336e-05 -1.35085e-08
0.026724 -3.24264e-05 -9.12461e-09
0.0267186 -2.28153e-05 -6.24625e-09
0.0267147 -1.61768e-05 -4.32624e-09
0.0267117 -1.15392e-05 -3.02729e-09
0.0267095 -8.26981e-06 -2.13706e-09
0.0267079 -5.94807e-06 -1.51976e-09
0.0267068 -4.28991e-06 -1.08728e-09
0.0267059 -3.10044e-06 -7.81633e-10
0.0267053 -2.2443e-06 -5.64077e-10
0.0267048 -1.62649e-06 -4.08356e-10
0.0267045 -1.17978e-06 -2.96456e-10
0.0267043 -8.56306e-07 -2.15895e-10
0.0267041 -6.21805e-07 -1.57992e-10
0.026704 -4.51652e-07 -1.16753e-10
0.0267039 -3.28099e-07 -8.8187e-11
0.0267038 -2.38317e-07 -6.99247e-11
0.0267038 -1.73014e-07 -6.10799e-11
0.0267037 -1.25441e-07 -6.22912e-11
0.0267037 -9.06748e-08 -7.57812e-11
0.0267037 -6.509e-08 -1.04996e-10
0.0267037 -4.59675e-08 -1.53e-10
0.0267036 -3.11766e-08 -2.21015e-10
0.0267036 -1.88921e-08 -3.42278e-10
0.0267036 -7.32102e-09 -1.00334e-09
0.0267036 5.3775e-09 -6.07841e-09
0.0267036 1.97631e-08 -2.50866e-08
0.0267036 2.7288e-08 -3.95987e-08
0.0148 -1.1464e-08 -1.83023e-08
0.0148 0.00194651 -0.0067403
0.0195209 0.0034506 -0.0104837
0.0228138 0.00313642 -0.00537141
0.0245842 0.00436961 -0.00240018
0.0262881 0.0073688 -0.00118914
0.0295106 0.0129322 -0.000642917
0.0344289 0.0223955 -0.000323816
0.0296564 0.0140948 -5.3671e-05
0.0304994 1.54405e-14 0.000105601
0.0329463 -0.0142317 0.000104383
0.0313755 -0.0231735 2.42092e-05
0.0295278 -0.0130177 -3.15956e-05
0.0284738 -0.00602448 -1.78939e-05
0.0278458 -0.00296294 -6.91656e-06
0.0274466 -0.00157302 -2.52479e-06
0.0271864 -0.000878798 -9.4283e-07
0.0270152 -0.000509891 -3.65656e-07
0.0269016 -0.000305561 -1.45347e-07
0.0268255 -0.000188568 -5.70016e-08
0.026774 -0.000119547 -2.02585e-08
0.0267387 -7.76605e-05 -4.85321e-09
0.0267143 -5.15477e-05 1.33757e-09
0.0266972 -3.48543e-05 3.46874e-09
0.0266852 -2.39352e-05 3.83794e-09
0.0266766 -1.66469e-05 3.49672e-09
0.0266705 -1.16965e-05 2.92603e-09
0.0266662 -8.28481e-06 2.33774e-09
0.026663 -5.90525e-06 1.81589e-09
0.0266608 -4.22964e-06 1.38498e-09
0.0266591 -3.04077e-06 1.04335e-09
0.0266579 -2.19226e-06 7.7923e-10
0.0266571 -1.58391e-06 5.78397e-10
0.0266564 -1.14622e-06 4.27371e-10
0.026656 -8.30479e-07 3.14627e-10
0.0266557 -6.02246e-07 2.30808e-10
0.0266554 -4.37014e-07 1.68509e-10
0.0266552 -3.17247e-07 1.2191e-10
0.0266551 -2.30348e-07 8.63504e-11
0.026655 -1.67237e-07 5.78824e-11
0.026655 -1.21344e-07 3.27985e-11
0.0266549 -8.79041e-08 7.13103e-12
0.0266549 -6.3436e-08 -2.37963e-11
0.0266549 -4.53674e-08 -6.54867e-11
0.0266548 -3.17447e-08 -1.23669e-10
0.0266548 -2.09857e-08 -2.05638e-10
0.0266548 -1.16045e-08 -3.62427e-10
0.0266548 -1.74692e-09 -1.13618e-09
0.0266548 1.15713e-08 -6.59125e-09
0.0266548 3.03759e-08 -2.67722e-08
0.0266548 4.11841e-08 -4.21633e-08
0.01 -1.74237e-08 -2.57407e-08
0.01 0.00175648 -0.00536057
0.0168955 0.00300575 -0.00823906
0.0216616 0.00244267 -0.00420406
0.0250155 0.00298574 -0.00198049
0.0286667 0.00484223 -0.00102472
0.0338084 0.00722742 -0.000606793