# vtk DataFile Version 2.0
Tobias Weinzierl: CPU, Manycore and Cluster Computing
ASCII

DATASET STRUCTURED_POINTS
DIMENSIONS  51 11 6

ORIGIN 0 0 0 

SPACING 0.1 0.1 0.1 

POINT_DATA 3366

VECTORS velocity float
0 0 0
-1.36108e-14 0 0
-8.857e-09 0 0
-1.14141e-08 0 0
-1.01545e-08 0 0
-5.8912e-09 0 0
-7.81875e-09 0 0
-1.00435e-08 0 0
-1.12922e-08 0 0
-1.138e-08 0 0
-1.10246e-08 0 0
-1.07714e-08 0 0
-1.07054e-08 0 0
-1.07655e-08 0 0
-1.08896e-08 0 0
-1.10311e-08 0 0
-1.11625e-08 0 0
-1.12723e-08 0 0
-1.13587e-08 0 0
-1.14244e-08 0 0
-1.14731e-08 0 0
-1.15089e-08 0 0
-1.15349e-08 0 0
-1.15539e-08 0 0
-1.15676e-08 0 0
-1.15776e-08 0 0
-1.15848e-08 0 0
-1.15901e-08 0 0
-1.15939e-08 0 0
-1.15967e-08 0 0
-1.15988e-08 0 0
-1.16002e-08 0 0
-1.16013e-08 0 0
-1.16021e-08 0 0
-1.16027e-08 0 0
-1.16032e-08 0 0
-1.16035e-08 0 0
-1.16037e-08 0 0
-1.16039e-08 0 0
-1.1604e-08 0 0
-1.16041e-08 0 0
-1.16041e-08 0 0
-1.16042e-08 0 0
-1.16042e-08 0 0
-1.16043e-08 0 0
-1.16043e-08 0 0
-1.16043e-08 0 0
-1.16043e-08 0 0
-1.16043e-08 0 0
-1.16043e-08 0 0
0.00416883 0 0
0 7.76198e-09 0
-2.87424e-15 5.93711e-09 0
-1.73662e-08 8.67662e-09 0
-2.04584e-08 3.84685e-09 0
-1.63064e-08 -6.27423e-11 0
-6.90279e-09 1.201e-09 0
-8.86787e-09 4.19501e-09 0
-1.1972e-08 2.58007e-09 0
-1.29869e-08 7.45655e-10 0
-1.34485e-08 -2.36108e-10 0
-1.34826e-08 -3.18005e-10 0
-1.40262e-08 -4.54829e-11 0
-1.48079e-08 1.67602e-10 0
-1.55584e-08 2.70853e-10 0
-1.62035e-08 3.00097e-10 0
-1.67236e-08 2.82759e-10 0
-1.7122e-08 2.42056e-10 0
-1.7416e-08 1.95006e-10 0
-1.76278e-08 1.51056e-10 0
-1.77782e-08 1.14074e-10 0
-1.78843e-08 8.47594e-11 0
-1.79592e-08 6.2353e-11 0
-1.8012e-08 4.56068e-11 0
-1.80496e-08 3.32598e-11 0
-1.80763e-08 2.42274e-11 0
-1.80955e-08 1.76463e-11 0
-1.81093e-08 1.28592e-11 0
-1.81193e-08 9.37775e-12 0
-1.81266e-08 6.84442e-12 0
-1.81318e-08 4.99924e-12 0
-1.81357e-08 3.65385e-12 0
-1.81385e-08 2.6719e-12 0
-1.81406e-08 1.95458e-12 0
-1.81421e-08 1.4302e-12 0
-1.81432e-08 1.04665e-12 0
-1.8144e-08 7.65993e-13 0
-1.81446e-08 5.60568e-13 0
-1.8145e-08 4.10178e-13 0
-1.81454e-08 3.00061e-13 0
-1.81456e-08 2.19417e-13 0
-1.81458e-08 1.60343e-13 0
-1.81459e-08 1.17049e-13 0
-1.8146e-08 8.52938e-14 0
-1.8146e-08 6.19761e-14 0
-1.81461e-08 4.48383e-14 0
-1.81461e-08 3.22661e-14 0
-1.81462e-08 2.32997e-14 0
-1.81462e-08 1.84127e-14 0
-1.81462e-08 2.39338e-14 0
-1.81462e-08 5.58135e-14 0
0.00978427 -1.25349e-08 0
0 8.45146e-10 0
7.25726e-14 7.88655e-09 0
-1.68526e-08 1.0827e-08 0
-1.65047e-08 4.63253e-09 0
-8.69979e-09 -5.88966e-10 0
-8.15154e-09 -1.18778e-10 0
-9.98175e-09 3.52994e-09 0
-1.30803e-08 4.2533e-10 0
-6.62729e-09 -7.41396e-10 0
-4.65157e-09 9.23512e-10 0
-4.68381e-09 2.00889e-09 0
-5.92448e-09 2.57325e-09 0
-7.40991e-09 2.31479e-09 0
-8.60103e-09 1.80395e-09 0
-9.49972e-09 1.35075e-09 0
-1.01531e-08 9.92798e-10 0
-1.06114e-08 7.18112e-10 0
-1.09245e-08 5.12865e-10 0
-1.11357e-08 3.63294e-10 0
-1.12777e-08 2.56373e-10 0
-1.13735e-08 1.80885e-10 0
-1.14388e-08 1.27924e-10 0
-1.14838e-08 9.08247e-11 0
-1.15152e-08 6.47866e-11 0
-1.15373e-08 4.64367e-11 0
-1.1553e-08 3.34366e-11 0
-1.15643e-08 2.41743e-11 0
-1.15725e-08 1.75387e-11 0
-1.15784e-08 1.27611e-11 0
-1.15827e-08 9.3061e-12 0
-1.15859e-08 6.79859e-12 0
-1.15882e-08 4.97335e-12 0
-1.15899e-08 3.64168e-12 0
-1.15912e-08 2.66839e-12 0
-1.15921e-08 1.95609e-12 0
-1.15928e-08 1.43429e-12 0
-1.15933e-08 1.05178e-12 0
-1.15936e-08 7.7124e-13 0
-1.15939e-08 5.65418e-13 0
-1.15941e-08 4.14369e-13 0
-1.15942e-08 3.03485e-13 0
-1.15944e-08 2.22059e-13 0
-1.15944e-08 1.62251e-13 0
-1.15945e-08 1.18349e-13 0
-1.15945e-08 8.62869e-14 0
-1.15946e-08 6.33495e-14 0
-1.15946e-08 4.7968e-14 0
-1.15946e-08 3.96488e-14 0
-1.15946e-08 3.80764e-14 0
-1.15946e-08 4.41644e-14 0
0.0113701 -1.10084e-08 0
0 -8.60665e-09 0
1.51948e-13 5.78151e-09 0
-1.75073e-08 6.23726e-09 0
-1.62323e-08 6.45607e-10 0
-6.45045e-09 3.39575e-09 0
-7.13994e-09 3.2059e-09 0
-8.93265e-09 -9.25471e-16 0
-1.11519e-08 -1.0341e-08 0
-1.66735e-08 -1.36649e-08 0
-1.11021e-08 -2.47188e-09 0
-8.5706e-09 3.26531e-09 0
-7.99512e-09 4.79247e-09 0
-8.1655e-09 4.14779e-09 0
-8.4826e-09 3.0283e-09 0
-8.84811e-09 2.14716e-09 0
-9.16561e-09 1.50604e-09 0
-9.4023e-09 1.04638e-09 0
-9.5668e-09 7.23101e-10 0
-9.67836e-09 4.99475e-10 0
-9.75408e-09 3.46244e-10 0
-9.80614e-09 2.41505e-10 0
-9.84257e-09 1.69703e-10 0
-9.86849e-09 1.20164e-10 0
-9.88718e-09 8.57028e-11 0
-9.9008e-09 6.15181e-11 0
-9.91079e-09 4.43993e-11 0
-9.91815e-09 3.21877e-11 0
-9.92359e-09 2.34179e-11 0
-9.9276e-09 1.70846e-11 0
-9.93058e-09 1.24902e-11 0
-9.93277e-09 9.14542e-12 0
-9.9344e-09 6.70376e-12 0
-9.9356e-09 4.91772e-12 0
-9.93649e-09 3.60929e-12 0
-9.93714e-09 2.64974e-12 0
-9.93762e-09 1.94552e-12 0
-9.93798e-09 1.42843e-12 0
-9.93824e-09 1.04862e-12 0
-9.93843e-09 7.6958e-13 0
-9.93858e-09 5.6454e-13 0
-9.93868e-09 4.1384e-13 0
-9.93876e-09 3.03042e-13 0
-9.93881e-09 2.21541e-13 0
-9.93885e-09 1.61554e-13 0
-9.93888e-09 1.17357e-13 0
-9.93891e-09 8.4773e-14 0
-9.93892e-09 6.10216e-14 0
-9.93893e-09 4.45274e-14 0
-9.93893e-09 3.47785e-14 0
-9.93894e-09 3.05659e-14 0
0.0115185 -7.12226e-09 0
0 -1.58762e-08 0
1.81763e-13 2.49474e-09 0
-1.95638e-08 1.03371e-09 0
-1.95565e-08 -1.78177e-09 0
-1.03433e-08 1.2483e-09 0
-3.40733e-14 1.56901e-09 0
-6.22598e-13 -6.55048e-13 0
5.6579e-13 -6.7415e-13 0
-1.1741e-08 -7.48642e-09 0
-1.62618e-08 -9.31159e-09 0
-1.22267e-08 -4.04245e-10 0
-1.1418e-08 3.50283e-09 0
-1.07747e-08 3.79576e-09 0
-1.02125e-08 3.01488e-09 0
-9.92921e-09 2.23897e-09 0
-9.80258e-09 1.59218e-09 0
-9.74622e-09 1.10456e-09 0
-9.72263e-09 7.60618e-10 0
-9.71527e-09 5.25518e-10 0
-9.71605e-09 3.6618e-10 0
-9.72065e-09 2.5774e-10 0
-9.72668e-09 1.83185e-10 0
-9.73284e-09 1.313e-10 0
-9.73847e-09 9.47611e-11 0
-9.7433e-09 6.87597e-11 0
-9.74727e-09 5.00967e-11 0
-9.75045e-09 3.66092e-11 0
-9.75294e-09 2.68109e-11 0
-9.75487e-09 1.9665e-11 0
-9.75634e-09 1.44386e-11 0
-9.75745e-09 1.06083e-11 0
-9.75829e-09 7.79719e-12 0
-9.75891e-09 5.73213e-12 0
-9.75938e-09 4.2142e-12 0
-9.75972e-09 3.09803e-12 0
-9.75998e-09 2.27714e-12 0
-9.76017e-09 1.67338e-12 0
-9.76031e-09 1.22932e-12 0
-9.76041e-09 9.02721e-13 0
-9.76049e-09 6.62511e-13 0
-9.76054e-09 4.85808e-13 0
-9.76059e-09 3.55756e-13 0
-9.76062e-09 2.59932e-13 0
-9.76064e-09 1.89177e-13 0
-9.76065e-09 1.36781e-13 0
-9.76066e-09 9.78843e-14 0
-9.76067e-09 6.89761e-14 0
-9.76067e-09 4.75648e-14 0
-9.76067e-09 3.20097e-14 0
-9.76068e-09 2.03338e-14 0
0.0115281 -3.40148e-09 0
0 -1.37477e-08 0
2.05927e-13 3.63075e-10 0
-2.05812e-08 -6.97589e-10 0
-2.18556e-08 -2.34554e-09 0
-1.42517e-08 -2.45843e-09 0
-5.10897e-09 -1.17356e-09 0
-6.21496e-13 5.85993e-13 0
-2.02039e-14 2.02039e-14 0
5.39531e-13 -5.92048e-13 0
-7.74273e-09 -3.9601e-09 0
-9.91338e-09 -2.38545e-09 0
-1.3233e-08 3.66498e-09 0
-1.32718e-08 3.56688e-09 0
-1.20354e-08 2.55283e-09 0
-1.10697e-08 1.83946e-09 0
-1.04856e-08 1.29432e-09 0
-1.01553e-08 9.02194e-10 0
-9.97229e-09 6.33436e-10 0
-9.87143e-09 4.50461e-10 0
-9.81585e-09 3.24277e-10 0
-9.78524e-09 2.35682e-10 0
-9.76844e-09 1.72441e-10 0
-9.75926e-09 1.26713e-10 0
-9.75429e-09 9.33484e-11 0
-9.75163e-09 6.88622e-11 0
-9.75023e-09 5.08286e-11 0
-9.74951e-09 3.75216e-11 0
-9.74915e-09 2.76937e-11 0
-9.74898e-09 2.04332e-11 0
-9.74891e-09 1.507e-11 0
-9.74889e-09 1.11096e-11 0
-9.74888e-09 8.18618e-12 0
-9.74889e-09 6.02932e-12 0
-9.7489e-09 4.43875e-12 0
-9.74891e-09 3.26636e-12 0
-9.74892e-09 2.40258e-12 0
-9.74892e-09 1.76644e-12 0
-9.74893e-09 1.29812e-12 0
-9.74893e-09 9.53437e-13 0
-9.74893e-09 6.99796e-13 0
-9.74894e-09 5.1313e-13 0
-9.74894e-09 3.75684e-13 0
-9.74894e-09 2.74355e-13 0
-9.74894e-09 1.99469e-13 0
-9.74894e-09 1.43862e-13 0
-9.74894e-09 1.02207e-13 0
-9.74894e-09 7.05394e-14 0
-9.74893e-09 4.59361e-14 0
-9.74893e-09 2.62202e-14 0
-9.74893e-09 9.38592e-15 0
0.0115286 1.61228e-10 0
0 -9.57961e-09 0
2.11263e-13 -1.51226e-09 0
-1.98469e-08 -2.90591e-09 0
-2.18239e-08 -2.19755e-09 0
-1.55272e-08 -1.70816e-09 0
-1.06374e-08 -4.64276e-09 0
-6.37603e-09 -3.73849e-09 0
-6.29231e-13 5.42754e-13 0
-3.22382e-15 3.22382e-15 0
5.36824e-13 -5.42238e-13 0
-4.03153e-09 4.57467e-09 0
-1.58515e-08 7.14656e-09 0
-1.71689e-08 3.45407e-09 0
-1.40089e-08 1.38178e-09 0
-1.18377e-08 8.71963e-10 0
-1.08056e-08 6.65024e-10 0
-1.03238e-08 5.24391e-10 0
-1.00847e-08 4.14389e-10 0
-9.95811e-09 3.25294e-10 0
-9.88684e-09 2.52967e-10 0
-9.84444e-09 1.94846e-10 0
-9.81795e-09 1.48785e-10 0
-9.80071e-09 1.12778e-10 0
-9.78911e-09 8.49676e-11 0
-9.78112e-09 6.37006e-11 0
-9.77549e-09 4.75682e-11 0
-9.77148e-09 3.54089e-11 0
-9.76859e-09 2.62908e-11 0
-9.76649e-09 1.94807e-11 0
-9.76496e-09 1.44106e-11 0
-9.76384e-09 1.06456e-11 0
-9.76301e-09 7.85541e-12 0
-9.7624e-09 5.79104e-12 0
-9.76196e-09 4.26574e-12 0
-9.76163e-09 3.13997e-12 0
-9.76138e-09 2.30985e-12 0
-9.7612e-09 1.69819e-12 0
-9.76107e-09 1.24778e-12 0
-9.76097e-09 9.16259e-13 0
-9.7609e-09 6.72311e-13 0
-9.76085e-09 4.92802e-13 0
-9.76081e-09 3.60643e-13 0
-9.76078e-09 2.63207e-13 0
-9.76076e-09 1.9114e-13 0
-9.76074e-09 1.37467e-13 0
-9.76073e-09 9.69095e-14 0
-9.76072e-09 6.53986e-14 0
-9.76071e-09 3.9787e-14 0
-9.76071e-09 1.76592e-14 0
-9.76071e-09 -2.63236e-15 0
0.0115281 3.70396e-09 0
0 -6.88286e-09 0
1.67927e-13 -3.05785e-09 0
-1.8471e-08 -4.67843e-09 0
-2.05435e-08 -2.40892e-09 0
-1.55048e-08 -1.75638e-09 0
-1.18636e-08 -2.59018e-09 0
-1.18353e-08 -7.40804e-09 0
-8.50482e-09 -5.78591e-09 0
-6.41529e-13 4.4398e-13 0
5.37014e-13 3.51327e-13 0
8.19449e-14 1.2065e-08 0
-1.59227e-08 1.58091e-08 0
-1.91591e-08 2.94615e-09 0
-1.48055e-08 -1.39713e-09 0
-1.18786e-08 -7.0924e-10 0
-1.07552e-08 -3.64352e-11 0
-1.03614e-08 1.94739e-10 0
-1.02064e-08 2.43333e-10 0
-1.01299e-08 2.29421e-10 0
-1.00823e-08 1.956e-10 0
-1.00482e-08 1.58435e-10 0
-1.00223e-08 1.24503e-10 0
-1.00023e-08 9.59671e-11 0
-9.98682e-09 7.3021e-11 0
-9.97497e-09 5.50648e-11 0
-9.96595e-09 4.12586e-11 0
-9.95912e-09 3.07693e-11 0
-9.95398e-09 2.28665e-11 0
-9.95013e-09 1.69483e-11 0
-9.94725e-09 1.2536e-11 0
-9.9451e-09 9.25741e-12 0
-9.94351e-09 6.82745e-12 0
-9.94233e-09 5.03001e-12 0
-9.94145e-09 3.70253e-12 0
-9.9408e-09 2.72334e-12 0
-9.94032e-09 2.0018e-12 0
-9.93997e-09 1.47054e-12 0
-9.9397e-09 1.07964e-12 0
-9.93951e-09 7.92156e-13 0
-9.93937e-09 5.80784e-13 0
-9.93927e-09 4.2537e-13 0
-9.93919e-09 3.11034e-13 0
-9.93913e-09 2.2678e-13 0
-9.93909e-09 1.6445e-13 0
-9.93906e-09 1.17931e-13 0
-9.93904e-09 8.25128e-14 0
-9.93902e-09 5.43627e-14 0
-9.93901e-09 3.01831e-14 0
-9.939e-09 7.16995e-15 0
-9.93901e-09 -1.5953e-14 0
0.0115185 7.35743e-09 0
0 -6.63691e-09 0
1.0523e-13 -3.88634e-09 0
-1.69705e-08 -5.68628e-09 0
-1.90913e-08 -2.32757e-09 0
-1.58575e-08 -9.90644e-10 0
-1.36717e-08 -1.86943e-09 0
-1.25548e-08 -3.92395e-09 0
-1.63647e-08 -1.02074e-08 0
-1.52977e-08 -7.68987e-09 0
-1.61186e-08 -3.40011e-18 0
-1.42702e-08 1.5906e-08 0
-8.13266e-09 2.105e-08 0
-8.50432e-09 2.75393e-09 0
-1.03453e-08 -4.03399e-09 0
-1.12316e-08 -2.07855e-09 0
-1.16066e-08 -4.34088e-10 0
-1.17593e-08 1.05755e-10 0
-1.18046e-08 2.18042e-10 0
-1.17991e-08 2.09002e-10 0
-1.17729e-08 1.72426e-10 0
-1.17413e-08 1.34807e-10 0
-1.17112e-08 1.0287e-10 0
-1.16853e-08 7.74995e-11 0
-1.16641e-08 5.79433e-11 0
-1.16473e-08 4.31083e-11 0
-1.16342e-08 3.19622e-11 0
-1.16243e-08 2.36398e-11 0
-1.16167e-08 1.74523e-11 0
-1.16111e-08 1.28662e-11 0
-1.16068e-08 9.47462e-12 0
-1.16037e-08 6.97076e-12 0
-1.16013e-08 5.12474e-12 0
-1.15996e-08 3.76516e-12 0
-1.15983e-08 2.76471e-12 0
-1.15973e-08 2.02907e-12 0
-1.15966e-08 1.48847e-12 0
-1.15961e-08 1.0914e-12 0
-1.15957e-08 7.99882e-13 0
-1.15954e-08 5.85917e-13 0
-1.15952e-08 4.28898e-13 0
-1.15951e-08 3.13651e-13 0
-1.1595e-08 2.29003e-13 0
-1.15949e-08 1.6671e-13 0
-1.15948e-08 1.20658e-13 0
-1.15948e-08 8.62547e-14 0
-1.15947e-08 5.99082e-14 0
-1.15947e-08 3.84808e-14 0
-1.15947e-08 1.86114e-14 0
-1.15947e-08 -4.11018e-15 0
-1.15947e-08 -3.28899e-14 0
0.0113701 1.10946e-08 0
0 -7.79516e-09 0
5.205e-14 -2.99092e-09 0
-1.64462e-08 -4.30269e-09 0
-2.00809e-08 -1.79483e-09 0
-1.94767e-08 -7.25259e-10 0
-1.87624e-08 -4.4063e-10 0
-1.79516e-08 -7.01807e-10 0
-1.72942e-08 -4.115e-10 0
-2.32536e-08 4.70682e-10 0
-2.48793e-08 -3.93699e-09 0
-2.82121e-08 -6.78744e-09 0
-1.7923e-08 -1.42746e-09 0
-1.58005e-08 3.01488e-09 0
-1.80499e-08 3.42805e-09 0
-1.89738e-08 2.28832e-09 0
-1.89989e-08 1.27093e-09 0
-1.88332e-08 6.80052e-10 0
-1.86716e-08 3.80963e-10 0
-1.85428e-08 2.29593e-10 0
-1.8444e-08 1.47642e-10 0
-1.83689e-08 9.93878e-11 0
-1.83122e-08 6.88832e-11 0
-1.82695e-08 4.86127e-11 0
-1.82376e-08 3.47014e-11 0
-1.82138e-08 2.49567e-11 0
-1.81961e-08 1.80395e-11 0
-1.8183e-08 1.30854e-11 0
-1.81733e-08 9.51519e-12 0
-1.81662e-08 6.93109e-12 0
-1.81609e-08 5.05486e-12 0
-1.8157e-08 3.68953e-12 0
-1.81541e-08 2.6944e-12 0
-1.8152e-08 1.96831e-12 0
-1.81505e-08 1.43811e-12 0
-1.81494e-08 1.05078e-12 0
-1.81485e-08 7.6772e-13 0
-1.81479e-08 5.60834e-13 0
-1.81475e-08 4.09607e-13 0
-1.81471e-08 2.99056e-13 0
-1.81469e-08 2.18227e-13 0
-1.81467e-08 1.59106e-13 0
-1.81466e-08 1.15821e-13 0
-1.81465e-08 8.40579e-14 0
-1.81464e-08 6.06231e-14 0
-1.81464e-08 4.31075e-14 0
-1.81463e-08 2.96006e-14 0
-1.81463e-08 1.83123e-14 0
-1.81463e-08 6.65059e-15 0
-1.81463e-08 -1.28206e-14 0
-1.81463e-08 -5.41947e-14 0
0.00978427 1.23677e-08 0
0 0 0
1.77598e-14 0 0
-8.28117e-09 0 0
-1.07801e-08 0 0
-1.14079e-08 0 0
-1.14258e-08 0 0
-1.08561e-08 0 0
-9.43429e-09 0 0
-7.95601e-09 0 0
-8.76072e-09 0 0
-1.39419e-08 0 0
-1.70019e-08 0 0
-1.66416e-08 0 0
-1.49986e-08 0 0
-1.35859e-08 0 0
-1.27299e-08 0 0
-1.2271e-08 0 0
-1.20244e-08 0 0
-1.18833e-08 0 0
-1.17965e-08 0 0
-1.17398e-08 0 0
-1.17011e-08 0 0
-1.1674e-08 0 0
-1.16548e-08 0 0
-1.1641e-08 0 0
-1.1631e-08 0 0
-1.16238e-08 0 0
-1.16185e-08 0 0
-1.16147e-08 0 0
-1.16119e-08 0 0
-1.16099e-08 0 0
-1.16084e-08 0 0
-1.16073e-08 0 0
-1.16065e-08 0 0
-1.16059e-08 0 0
-1.16055e-08 0 0
-1.16052e-08 0 0
-1.16049e-08 0 0
-1.16048e-08 0 0
-1.16047e-08 0 0
-1.16046e-08 0 0
-1.16045e-08 0 0
-1.16045e-08 0 0
-1.16044e-08 0 0
-1.16044e-08 0 0
-1.16044e-08 0 0
-1.16044e-08 0 0
-1.16044e-08 0 0
-1.16044e-08 0 0
-1.16044e-08 0 0
0.00416883 0 0
0 0 6.70945e-09
2.49143e-14 0 2.91989e-09
-1.8661e-08 0 2.73749e-09
-2.26614e-08 0 -2.54939e-09
-1.79208e-08 0 -5.46019e-09
-2.66214e-09 0 -3.53671e-09
-4.47027e-09 0 -4.27051e-11
-7.66332e-09 0 8.93337e-10
-9.95768e-09 0 5.90845e-10
-1.10307e-08 0 -3.14971e-11
-1.19294e-08 0 -2.90644e-10
-1.30514e-08 0 -2.73691e-10
-1.41852e-08 0 -1.7342e-10
-1.51615e-08 0 -8.65854e-11
-1.59499e-08 0 -3.45267e-11
-1.65611e-08 0 -9.95174e-12
-1.70181e-08 0 -8.83463e-13
-1.73505e-08 0 1.26551e-12
-1.75878e-08 0 1.02595e-12
-1.77551e-08 0 3.16364e-13
-1.78726e-08 0 -2.37687e-13
-1.79549e-08 0 -5.33355e-13
-1.80128e-08 0 -6.29925e-13
-1.80537e-08 0 -6.08872e-13
-1.80827e-08 0 -5.32369e-13
-1.81035e-08 0 -4.38666e-13
-1.81183e-08 0 -3.4791e-13
-1.8129e-08 0 -2.68895e-13
-1.81368e-08 0 -2.04117e-13
-1.81424e-08 0 -1.52971e-13
-1.81465e-08 0 -1.13585e-13
-1.81495e-08 0 -8.37727e-14
-1.81517e-08 0 -6.14795e-14
-1.81533e-08 0 -4.49542e-14
-1.81545e-08 0 -3.27816e-14
-1.81554e-08 0 -2.3856e-14
-1.8156e-08 0 -1.73335e-14
-1.81565e-08 0 -1.25778e-14
-1.81568e-08 0 -9.11707e-15
-1.81571e-08 0 -6.59981e-15
-1.81572e-08 0 -4.76746e-15
-1.81574e-08 0 -3.43119e-15
-1.81575e-08 0 -2.45254e-15
-1.81575e-08 0 -1.73427e-15
-1.81576e-08 0 -1.22423e-15
-1.81576e-08 0 -9.25728e-16
-1.81577e-08 0 -7.55486e-16
-1.81577e-08 0 3.9223e-16
-1.81577e-08 0 9.31988e-15
-1.81578e-08 0 4.30151e-14
0.00978382 0 -1.06739e-08
0.0036 8.13462e-09 4.97715e-09
0.00359998 -0.00366025 -0.0016947
0.0113903 -0.0079393 -0.00340035
0.0212253 -0.00901436 -0.00305269
0.0321111 -0.00983517 -0.00230045
0.0459214 -0.00580114 -0.001135
0.0470118 -0.000178514 -0.000162902
0.0464093 0.00250249 7.28705e-05
0.0410662 0.00413904 -5.26614e-06
0.0358634 0.00404175 -0.000142937
0.0314776 0.00331607 -0.000146335
0.0282322 0.00242417 -0.000100622
0.0260787 0.00163026 -5.76315e-05
0.0247413 0.001034 -2.92952e-05
0.0239451 0.000628063 -1.36187e-05
0.0234882 0.000367526 -5.92765e-06
0.0232358 0.000207402 -2.48117e-06
0.0231023 0.000112556 -1.04367e-06
0.0230356 5.82603e-05 -4.76319e-07
0.0230051 2.82271e-05 -2.58042e-07
0.0229933 1.22401e-05 -1.7005e-07
0.0229907 4.13433e-06 -1.27651e-07
0.0229921 3.08867e-07 -1.00865e-07
0.022995 -1.27918e-06 -8.02121e-08
0.0229981 -1.7559e-06 -6.31118e-08
0.0230009 -1.72279e-06 -4.89366e-08
0.0230032 -1.48887e-06 -3.74283e-08
0.023005 -1.20446e-06 -2.83009e-08
0.0230065 -9.36372e-07 -2.12064e-08
0.0230075 -7.09231e-07 -1.57798e-08
0.0230083 -5.27601e-07 -1.16795e-08
0.0230089 -3.87443e-07 -8.61005e-09
0.0230093 -2.81811e-07 -6.32823e-09
0.0230096 -2.03499e-07 -4.64073e-09
0.0230098 -1.46126e-07 -3.3976e-09
0.02301 -1.04464e-07 -2.48453e-09
0.0230101 -7.44128e-08 -1.81548e-09
0.0230102 -5.28506e-08 -1.32634e-09
0.0230102 -3.74446e-08 -9.69795e-10
0.0230103 -2.64758e-08 -7.11331e-10
0.0230103 -1.86906e-08 -5.26346e-10
0.0230103 -1.31821e-08 -3.98126e-10
0.0230103 -9.29947e-09 -3.166e-10
0.0230103 -6.58103e-09 -2.77602e-10
0.0230103 -4.70906e-09 -2.81628e-10
0.0230103 -3.48214e-09 -3.24426e-10
0.0230103 -2.79269e-09 -3.54113e-10
0.0230104 -2.84407e-09 -4.26505e-10
0.0230104 -6.46251e-09 -3.03715e-09
0.0230104 -2.08112e-08 -1.54298e-08
0.0230104 -3.18115e-08 -2.52844e-08
0.01 9.12988e-09 2.69997e-10
0.01 -0.00629678 -0.00292433
0.0165446 -0.0145866 -0.00567756
0.0254873 -0.0180109 -0.00465048
0.0359006 -0.0227192 -0.00290911
0.053901 -0.0137814 -0.000793988
0.0533338 -4.01574e-05 0.000519029
0.0539119 0.00615481 0.000556341
0.0462514 0.0106786 0.000209871
0.0392432 0.00970465 -0.000184977
0.0342435 0.00771755 -0.000241798
0.0308826 0.00545355 -0.000160619
0.0289065 0.00352162 -8.7814e-05
0.0278217 0.00214926 -4.23446e-05
0.0272472 0.00126045 -1.81214e-05
0.0269562 0.000712627 -6.77324e-06
0.026818 0.000387362 -2.03123e-06
0.0267592 0.000200806 -2.95702e-07
0.0267395 9.74817e-05 2.10858e-07
0.0267378 4.24274e-05 2.76522e-07
0.0267434 1.448e-05 2.16914e-07
0.0267511 1.25933e-06 1.43114e-07
0.0267586 -4.25962e-06 8.58343e-08
0.026765 -5.94803e-06 4.80232e-08
0.0267702 -5.87327e-06 2.51649e-08
0.0267742 -5.09802e-06 1.2167e-08
0.0267773 -4.14016e-06 5.15869e-09
0.0267796 -3.23105e-06 1.593e-09
0.0267813 -2.45714e-06 -8.15124e-11
0.0267825 -1.83574e-06 -7.62966e-10
0.0267834 -1.35429e-06 -9.51037e-10
0.0267841 -9.89941e-07 -9.1364e-10
0.0267845 -7.1865e-07 -7.88607e-10
0.0267849 -5.1898e-07 -6.4302e-10
0.0267851 -3.73272e-07 -5.06725e-10
0.0267853 -2.67617e-07 -3.90758e-10
0.0267854 -1.9138e-07 -2.9721e-10
0.0267855 -1.36578e-07 -2.24384e-10
0.0267856 -9.73064e-08 -1.69409e-10
0.0267856 -6.92356e-08 -1.29564e-10
0.0267856 -4.92196e-08 -1.02994e-10
0.0267857 -3.49866e-08 -8.91894e-11
0.0267857 -2.49103e-08 -8.93565e-11
0.0267857 -1.7846e-08 -1.06485e-10
0.0267857 -1.30287e-08 -1.44029e-10
0.0267857 -1.007e-08 -1.98385e-10
0.0267857 -9.17511e-09 -2.27494e-10
0.0267857 -1.13027e-08 -3.17276e-10
0.0267857 -1.66883e-08 -3.40467e-09
0.0267857 -2.49772e-08 -1.75017e-08
0.0267857 -2.98653e-08 -2.86021e-08
0.0148 -1.15107e-08 3.27188e-09
0.0148 -0.00753897 -0.003834
0.0192295 -0.0179249 -0.00758785
0.0246913 -0.0235631 -0.00613361
0.0275249 -0.0350765 -0.00343168
0.0272795 -0.0218997 -0.000755534
0.026454 -1.56356e-07 0.000567072
0.0271729 0.00966665 0.000558444
0.0325511 0.0188995 0.000377119
0.0308882 0.016182 4.13383e-05
0.0286895 0.0117888 -0.000117702
0.0273433 0.00783287 -0.000117804
0.0267698 0.00473115 -7.30205e-05
0.0266355 0.00271329 -3.46684e-05
0.0266776 0.00150263 -1.22444e-05
0.0267732 0.000800409 -2.21862e-06
0.0268695 0.000405711 1.20537e-06
0.0269483 0.000191427 1.83234e-06
0.027007 7.96579e-05 1.53264e-06
0.0270487 2.42945e-05 1.06511e-06
0.0270775 -1.06253e-06 6.74164e-07
0.0270972 -1.10765e-05 4.02853e-07
0.0271106 -1.36578e-05 2.31153e-07
0.0271198 -1.29408e-05 1.28375e-07
0.027126 -1.10025e-05 6.9164e-08
0.0271303 -8.82697e-06 3.60491e-08
0.0271333 -6.83577e-06 1.80082e-08
0.0271354 -5.17248e-06 8.43994e-09
0.0271368 -3.85196e-06 3.52482e-09
0.0271378 -2.83615e-06 1.10845e-09
0.0271385 -2.07096e-06 6.60039e-13
0.027139 -1.50287e-06 -4.43515e-10
0.0271394 -1.0855e-06 -5.6652e-10
0.0271396 -7.81203e-07 -5.45778e-10
0.0271398 -5.60607e-07 -4.70214e-10
0.02714 -4.01389e-07 -3.82218e-10
0.02714 -2.86861e-07 -3.00337e-10
0.0271401 -2.04702e-07 -2.31367e-10
0.0271402 -1.45893e-07 -1.76719e-10
0.0271402 -1.03881e-07 -1.35732e-10
0.0271402 -7.39277e-08 -1.07434e-10
0.0271402 -5.26262e-08 -9.15597e-11
0.0271402 -3.75476e-08 -8.92301e-11
0.0271402 -2.69912e-08 -1.03622e-10
0.0271403 -1.98229e-08 -1.40562e-10
0.0271403 -1.53514e-08 -2.03792e-10
0.0271403 -1.31172e-08 -2.66185e-10
0.0271403 -1.27874e-08 -4.27172e-10
0.0271403 -1.44905e-08 -3.50485e-09
0.0271403 -1.80955e-08 -1.69653e-08
0.0271403 -2.02778e-08 -2.7485e-08
0.018 -2.93544e-08 -2.15864e-09
0.018 -0.00718648 -0.00465878
0.0196684 -0.0167877 -0.00936547
0.0203894 -0.0192355 -0.00729618
0.0163055 -0.0206665 -0.00394427
-7.66656e-09 -0.0110323 -0.00135477
1.77929e-06 7.34757e-07 3.45989e-09
-7.83132e-07 8.46202e-07 8.08552e-05
0.0096444 0.00693846 0.000183125
0.0188572 0.0136065 0.000159461
0.0210578 0.0113249 4.31269e-05
0.0222934 0.00742502 -4.64065e-05
0.0236975 0.00426202 -5.08646e-05
0.0248615 0.00225812 -2.40208e-05
0.0256984 0.00112955 -4.93198e-06
0.0262578 0.000522786 2.83409e-06
0.026614 0.000212491 4.41996e-06
0.0268334 6.29708e-05 3.7216e-06
0.0269659 -3.27722e-06 2.57393e-06
0.027045 -2.83613e-05 1.60945e-06
0.027092 -3.42474e-05 9.45063e-07
0.0271199 -3.19809e-05 5.30301e-07
0.0271366 -2.68879e-05 2.86335e-07
0.0271466 -2.1384e-05 1.48659e-07
0.0271528 -1.64488e-05 7.35155e-08
0.0271565 -1.23825e-05 3.37876e-08
0.0271589 -9.18572e-06 1.3535e-08
0.0271604 -6.74433e-06 3.71088e-09
0.0271614 -4.91502e-06 -6.85706e-10
0.027162 -3.5622e-06 -2.35727e-09
0.0271624 -2.57102e-06 -2.73104e-09
0.0271627 -1.84973e-06 -2.54053e-09
0.0271629 -1.32748e-06 -2.149e-09
0.027163 -9.50792e-07 -1.72628e-09
0.0271631 -6.79891e-07 -1.34382e-09
0.0271632 -4.85522e-07 -1.02508e-09
0.0271632 -3.46325e-07 -7.71516e-10
0.0271633 -2.46795e-07 -5.75776e-10
0.0271633 -1.75723e-07 -4.28088e-10
0.0271633 -1.25037e-07 -3.19239e-10
0.0271633 -8.89399e-08 -2.41938e-10
0.0271633 -6.3281e-08 -1.91546e-10
0.0271633 -4.51011e-08 -1.66774e-10
0.0271633 -3.23003e-08 -1.70776e-10
0.0271633 -2.33877e-08 -2.12517e-10
0.0271633 -1.72984e-08 -3.00475e-10
0.0271633 -1.32885e-08 -3.94857e-10
0.0271633 -1.08471e-08 -5.49551e-10
0.0271633 -9.80961e-09 -3.52291e-09
0.0271633 -9.87116e-09 -1.65924e-08
0.0271633 -1.00886e-08 -2.6805e-08
0.0196 -3.2956e-08 -1.75947e-08
0.0196 -0.00491825 -0.00519736
0.0194722 -0.0107023 -0.0103585
0.0180502 -0.0113561 -0.00776681
0.0137119 -0.00916897 -0.00401291
0.00366756 -0.003597 -0.00173161
1.38667e-06 -1.2872e-06 -0.000324362
5.04065e-07 -5.04065e-07 -8.89079e-10
-7.54673e-07 8.11591e-07 1.27293e-05
0.00693472 0.00474248 4.39288e-05
0.013598 0.00835691 2.96535e-05
0.0171101 0.00521757 -4.04739e-05
0.0207435 0.00218622 -6.37049e-05
0.0233631 0.000725077 -3.25467e-05
0.0249973 0.00011085 -7.44472e-06
0.0259545 -0.000114655 2.82917e-06
0.0264972 -0.000170681 4.84287e-06
0.0267995 -0.000161465 3.96532e-06
0.0269661 -0.000132666 2.61969e-06
0.0270573 -0.000102275 1.55379e-06
0.0271069 -7.62794e-05 8.60023e-07
0.0271338 -5.58552e-05 4.50271e-07
0.0271483 -4.047e-05 2.22437e-07
0.027156 -2.91418e-05 1.01448e-07
0.0271602 -2.09076e-05 3.99832e-08
0.0271623 -1.49669e-05 1.04221e-08
0.0271634 -1.06996e-05 -2.62644e-09
0.027164 -7.64228e-06 -7.46221e-09
0.0271643 -5.45521e-06 -8.43629e-09
0.0271644 -3.89221e-06 -7.76215e-09
0.0271645 -2.77593e-06 -6.52248e-09
0.0271645 -1.97905e-06 -5.2156e-09
0.0271645 -1.4104e-06 -4.04634e-09
0.0271645 -1.00475e-06 -3.0781e-09
0.0271645 -7.15485e-07 -2.31064e-09
0.0271645 -5.09281e-07 -1.71871e-09
0.0271644 -3.62345e-07 -1.27045e-09
0.0271644 -2.57685e-07 -9.35534e-10
0.0271644 -1.83173e-07 -6.88219e-10
0.0271644 -1.30152e-07 -5.08211e-10
0.0271644 -9.24481e-08 -3.80612e-10
0.0271644 -6.56578e-08 -2.95781e-10
0.0271644 -4.6638e-08 -2.49463e-10
0.0271644 -3.31394e-08 -2.4314e-10
0.0271644 -2.35398e-08 -2.83387e-10
0.0271644 -1.66444e-08 -3.73094e-10
0.0271644 -1.15432e-08 -4.66386e-10
0.0271644 -7.53419e-09 -6.07391e-10
0.0271644 -4.20925e-09 -3.53844e-09
0.0271644 -1.31367e-09 -1.64842e-08
0.0271644 6.4344e-11 -2.66034e-08
0.0196 -1.9195e-08 -3.13247e-08
0.0196 -0.00232061 -0.00529558
0.019717 -0.00467098 -0.0103283
0.0194564 -0.00400136 -0.00764259
0.0167025 -0.000769306 -0.00386015
0.0125991 0.00497881 -0.00188667
0.00766543 0.00409714 -0.000803447
1.39094e-06 -1.18345e-06 -0.000167121
4.28781e-07 -4.28781e-07 -1.36722e-09
-7.24563e-07 7.84784e-07 3.32677e-06
0.00474193 0.00114829 7.81341e-05
0.0116352 0.0002983 1.40607e-05
0.0186169 -0.00196464 -0.000123191
0.0228913 -0.00197984 -8.96047e-05
0.0250621 -0.00145581 -3.44174e-05
0.0261296 -0.000976053 -7.80118e-06
0.0266581 -0.000633149 3.48895e-07
0.026921 -0.000406803 1.72902e-06
0.0270514 -0.000261759 1.36532e-06
0.0271152 -0.000169636 8.14513e-07
0.0271457 -0.000111041 4.20118e-07
0.0271596 -7.35054e-05 1.89755e-07
0.0271654 -4.92107e-05 6.92837e-08
0.0271673 -3.32981e-05 1.1902e-08
0.0271675 -2.27473e-05 -1.22601e-08
0.0271671 -1.56686e-05 -2.01038e-08
0.0271664 -1.08679e-05 -2.05551e-08
0.0271657 -7.581e-06 -1.80837e-08
0.0271652 -5.31228e-06 -1.4804e-08
0.0271647 -3.7358e-06 -1.16362e-08
0.0271644 -2.63435e-06 -8.91954e-09
0.0271641 -1.86147e-06 -6.72619e-09
0.0271639 -1.31731e-06 -5.01642e-09
0.0271637 -9.33211e-07 -3.71273e-09
0.0271636 -6.61565e-07 -2.73312e-09
0.0271635 -4.69184e-07 -2.00447e-09
0.0271635 -3.32809e-07 -1.4665e-09
0.0271634 -2.36076e-07 -1.07176e-09
0.0271634 -1.67435e-07 -7.84099e-10
0.0271634 -1.18721e-07 -5.76756e-10
0.0271634 -8.41439e-08 -4.30839e-10
0.0271634 -5.95917e-08 -3.34223e-10
0.0271633 -4.21331e-08 -2.81019e-10
0.0271633 -2.96627e-08 -2.71477e-10
0.0271633 -2.06421e-08 -3.11419e-10
0.0271633 -1.39028e-08 -4.03169e-10
0.0271633 -8.48444e-09 -4.98584e-10
0.0271633 -3.51722e-09 -6.35674e-10
0.0271633 1.70503e-09 -3.56561e-09
0.0271633 7.32989e-09 -1.65566e-08
0.0271633 1.02089e-08 -2.67178e-08
0.018 -1.20756e-08 -3.42256e-08
0.018 -0.000230479 -0.0050606
0.0193881 -9.75422e-05 -0.00966352
0.0209606 0.000884262 -0.00699493
0.0208491 0.00302623 -0.00354301
0.0204811 0.00806494 -0.0017586
0.0208794 0.0136646 -0.000897236
0.0130324 0.00787459 -0.000401738
1.42436e-06 -9.42552e-07 -0.00011206
-6.01637e-07 -1.03762e-06 1.15343e-08
1.11576e-07 -0.00329652 0.000342789
0.0110894 -0.00865381 0.000305092
0.0200481 -0.00902664 -0.000130435
0.0245292 -0.00568678 -0.000139827
0.0262529 -0.00311188 -6.3681e-05
0.0268727 -0.0017053 -2.15895e-05
0.0270946 -0.000960889 -6.33271e-06
0.0271696 -0.000554706 -1.66506e-06
0.0271889 -0.000327026 -3.92582e-07
0.0271879 -0.000196735 -9.578e-08
0.0271804 -0.000120753 -4.57817e-08
0.027172 -7.55937e-05 -4.35208e-08
0.0271644 -4.82288e-05 -4.3334e-08
0.0271583 -3.13185e-05 -3.9134e-08
0.0271535 -2.06651e-05 -3.26612e-08
0.02715 -1.38286e-05 -2.58865e-08
0.0271473 -9.36557e-06 -1.98564e-08
0.0271454 -6.4069e-06 -1.49198e-08
0.0271439 -4.41895e-06 -1.10657e-08
0.0271429 -3.06789e-06 -8.14008e-09
0.0271422 -2.14091e-06 -5.95711e-09
0.0271416 -1.49999e-06 -4.34542e-09
0.0271412 -1.05411e-06 -3.16332e-09
0.027141 -7.42425e-07 -2.29992e-09
0.0271408 -5.23736e-07 -1.67098e-09
0.0271406 -3.69868e-07 -1.21373e-09
0.0271405 -2.61385e-07 -8.81891e-10
0.0271404 -1.84787e-07 -6.4174e-10
0.0271404 -1.30645e-07 -4.68963e-10
0.0271404 -9.23462e-08 -3.4646e-10
0.0271403 -6.52308e-08 -2.62865e-10
0.0271403 -4.60042e-08 -2.11757e-10
0.0271403 -3.23205e-08 -1.91468e-10
0.0271403 -2.24886e-08 -2.05382e-10
0.0271403 -1.52561e-08 -2.61933e-10
0.0271403 -9.63771e-09 -3.66763e-10
0.0271403 -4.74457e-09 -4.75832e-10
0.0271403 4.38408e-10 -6.27692e-10
0.0271403 7.15772e-09 -3.60426e-09
0.0271403 1.57206e-08 -1.68711e-08
0.0271403 2.03711e-08 -2.72688e-08
0.0148 -9.769e-09 -3.22794e-08
0.0148 0.000890174 -0.00460376
0.0180479 0.00213318 -0.00850741
0.0216008 0.00291792 -0.00592093
0.0238596 0.00455925 -0.00303756
0.0255657 0.00741382 -0.00165362
0.0285741 0.0127715 -0.000989568
0.0322425 0.0213669 -0.00050386
0.0269515 0.0131249 4.5477e-05
0.0288426 1.52698e-14 0.000575675
0.0332749 -0.0100325 0.00097351
0.0343388 -0.019827 0.000644119
0.0316174 -0.0153587 -4.74259e-05
0.0294669 -0.00813457 -0.000166235
0.0283031 -0.0037728 -9.22422e-05
0.0276832 -0.00180684 -3.59071e-05
0.0273345 -0.000926063 -1.22721e-05
0.0271293 -0.00049972 -3.92755e-06
0.0270051 -0.000279607 -1.16814e-06
0.0269281 -0.000160986 -2.91181e-07
0.0268796 -9.50508e-05 -2.72361e-08
0.0268484 -5.74504e-05 4.21778e-08
0.0268281 -3.55017e-05 5.23181e-08
0.0268147 -2.23991e-05 4.61375e-08
0.0268057 -1.44048e-05 3.688e-08
0.0267996 -9.42381e-06 2.83414e-08
0.0267954 -6.2581e-06 2.13721e-08
0.0267925 -4.20912e-06 1.59472e-08
0.0267905 -2.86115e-06 1.18194e-08
0.0267891 -1.9617e-06 8.71855e-09
0.0267881 -1.35429e-06 6.4084e-09
0.0267874 -9.39986e-07 4.69748e-09
0.0267869 -6.55115e-07 3.43595e-09
0.0267866 -4.57981e-07 2.50893e-09
0.0267863 -3.20881e-07 1.82948e-09
0.0267861 -2.25168e-07 1.3324e-09
0.026786 -1.58158e-07 9.69103e-10
0.0267859 -1.11146e-07 7.03488e-10
0.0267859 -7.8114e-08 5.08664e-10
0.0267858 -5.4875e-08 3.64359e-10
0.0267858 -3.85016e-08 2.54785e-10
0.0267858 -2.69335e-08 1.6678e-10
0.0267858 -1.8706e-08 8.80541e-11
0.0267857 -1.27576e-08 5.46572e-12
0.0267857 -8.28521e-09 -9.6256e-11
0.0267857 -4.62232e-09 -2.29141e-10
0.0267857 -1.09564e-09 -3.61206e-10
0.0267857 3.32277e-09 -5.47554e-10
0.0267857 1.07807e-08 -3.59052e-09
0.0267857 2.27739e-08 -1.73519e-08
0.0267857 2.99083e-08 -2.81998e-08
0.01 -1.60456e-08 -3.30195e-08
0.01 0.000761656 -0.00380857
0.0145915 0.00176129 -0.00664195
0.0191657 0.00219025 -0.00428174
0.0228133 0.00318433 -0.00220397
0.0267701 0.00555553 -0.0013116
0.031934 0.00815648 -0.00106002
0.0405599 0.0100179 -0.000719007