# vtk DataFile Version 2.0
Tobias Weinzierl: CPU, Manycore and Cluster Computing
ASCII

DATASET STRUCTURED_POINTS
DIMENSIONS  51 11 6

ORIGIN 0 0 0 

SPACING 0.1 0.1 0.1 

POINT_DATA 3366

VECTORS velocity float
0 0 0
-1.36129e-14 0 0
-9.5032e-09 0 0
-1.22961e-08 0 0
-1.12032e-08 0 0
-7.13011e-09 0 0
-9.4676e-09 0 0
-1.162e-08 0 0
-1.26194e-08 0 0
-1.24732e-08 0 0
-1.20392e-08 0 0
-1.17935e-08 0 0
-1.17594e-08 0 0
-1.18531e-08 0 0
-1.20056e-08 0 0
-1.21694e-08 0 0
-1.23177e-08 0 0
-1.24406e-08 0 0
-1.2537e-08 0 0
-1.26103e-08 0 0
-1.2665e-08 0 0
-1.27052e-08 0 0
-1.27347e-08 0 0
-1.27563e-08 0 0
-1.2772e-08 0 0
-1.27834e-08 0 0
-1.27918e-08 0 0
-1.27979e-08 0 0
-1.28024e-08 0 0
-1.28057e-08 0 0
-1.2808e-08 0 0
-1.28098e-08 0 0
-1.28111e-08 0 0
-1.2812e-08 0 0
-1.28127e-08 0 0
-1.28132e-08 0 0
-1.28136e-08 0 0
-1.28139e-08 0 0
-1.28141e-08 0 0
-1.28142e-08 0 0
-1.28143e-08 0 0
-1.28144e-08 0 0
-1.28145e-08 0 0
-1.28145e-08 0 0
-1.28146e-08 0 0
-1.28146e-08 0 0
-1.28146e-08 0 0
-1.28146e-08 0 0
-1.28146e-08 0 0
-1.28146e-08 0 0
0.00435446 0 0
0 7.73917e-09 0
-3.99432e-15 6.45832e-09 0
-1.84513e-08 9.51063e-09 0
-2.14696e-08 4.20597e-09 0
-1.7483e-08 -1.91145e-10 0
-7.88709e-09 1.27336e-09 0
-1.06887e-08 4.34222e-09 0
-1.37053e-08 2.26808e-09 0
-1.43042e-08 3.30064e-10 0
-1.44248e-08 -5.14875e-10 0
-1.44476e-08 -3.93938e-10 0
-1.51216e-08 -2.21553e-11 0
-1.6013e-08 2.20802e-10 0
-1.6841e-08 3.27274e-10 0
-1.75405e-08 3.49909e-10 0
-1.80987e-08 3.23327e-10 0
-1.85244e-08 2.73922e-10 0
-1.88386e-08 2.19614e-10 0
-1.90656e-08 1.69893e-10 0
-1.92277e-08 1.28419e-10 0
-1.93429e-08 9.56468e-11 0
-1.94248e-08 7.05936e-11 0
-1.94831e-08 5.1829e-11 0
-1.95248e-08 3.79476e-11 0
-1.95548e-08 2.77517e-11 0
-1.95764e-08 2.02909e-11 0
-1.9592e-08 1.48402e-11 0
-1.96034e-08 1.08595e-11 0
-1.96117e-08 7.95119e-12 0
-1.96178e-08 5.825e-12 0
-1.96222e-08 4.26936e-12 0
-1.96255e-08 3.13032e-12 0
-1.96279e-08 2.29576e-12 0
-1.96296e-08 1.68398e-12 0
-1.96309e-08 1.23531e-12 0
-1.96318e-08 9.06188e-13 0
-1.96325e-08 6.64699e-13 0
-1.96331e-08 4.87487e-13 0
-1.96334e-08 3.57427e-13 0
-1.96337e-08 2.61956e-13 0
-1.96339e-08 1.91858e-13 0
-1.96341e-08 1.40363e-13 0
-1.96342e-08 1.025e-13 0
-1.96342e-08 7.46284e-14 0
-1.96343e-08 5.40888e-14 0
-1.96343e-08 3.89851e-14 0
-1.96344e-08 2.82093e-14 0
-1.96344e-08 2.23074e-14 0
-1.96344e-08 2.82004e-14 0
-1.96345e-08 6.34904e-14 0
0.0100716 -1.38444e-08 0
0 7.14853e-10 0
7.19072e-14 8.56082e-09 0
-1.80959e-08 1.19507e-08 0
-1.68492e-08 5.18585e-09 0
-9.2834e-09 -1.30048e-09 0
-9.67473e-09 -3.92526e-10 0
-1.14455e-08 4.02452e-09 0
-1.46043e-08 1.88932e-10 0
-6.34761e-09 -1.068e-09 0
-4.17822e-09 8.03593e-10 0
-4.47628e-09 2.10474e-09 0
-6.04094e-09 2.70709e-09 0
-7.71374e-09 2.41289e-09 0
-9.00656e-09 1.88388e-09 0
-9.96254e-09 1.41908e-09 0
-1.06487e-08 1.04926e-09 0
-1.11266e-08 7.63371e-10 0
-1.14528e-08 5.48536e-10 0
-1.16735e-08 3.9116e-10 0
-1.18228e-08 2.78019e-10 0
-1.19244e-08 1.97619e-10 0
-1.19943e-08 1.40799e-10 0
-1.20429e-08 1.00683e-10 0
-1.20772e-08 7.23011e-11 0
-1.21015e-08 5.21406e-11 0
-1.21189e-08 3.77502e-11 0
-1.21315e-08 2.74263e-11 0
-1.21407e-08 1.99839e-11 0
-1.21474e-08 1.45956e-11 0
-1.21522e-08 1.068e-11 0
-1.21558e-08 7.826e-12 0
-1.21585e-08 5.74075e-12 0
-1.21604e-08 4.21431e-12 0
-1.21618e-08 3.09534e-12 0
-1.21629e-08 2.2742e-12 0
-1.21637e-08 1.67116e-12 0
-1.21642e-08 1.22807e-12 0
-1.21647e-08 9.02373e-13 0
-1.2165e-08 6.62902e-13 0
-1.21652e-08 4.86788e-13 0
-1.21654e-08 3.57232e-13 0
-1.21655e-08 2.61893e-13 0
-1.21656e-08 1.91713e-13 0
-1.21657e-08 1.40078e-13 0
-1.21657e-08 1.0226e-13 0
-1.21657e-08 7.50554e-14 0
-1.21658e-08 5.65082e-14 0
-1.21658e-08 4.58625e-14 0
-1.21658e-08 4.29229e-14 0
-1.21658e-08 4.88527e-14 0
0.0115509 -1.17976e-08 0
0 -8.68766e-09 0
1.5812e-13 6.44511e-09 0
-1.93775e-08 7.46322e-09 0
-1.65386e-08 1.76673e-09 0
-6.80106e-09 4.50527e-09 0
-8.91775e-09 3.75666e-09 0
-1.02244e-08 4.36109e-15 0
-1.25189e-08 -1.20022e-08 0
-1.7951e-08 -1.52299e-08 0
-1.12981e-08 -2.04e-09 0
-8.62609e-09 3.85375e-09 0
-8.17374e-09 5.16292e-09 0
-8.48275e-09 4.33354e-09 0
-8.91537e-09 3.14804e-09 0
-9.35254e-09 2.23977e-09 0
-9.70794e-09 1.5793e-09 0
-9.96475e-09 1.10427e-09 0
-1.01412e-08 7.68783e-10 0
-1.02609e-08 5.35434e-10 0
-1.03427e-08 3.74416e-10 0
-1.03995e-08 2.63436e-10 0
-1.04396e-08 1.86657e-10 0
-1.04684e-08 1.33184e-10 0
-1.04894e-08 9.56422e-11 0
-1.05047e-08 6.90674e-11 0
-1.0516e-08 5.01095e-11 0
-1.05244e-08 3.64921e-11 0
-1.05306e-08 2.66538e-11 0
-1.05351e-08 1.9512e-11 0
-1.05385e-08 1.4308e-11 0
-1.0541e-08 1.05048e-11 0
-1.05429e-08 7.71918e-12 0
-1.05443e-08 5.67555e-12 0
-1.05453e-08 4.17446e-12 0
-1.05461e-08 3.07096e-12 0
-1.05466e-08 2.25928e-12 0
-1.0547e-08 1.66202e-12 0
-1.05473e-08 1.22244e-12 0
-1.05476e-08 8.98858e-13 0
-1.05477e-08 6.60618e-13 0
-1.05478e-08 4.85173e-13 0
-1.05479e-08 3.55921e-13 0
-1.0548e-08 2.60644e-13 0
-1.0548e-08 1.90348e-13 0
-1.05481e-08 1.38403e-13 0
-1.05481e-08 9.99718e-14 0
-1.05481e-08 7.18439e-14 0
-1.05481e-08 5.21799e-14 0
-1.05481e-08 4.02434e-14 0
-1.05481e-08 3.44735e-14 0
0.0116743 -7.59582e-09 0
0 -1.58329e-08 0
1.96343e-13 2.94446e-09 0
-2.19822e-08 1.79884e-09 0
-2.0214e-08 -9.40481e-10 0
-1.03449e-08 2.22727e-09 0
-3.43403e-14 2.0221e-09 0
-6.62899e-13 -6.90655e-13 0
5.97296e-13 -7.15736e-13 0
-1.32881e-08 -8.38109e-09 0
-1.76804e-08 -1.01736e-08 0
-1.27977e-08 -1.73285e-10 0
-1.18319e-08 3.84525e-09 0
-1.11771e-08 4.05333e-09 0
-1.0695e-08 3.21211e-09 0
-1.0476e-08 2.38184e-09 0
-1.03838e-08 1.69444e-09 0
-1.03453e-08 1.18035e-09 0
-1.0332e-08 8.18515e-10 0
-1.03314e-08 5.70323e-10 0
-1.03369e-08 4.00887e-10 0
-1.03451e-08 2.84504e-10 0
-1.03537e-08 2.03698e-10 0
-1.03619e-08 1.46931e-10 0
-1.0369e-08 1.06613e-10 0
-1.03749e-08 7.77103e-11 0
-1.03797e-08 5.68346e-11 0
-1.03834e-08 4.16689e-11 0
-1.03864e-08 3.06032e-11 0
-1.03886e-08 2.25031e-11 0
-1.03903e-08 1.65601e-11 0
-1.03916e-08 1.21926e-11 0
-1.03926e-08 8.97951e-12 0
-1.03933e-08 6.61389e-12 0
-1.03939e-08 4.87145e-12 0
-1.03943e-08 3.58772e-12 0
-1.03946e-08 2.64182e-12 0
-1.03948e-08 1.94486e-12 0
-1.03949e-08 1.43132e-12 0
-1.03951e-08 1.05295e-12 0
-1.03951e-08 7.74165e-13 0
-1.03952e-08 5.68706e-13 0
-1.03953e-08 4.17205e-13 0
-1.03953e-08 3.05359e-13 0
-1.03953e-08 2.22609e-13 0
-1.03953e-08 1.61202e-13 0
-1.03954e-08 1.15509e-13 0
-1.03954e-08 8.14449e-14 0
-1.03954e-08 5.60984e-14 0
-1.03954e-08 3.748e-14 0
-1.03954e-08 2.32326e-14 0
0.0116815 -3.64431e-09 0
0 -1.36212e-08 0
2.28536e-13 6.54341e-10 0
-2.33758e-08 -1.50816e-10 0
-2.30056e-08 -1.88701e-09 0
-1.46104e-08 -2.12203e-09 0
-5.45383e-09 -1.04018e-09 0
-6.62556e-13 6.22715e-13 0
-2.54213e-14 2.54213e-14 0
5.7078e-13 -6.2381e-13 0
-8.6089e-09 -4.44155e-09 0
-1.07456e-08 -2.73562e-09 0
-1.39815e-08 3.89015e-09 0
-1.38037e-08 3.77708e-09 0
-1.25727e-08 2.76573e-09 0
-1.16496e-08 2.00559e-09 0
-1.10911e-08 1.41519e-09 0
-1.07743e-08 9.92526e-10 0
-1.05987e-08 7.02289e-10 0
-1.05021e-08 5.0312e-10 0
-1.0449e-08 3.64406e-10 0
-1.04199e-08 2.66106e-10 0
-1.04041e-08 1.95403e-10 0
-1.03956e-08 1.43982e-10 0
-1.0391e-08 1.06303e-10 0
-1.03886e-08 7.85624e-11 0
-1.03874e-08 5.80824e-11 0
-1.03868e-08 4.2941e-11 0
-1.03865e-08 3.17395e-11 0
-1.03864e-08 2.3452e-11 0
-1.03863e-08 1.73215e-11 0
-1.03863e-08 1.27881e-11 0
-1.03864e-08 9.43716e-12 0
-1.03864e-08 6.96138e-12 0
-1.03864e-08 5.133e-12 0
-1.03864e-08 3.78332e-12 0
-1.03864e-08 2.78742e-12 0
-1.03864e-08 2.05284e-12 0
-1.03864e-08 1.51118e-12 0
-1.03864e-08 1.11187e-12 0
-1.03865e-08 8.17528e-13 0
-1.03865e-08 6.00531e-13 0
-1.03865e-08 4.40464e-13 0
-1.03865e-08 3.22237e-13 0
-1.03865e-08 2.3469e-13 0
-1.03865e-08 1.69547e-13 0
-1.03865e-08 1.20648e-13 0
-1.03865e-08 8.34002e-14 0
-1.03865e-08 5.43983e-14 0
-1.03864e-08 3.10556e-14 0
-1.03865e-08 1.10051e-14 0
0.0116818 1.38949e-10 0
0 -9.41335e-09 0
2.37815e-13 -1.44434e-09 0
-2.2655e-08 -2.67166e-09 0
-2.30076e-08 -1.97685e-09 0
-1.607e-08 -1.60342e-09 0
-1.11923e-08 -5.06701e-09 0
-7.07357e-09 -4.21311e-09 0
-6.7152e-13 5.73908e-13 0
-3.13042e-15 3.13042e-15 0
5.7176e-13 -5.69797e-13 0
-4.50609e-09 4.73003e-09 0
-1.72859e-08 7.21808e-09 0
-1.78732e-08 3.43552e-09 0
-1.45082e-08 1.53793e-09 0
-1.24053e-08 1.03578e-09 0
-1.14239e-08 7.94407e-10 0
-1.09611e-08 6.24047e-10 0
-1.07274e-08 4.90246e-10 0
-1.06014e-08 3.82329e-10 0
-1.05291e-08 2.95508e-10 0
-1.04853e-08 2.26453e-10 0
-1.04576e-08 1.72238e-10 0
-1.04392e-08 1.30182e-10 0
-1.04267e-08 9.78889e-11 0
-1.0418e-08 7.33008e-11 0
-1.04119e-08 5.47053e-11 0
-1.04074e-08 4.07176e-11 0
-1.04042e-08 3.0241e-11 0
-1.04019e-08 2.24208e-11 0
-1.04002e-08 1.65993e-11 0
-1.03989e-08 1.2275e-11 0
-1.0398e-08 9.06841e-12 0
-1.03973e-08 6.69402e-12 0
-1.03968e-08 4.93786e-12 0
-1.03964e-08 3.64019e-12 0
-1.03962e-08 2.68206e-12 0
-1.0396e-08 1.97509e-12 0
-1.03958e-08 1.45371e-12 0
-1.03957e-08 1.06934e-12 0
-1.03956e-08 7.86043e-13 0
-1.03956e-08 5.77216e-13 0
-1.03955e-08 4.23195e-13 0
-1.03955e-08 3.09426e-13 0
-1.03955e-08 2.25112e-13 0
-1.03954e-08 1.6219e-13 0
-1.03954e-08 1.14558e-13 0
-1.03954e-08 7.75093e-14 0
-1.03954e-08 4.74025e-14 0
-1.03954e-08 2.14099e-14 0
-1.03954e-08 -2.43992e-15 0
0.0116815 3.90516e-09 0
0 -6.7186e-09 0
1.89092e-13 -3.20302e-09 0
-2.09886e-08 -4.75783e-09 0
-2.16724e-08 -2.34331e-09 0
-1.60963e-08 -1.88952e-09 0
-1.25067e-08 -2.80396e-09 0
-1.28572e-08 -8.20938e-09 0
-9.33084e-09 -6.50644e-09 0
-6.82122e-13 4.65693e-13 0
5.81449e-13 3.69317e-13 0
8.6716e-14 1.32759e-08 0
-1.82374e-08 1.6512e-08 0
-2.0303e-08 2.28929e-09 0
-1.52788e-08 -1.46006e-09 0
-1.23991e-08 -5.38502e-10 0
-1.1361e-08 1.09023e-10 0
-1.09971e-08 2.99168e-10 0
-1.08457e-08 3.18785e-10 0
-1.07649e-08 2.84193e-10 0
-1.07118e-08 2.35439e-10 0
-1.06728e-08 1.87513e-10 0
-1.06431e-08 1.45817e-10 0
-1.06202e-08 1.11651e-10 0
-1.06025e-08 8.4599e-11 0
-1.0589e-08 6.36321e-11 0
-1.05788e-08 4.76092e-11 0
-1.0571e-08 3.54827e-11 0
-1.05652e-08 2.63679e-11 0
-1.05608e-08 1.9551e-11 0
-1.05576e-08 1.44714e-11 0
-1.05552e-08 1.0697e-11 0
-1.05533e-08 7.89832e-12 0
-1.0552e-08 5.82665e-12 0
-1.0551e-08 4.29514e-12 0
-1.05503e-08 3.16415e-12 0
-1.05497e-08 2.32963e-12 0
-1.05493e-08 1.71431e-12 0
-1.0549e-08 1.26085e-12 0
-1.05488e-08 9.26801e-13 0
-1.05486e-08 6.80775e-13 0
-1.05485e-08 4.99555e-13 0
-1.05484e-08 3.65985e-13 0
-1.05484e-08 2.67365e-13 0
-1.05483e-08 1.9426e-13 0
-1.05483e-08 1.39588e-13 0
-1.05483e-08 9.78891e-14 0
-1.05482e-08 6.47356e-14 0
-1.05482e-08 3.63512e-14 0
-1.05482e-08 9.54477e-15 0
-1.05482e-08 -1.72306e-14 0
0.0116743 7.79965e-09 0
0 -6.51597e-09 0
1.17247e-13 -4.18516e-09 0
-1.89735e-08 -5.99019e-09 0
-2.00759e-08 -2.33108e-09 0
-1.64492e-08 -1.01447e-09 0
-1.44553e-08 -2.11583e-09 0
-1.36462e-08 -4.36815e-09 0
-1.82675e-08 -1.1316e-08 0
-1.72906e-08 -8.57527e-09 0
-1.72858e-08 -2.52782e-18 0
-1.478e-08 1.85539e-08 0
-7.81458e-09 2.28221e-08 0
-8.64144e-09 1.28542e-09 0
-1.07899e-08 -4.58875e-09 0
-1.18242e-08 -1.9401e-09 0
-1.22441e-08 -2.69176e-10 0
-1.23969e-08 2.099e-10 0
-1.243e-08 2.84043e-10 0
-1.24118e-08 2.5362e-10 0
-1.23752e-08 2.03959e-10 0
-1.23357e-08 1.57628e-10 0
-1.22997e-08 1.19581e-10 0
-1.22693e-08 8.98102e-11 0
-1.22448e-08 6.70409e-11 0
-1.22256e-08 4.98444e-11 0
-1.22108e-08 3.69561e-11 0
-1.21994e-08 2.73455e-11 0
-1.21909e-08 2.02038e-11 0
-1.21845e-08 1.491e-11 0
-1.21797e-08 1.09932e-11 0
-1.21761e-08 8.09934e-12 0
-1.21734e-08 5.9635e-12 0
-1.21714e-08 4.38854e-12 0
-1.217e-08 3.22799e-12 0
-1.21689e-08 2.37332e-12 0
-1.21681e-08 1.74424e-12 0
-1.21675e-08 1.28139e-12 0
-1.21671e-08 9.40974e-13 0
-1.21667e-08 6.90656e-13 0
-1.21665e-08 5.06607e-13 0
-1.21663e-08 3.71253e-13 0
-1.21662e-08 2.71635e-13 0
-1.21661e-08 1.98173e-13 0
-1.2166e-08 1.43752e-13 0
-1.2166e-08 1.03016e-13 0
-1.2166e-08 7.17731e-14 0
-1.21659e-08 4.6377e-14 0
-1.21659e-08 2.30029e-14 0
-1.21659e-08 -3.18088e-15 0
-1.21659e-08 -3.57124e-14 0
0.0115509 1.18755e-08 0
0 -7.77063e-09 0
5.73186e-14 -3.30894e-09 0
-1.82393e-08 -4.65791e-09 0
-2.15365e-08 -1.83959e-09 0
-2.08037e-08 -6.60475e-10 0
-2.01022e-08 -1.24887e-10 0
-1.94914e-08 -3.12612e-10 0
-1.90102e-08 -2.88146e-10 0
-2.59623e-08 -7.95291e-10 0
-2.79724e-08 -6.52991e-09 0
-3.19601e-08 -7.43613e-09 0
-1.89149e-08 1.62038e-10 0
-1.69997e-08 4.25386e-09 0
-1.96485e-08 3.85961e-09 0
-2.06213e-08 2.38493e-09 0
-2.06258e-08 1.29637e-09 0
-2.04333e-08 7.02614e-10 0
-2.02466e-08 4.05279e-10 0
-2.00968e-08 2.51691e-10 0
-1.99814e-08 1.65659e-10 0
-1.98937e-08 1.13298e-10 0
-1.98275e-08 7.93492e-11 0
-1.97779e-08 5.63978e-11 0
-1.97408e-08 4.04657e-11 0
-1.97131e-08 2.92188e-11 0
-1.96926e-08 2.11904e-11 0
-1.96774e-08 1.54158e-11 0
-1.96661e-08 1.12396e-11 0
-1.96578e-08 8.2077e-12 0
-1.96516e-08 6.00028e-12 0
-1.96471e-08 4.38987e-12 0
-1.96438e-08 3.21329e-12 0
-1.96413e-08 2.35278e-12 0
-1.96395e-08 1.723e-12 0
-1.96382e-08 1.26186e-12 0
-1.96372e-08 9.24109e-13 0
-1.96365e-08 6.76685e-13 0
-1.96359e-08 4.9541e-13 0
-1.96355e-08 3.62585e-13 0
-1.96353e-08 2.65242e-13 0
-1.96351e-08 1.93872e-13 0
-1.96349e-08 1.41494e-13 0
-1.96348e-08 1.02967e-13 0
-1.96347e-08 7.44808e-14 0
-1.96346e-08 5.31568e-14 0
-1.96346e-08 3.67153e-14 0
-1.96346e-08 2.30359e-14 0
-1.96346e-08 9.14981e-15 0
-1.96346e-08 -1.32299e-14 0
-1.96346e-08 -6.0541e-14 0
0.0100716 1.37004e-08 0
0 0 0
1.93709e-14 0 0
-9.22274e-09 0 0
-1.17799e-08 0 0
-1.24437e-08 0 0
-1.24151e-08 0 0
-1.16289e-08 0 0
-1.00735e-08 0 0
-8.67173e-09 0 0
-1.06865e-08 0 0
-1.718e-08 0 0
-1.96622e-08 0 0
-1.84374e-08 0 0
-1.64036e-08 0 0
-1.48893e-08 0 0
-1.40148e-08 0 0
-1.35463e-08 0 0
-1.32879e-08 0 0
-1.31351e-08 0 0
-1.30381e-08 0 0
-1.29734e-08 0 0
-1.29286e-08 0 0
-1.28971e-08 0 0
-1.28745e-08 0 0
-1.28583e-08 0 0
-1.28465e-08 0 0
-1.28379e-08 0 0
-1.28317e-08 0 0
-1.28271e-08 0 0
-1.28238e-08 0 0
-1.28213e-08 0 0
-1.28195e-08 0 0
-1.28182e-08 0 0
-1.28173e-08 0 0
-1.28166e-08 0 0
-1.28161e-08 0 0
-1.28157e-08 0 0
-1.28154e-08 0 0
-1.28152e-08 0 0
-1.2815e-08 0 0
-1.28149e-08 0 0
-1.28149e-08 0 0
-1.28148e-08 0 0
-1.28148e-08 0 0
-1.28147e-08 0 0
-1.28147e-08 0 0
-1.28147e-08 0 0
-1.28147e-08 0 0
-1.28147e-08 0 0
-1.28147e-08 0 0
0.00435447 0 0
0 0 6.52444e-09
2.46105e-14 0 3.04489e-09
-1.97973e-08 0 2.78548e-09
-2.35542e-08 0 -2.50595e-09
-1.85543e-08 0 -4.97487e-09
-3.70458e-09 0 -3.00898e-09
-6.3475e-09 0 1.47679e-10
-9.37848e-09 0 8.8376e-10
-1.12998e-08 0 5.23126e-10
-1.20893e-08 0 -6.53778e-11
-1.29675e-08 0 -2.85745e-10
-1.4166e-08 0 -2.57624e-10
-1.53825e-08 0 -1.61229e-10
-1.64295e-08 0 -8.10368e-11
-1.72733e-08 0 -3.36398e-11
-1.79254e-08 0 -1.12362e-11
-1.84125e-08 0 -2.70236e-12
-1.87671e-08 0 -3.39183e-13
-1.90209e-08 0 -1.54892e-13
-1.92008e-08 0 -4.69606e-13
-1.93278e-08 0 -7.28155e-13
-1.94175e-08 0 -8.2596e-13
-1.9481e-08 0 -7.98832e-13
-1.95261e-08 0 -7.03993e-13
-1.95584e-08 0 -5.84968e-13
-1.95815e-08 0 -4.67398e-13
-1.95983e-08 0 -3.63524e-13
-1.96104e-08 0 -2.77419e-13
-1.96192e-08 0 -2.08854e-13
-1.96256e-08 0 -1.55698e-13
-1.96303e-08 0 -1.15241e-13
-1.96338e-08 0 -8.48502e-14
-1.96363e-08 0 -6.22324e-14
-1.96381e-08 0 -4.55125e-14
-1.96395e-08 0 -3.3214e-14
-1.96405e-08 0 -2.42001e-14
-1.96412e-08 0 -1.76102e-14
-1.96418e-08 0 -1.28021e-14
-1.96422e-08 0 -9.29828e-15
-1.96424e-08 0 -6.74545e-15
-1.96427e-08 0 -4.88512e-15
-1.96428e-08 0 -3.52719e-15
-1.96429e-08 0 -2.53401e-15
-1.9643e-08 0 -1.81222e-15
-1.96431e-08 0 -1.31513e-15
-1.96431e-08 0 -1.04493e-15
-1.96432e-08 0 -8.64978e-16
-1.96432e-08 0 5.58969e-16
-1.96432e-08 0 1.07491e-14
-1.96433e-08 0 4.84929e-14
0.0100713 0 -1.17851e-08
0.0036 8.61359e-09 5.05439e-09
0.00359998 -0.00389442 -0.0018421
0.011847 -0.00820409 -0.00354603
0.0217142 -0.00896816 -0.00296235
0.0324303 -0.0095406 -0.00210809
0.0457443 -0.00561663 -0.00103058
0.0468253 -0.000255992 -0.000188412
0.0462513 0.00242883 1.85719e-05
0.0409167 0.00409582 -3.57559e-05
0.0357618 0.00401345 -0.000134593
0.0314473 0.0032828 -0.000124677
0.0282902 0.00238672 -8.24186e-05
0.026214 0.00159577 -4.63976e-05
0.0249338 0.00100559 -2.34779e-05
0.024178 0.000605793 -1.09806e-05
0.023749 0.000350663 -4.86655e-06
0.0235156 0.000194988 -2.10711e-06
0.0233948 0.000103605 -9.33441e-07
0.0233367 5.18929e-05 -4.52035e-07
0.0233119 2.37303e-05 -2.54127e-07
0.0233039 9.07211e-06 -1.66683e-07
0.0233039 1.90027e-06 -1.21265e-07
0.0233071 -1.27179e-06 -9.24688e-08
0.0233112 -2.40265e-06 -7.13753e-08
0.0233152 -2.5585e-06 -5.4912e-08
0.0233186 -2.29907e-06 -4.18922e-08
0.0233213 -1.90459e-06 -3.16719e-08
0.0233235 -1.50559e-06 -2.37537e-08
0.0233251 -1.15524e-06 -1.76981e-08
0.0233263 -8.68763e-07 -1.31179e-08
0.0233272 -6.4414e-07 -9.68411e-09
0.0233279 -4.72721e-07 -7.12732e-09
0.0233284 -3.44292e-07 -5.23349e-09
0.0233287 -2.49319e-07 -3.83626e-09
0.023329 -1.7975e-07 -2.8085e-09
0.0233291 -1.29147e-07 -2.05427e-09
0.0233293 -9.25363e-08 -1.50187e-09
0.0233294 -6.61583e-08 -1.09812e-09
0.0233294 -4.72147e-08 -8.03962e-10
0.0233295 -3.36463e-08 -5.91046e-10
0.0233295 -2.395e-08 -4.39331e-10
0.0233295 -1.70359e-08 -3.35471e-10
0.0233296 -1.21187e-08 -2.7184e-10
0.0233296 -8.63865e-09 -2.45914e-10
0.0233296 -6.20672e-09 -2.58751e-10
0.0233296 -4.57121e-09 -3.05331e-10
0.0233296 -3.59941e-09 -3.40076e-10
0.0233296 -3.52997e-09 -4.73882e-10
0.0233296 -7.38649e-09 -3.41895e-09
0.0233296 -2.27225e-08 -1.68532e-08
0.0233296 -3.44622e-08 -2.74716e-08
0.01 9.63405e-09 1.42774e-09
0.01 -0.00660619 -0.00319156
0.0167586 -0.0148787 -0.00596561
0.0255982 -0.0178408 -0.00456424
0.0358055 -0.0221146 -0.00272868
0.0537183 -0.0133192 -0.000786071
0.0531503 -4.96247e-05 0.000378818
0.0537128 0.00613332 0.00041348
0.045744 0.0106283 0.000125172
0.0387101 0.00957992 -0.00018448
0.0338081 0.00754896 -0.000205951
0.0305783 0.00528067 -0.00012968
0.0287102 0.00338254 -6.91572e-05
0.0276977 0.00204932 -3.29153e-05
0.0271698 0.00119119 -1.39955e-05
0.0269085 0.000665382 -5.22662e-06
0.0267892 0.000355496 -1.58281e-06
0.0267421 0.000179467 -2.50854e-07
0.0267299 8.32244e-05 1.41029e-07
0.0267329 3.28796e-05 1.96277e-07
0.0267415 8.04621e-06 1.55284e-07
0.0267512 -3.11507e-06 1.02439e-07
0.02676 -7.26522e-06 6.118e-08
0.0267674 -8.036e-06 3.39521e-08
0.0267732 -7.33934e-06 1.75431e-08
0.0267777 -6.13751e-06 8.26452e-09
0.0267811 -4.8835e-06 3.30662e-09
0.0267836 -3.76643e-06 8.21938e-10
0.0267854 -2.84499e-06 -3.12478e-10
0.0267868 -2.11801e-06 -7.4466e-10
0.0267878 -1.56046e-06 -8.33555e-10
0.0267885 -1.14092e-06 -7.70369e-10
0.026789 -8.29437e-07 -6.52476e-10
0.0267894 -6.00388e-07 -5.2645e-10
0.0267897 -4.33148e-07 -4.12316e-10
0.0267898 -3.11685e-07 -3.16836e-10
0.02679 -2.23823e-07 -2.40597e-10
0.0267901 -1.60467e-07 -1.81699e-10
0.0267902 -1.14893e-07 -1.37619e-10
0.0267902 -8.21789e-08 -1.06168e-10
0.0267902 -5.87395e-08 -8.60369e-11
0.0267903 -4.19817e-08 -7.72024e-11
0.0267903 -3.00433e-08 -8.12683e-11
0.0267903 -2.16077e-08 -1.01479e-10
0.0267903 -1.57883e-08 -1.41218e-10
0.0267903 -1.21177e-08 -1.96171e-10
0.0267903 -1.07522e-08 -2.29898e-10
0.0267903 -1.26214e-08 -3.86988e-10
0.0267903 -1.79515e-08 -3.80734e-09
0.0267903 -2.64316e-08 -1.88274e-08
0.0267903 -3.14877e-08 -3.05804e-08
0.0148 -1.11769e-08 5.45739e-09
0.0148 -0.00777051 -0.00419832
0.019298 -0.0180427 -0.00798914
0.0246335 -0.0232353 -0.00604933
0.0273116 -0.0346281 -0.00326353
0.0273219 -0.0216653 -0.000769279
0.0265389 -1.56059e-07 0.00045153
0.0272613 0.00996282 0.000435854
0.0326588 0.0192089 0.000279664
0.0307698 0.0160761 1.25555e-05
0.0285163 0.0115132 -0.000105922
0.0271875 0.00754508 -9.7861e-05
0.0266442 0.00450951 -5.86099e-05
0.026532 0.00256248 -2.71599e-05
0.0265898 0.00140241 -9.39048e-06
0.0266956 0.0007344 -1.62588e-06
0.0267981 0.000362537 9.68482e-07
0.0268805 0.00016325 1.41765e-06
0.0269414 6.12016e-05 1.17206e-06
0.0269845 1.20997e-05 8.08712e-07
0.0270143 -9.21882e-06 5.09094e-07
0.0270347 -1.66084e-05 3.02782e-07
0.0270486 -1.74637e-05 1.72934e-07
0.0270582 -1.55951e-05 9.55552e-08
0.0270648 -1.28761e-05 5.1158e-08
0.0270693 -1.01633e-05 2.64322e-08
0.0270725 -7.79703e-06 1.30272e-08
0.0270747 -5.86868e-06 5.9627e-09
0.0270762 -4.35887e-06 2.36674e-09
0.0270773 -3.20672e-06 6.24493e-10
0.0270781 -2.34266e-06 -1.53269e-10
0.0270786 -1.70253e-06 -4.46628e-10
0.027079 -1.23244e-06 -5.09269e-10
0.0270793 -8.89445e-07 -4.7175e-10
0.0270795 -6.40399e-07 -3.98835e-10
0.0270796 -4.6023e-07 -3.20868e-10
0.0270797 -3.30258e-07 -2.50694e-10
0.0270798 -2.36705e-07 -1.92648e-10
0.0270799 -1.69489e-07 -1.47282e-10
0.0270799 -1.2127e-07 -1.13826e-10
0.0270799 -8.67317e-08 -9.15286e-11
0.0270799 -6.20432e-08 -8.04637e-11
0.02708 -4.44612e-08 -8.21182e-11
0.02708 -3.20534e-08 -9.99023e-11
0.02708 -2.3514e-08 -1.39155e-10
0.02708 -1.80249e-08 -2.01462e-10
0.02708 -1.50454e-08 -2.61624e-10
0.02708 -1.42051e-08 -4.67443e-10
0.02708 -1.56175e-08 -3.82376e-09
0.02708 -1.9102e-08 -1.81238e-08
0.02708 -2.12556e-08 -2.92498e-08
0.018 -2.91421e-08 5.09332e-10
0.018 -0.00728644 -0.00505995
0.0197539 -0.0167122 -0.00977886
0.0204918 -0.0188925 -0.00718823
0.016287 -0.0204112 -0.00373641
-6.89442e-09 -0.0109446 -0.0012671
1.79891e-06 7.55976e-07 3.05389e-09
-8.00895e-07 8.67792e-07 6.03805e-05
0.00994836 0.00712293 0.000144676
0.0191804 0.0137684 0.000129881
0.0211827 0.0111884 3.13352e-05
0.0223633 0.0071973 -4.12848e-05
0.0237254 0.00406537 -4.16861e-05
0.0248547 0.00211754 -1.878e-05
0.025669 0.00103329 -3.57193e-06
0.0262137 0.000458984 2.35873e-06
0.0265603 0.000170951 3.47349e-06
0.0267738 3.59619e-05 2.87436e-06
0.0269028 -2.10197e-05 1.96773e-06
0.0269798 -4.02103e-05 1.2212e-06
0.0270258 -4.23081e-05 7.12491e-07
0.0270532 -3.7563e-05 3.97241e-07
0.0270697 -3.08143e-05 2.12889e-07
0.0270796 -2.41816e-05 1.09416e-07
0.0270858 -1.84625e-05 5.327e-08
0.0270896 -1.38433e-05 2.38034e-08
0.027092 -1.02516e-05 8.93872e-09
0.0270936 -7.52533e-06 1.84973e-09
0.0270946 -5.489e-06 -1.22242e-09
0.0270953 -3.9849e-06 -2.30017e-09
0.0270957 -2.88276e-06 -2.44579e-09
0.027096 -2.07984e-06 -2.20101e-09
0.0270962 -1.49743e-06 -1.83091e-09
0.0270964 -1.07633e-06 -1.45684e-09
0.0270965 -7.72633e-07 -1.12764e-09
0.0270965 -5.54028e-07 -8.57251e-10
0.0270966 -3.96918e-07 -6.44002e-10
0.0270966 -2.84145e-07 -4.80335e-10
0.0270967 -2.03284e-07 -3.57455e-10
0.0270967 -1.45361e-07 -2.67477e-10
0.0270967 -1.03912e-07 -2.04414e-10
0.0270967 -7.42932e-08 -1.64754e-10
0.0270967 -5.31798e-08 -1.48053e-10
0.0270967 -3.82001e-08 -1.57801e-10
0.0270967 -2.76645e-08 -2.01965e-10
0.0270967 -2.03641e-08 -2.85499e-10
0.0270967 -1.54515e-08 -3.70834e-10
0.0270967 -1.23431e-08 -5.63978e-10
0.0270967 -1.08227e-08 -3.8054e-09
0.0270967 -1.05197e-08 -1.77065e-08
0.0270967 -1.05736e-08 -2.85257e-08
0.0196 -3.22799e-08 -1.44148e-08
0.0196 -0.00492904 -0.00559535
0.0196182 -0.0106149 -0.0107638
0.0182968 -0.0111008 -0.00766323
0.013881 -0.00892549 -0.00380331
0.00377707 -0.00351058 -0.00161306
1.40603e-06 -1.30559e-06 -0.000304473
5.04698e-07 -5.04698e-07 -8.62004e-10
-7.71636e-07 8.30154e-07 9.04284e-06
0.00712074 0.00482486 3.49937e-05
0.0137631 0.00833744 2.21839e-05
0.0173347 0.00502452 -3.58987e-05
0.0209133 0.00203772 -5.1154e-05
0.0234493 0.000629416 -2.45645e-05
0.0250222 4.72611e-05 -5.02943e-06
0.0259406 -0.000156321 2.5392e-06
0.0264602 -0.000198031 3.84583e-06
0.0267492 -0.000179827 3.06354e-06
0.0269082 -0.000145354 1.99513e-06
0.0269952 -0.00011127 1.17122e-06
0.0270426 -8.27792e-05 6.42128e-07
0.0270682 -6.06129e-05 3.32464e-07
0.027082 -4.39801e-05 1.61616e-07
0.0270894 -3.17432e-05 7.16408e-08
0.0270933 -2.28399e-05 2.643e-08
0.0270954 -1.64035e-05 5.05787e-09
0.0270965 -1.17678e-05 -4.07221e-09
0.027097 -8.43625e-06 -7.18199e-09
0.0270973 -6.04505e-06 -7.51441e-09
0.0270974 -4.33013e-06 -6.70635e-09
0.0270975 -3.10082e-06 -5.54888e-09
0.0270975 -2.21993e-06 -4.39831e-09
0.0270975 -1.58888e-06 -3.39443e-09
0.0270975 -1.13691e-06 -2.57403e-09
0.0270975 -8.13284e-07 -1.92869e-09
0.0270975 -5.81611e-07 -1.43326e-09
0.0270974 -4.15807e-07 -1.05919e-09
0.0270974 -2.97177e-07 -7.8028e-10
0.0270974 -2.12324e-07 -5.74751e-10
0.0270974 -1.51653e-07 -4.25666e-10
0.0270974 -1.08287e-07 -3.2082e-10
0.0270974 -7.73053e-08 -2.52614e-10
0.0270974 -5.51775e-08 -2.18189e-10
0.0270974 -3.93684e-08 -2.19656e-10
0.0270974 -2.80419e-08 -2.62983e-10
0.0270974 -1.9844e-08 -3.48405e-10
0.0270974 -1.37456e-08 -4.32763e-10
0.0270974 -8.9581e-09 -6.12496e-10
0.0270974 -5.00685e-09 -3.8113e-09
0.0270974 -1.57616e-09 -1.75924e-08
0.0270974 5.4213e-11 -2.83225e-08
0.0196 -1.91093e-08 -2.79493e-08
0.0196 -0.00225878 -0.00567395
0.0198779 -0.00453239 -0.0107348
0.0196813 -0.00385176 -0.00756384
0.0169029 -0.000663755 -0.0036778
0.0127598 0.00510241 -0.00177267
0.00779054 0.00418804 -0.000756139
1.41086e-06 -1.20032e-06 -0.000158307
4.28688e-07 -4.28688e-07 -1.21722e-09
-7.41687e-07 8.01585e-07 2.29058e-06
0.00482476 0.000975386 5.77214e-05
0.0120461 6.38201e-05 8.13256e-07
0.0189659 -0.00202771 -0.000104009
0.0230548 -0.00197865 -6.96084e-05
0.0251108 -0.00145322 -2.53302e-05
0.0261219 -0.000978137 -5.36499e-06
0.0266227 -0.000637989 4.70774e-07
0.0268715 -0.000412656 1.36071e-06
0.0269943 -0.000267563 1.0323e-06
0.0270541 -0.000174851 6.01984e-07
0.0270824 -0.000115462 3.03039e-07
0.027095 -7.71119e-05 1.31517e-07
0.0271001 -5.20773e-05 4.33585e-08
0.0271016 -3.55349e-05 2.37372e-09
0.0271015 -2.44695e-05 -1.40939e-08
0.0271009 -1.69817e-05 -1.87123e-08
0.0271001 -1.18617e-05 -1.81042e-08
0.0270993 -8.32897e-06 -1.55478e-08
0.0270987 -5.87287e-06 -1.25677e-08
0.0270982 -4.15458e-06 -9.80714e-09
0.0270978 -2.9464e-06 -7.48542e-09
0.0270975 -2.09351e-06 -5.63058e-09
0.0270973 -1.48958e-06 -4.19348e-09
0.0270971 -1.06094e-06 -3.10165e-09
0.027097 -7.56156e-07 -2.28298e-09
0.0270969 -5.3917e-07 -1.67476e-09
0.0270969 -3.84546e-07 -1.226e-09
0.0270968 -2.7429e-07 -8.96878e-10
0.0270968 -1.95639e-07 -6.57231e-10
0.0270968 -1.39516e-07 -4.84895e-10
0.0270968 -9.9457e-08 -3.64403e-10
0.0270967 -7.08465e-08 -2.86123e-10
0.0270967 -5.03788e-08 -2.45882e-10
0.0270967 -3.5669e-08 -2.44839e-10
0.0270967 -2.49686e-08 -2.88377e-10
0.0270967 -1.69489e-08 -3.76186e-10
0.0270967 -1.05247e-08 -4.63152e-10
0.0270967 -4.73145e-09 -6.41385e-10
0.0270967 1.20749e-09 -3.8451e-09
0.0270967 7.48344e-09 -1.76776e-08
0.0270967 1.0675e-08 -2.84517e-08
0.018 -1.21348e-08 -3.1467e-08
0.018 -0.000109262 -0.00539939
0.0195546 8.35157e-05 -0.0100311
0.0211698 0.000970268 -0.00693909
0.0210092 0.00307556 -0.00339712
0.0206044 0.00808477 -0.00166239
0.0210458 0.0137798 -0.000850076
0.0131705 0.00799304 -0.000377583
1.44445e-06 -9.56198e-07 -0.000100079
-6.19037e-07 -1.04806e-06 1.16872e-08
1.08458e-07 -0.00372121 0.000274079
0.011488 -0.00911099 0.000229185
0.0204287 -0.0089356 -0.000121009
0.0246784 -0.00548936 -0.000112031
0.0262713 -0.00300794 -4.8139e-05
0.0268434 -0.00166419 -1.58424e-05
0.0270488 -0.000946529 -4.57787e-06
0.0271175 -0.000551337 -1.20094e-06
0.027134 -0.000328124 -2.93762e-07
0.0271314 -0.000199416 -8.40532e-08
0.027123 -0.000123731 -4.73097e-08
0.0271138 -7.83331e-05 -4.30987e-08
0.0271057 -5.05461e-05 -4.01972e-08
0.0270992 -3.31916e-05 -3.48334e-08
0.0270942 -2.21378e-05 -2.83703e-08
0.0270904 -1.49657e-05 -2.21594e-08
0.0270876 -1.0233e-05 -1.68485e-08
0.0270855 -7.06292e-06 -1.25935e-08
0.027084 -4.91202e-06 -9.31228e-09
0.0270829 -3.4368e-06 -6.83946e-09
0.0270821 -2.41599e-06 -5.00198e-09
0.0270815 -1.70457e-06 -3.64845e-09
0.0270811 -1.20595e-06 -2.65679e-09
0.0270808 -8.54938e-07 -1.93274e-09
0.0270805 -6.07002e-07 -1.40526e-09
0.0270804 -4.31423e-07 -1.02163e-09
0.0270803 -3.06847e-07 -7.43127e-10
0.0270802 -2.18335e-07 -5.41558e-10
0.0270801 -1.5538e-07 -3.96676e-10
0.0270801 -1.10566e-07 -2.94326e-10
0.0270801 -7.86342e-08 -2.25274e-10
0.02708 -5.58455e-08 -1.84604e-10
0.02708 -3.95223e-08 -1.7165e-10
0.02708 -2.7726e-08 -1.90221e-10
0.02708 -1.90166e-08 -2.48043e-10
0.02708 -1.22622e-08 -3.47956e-10
0.02708 -6.45299e-09 -4.49145e-10
0.02708 -4.70685e-10 -6.47588e-10
0.02708 7.00872e-09 -3.91637e-09
0.02708 1.63168e-08 -1.80474e-08
0.02708 2.13346e-08 -2.90669e-08
0.0148 -1.0018e-08 -3.04488e-08
0.0148 0.00104736 -0.00487728
0.0182449 0.00234672 -0.0088018
0.021822 0.00297348 -0.00588496
0.0240127 0.00453976 -0.00293628
0.025696 0.00740292 -0.00157036
0.0287148 0.012795 -0.000927903
0.0325383 0.0215199 -0.00046414
0.0273441 0.0132622 5.25319e-05
0.0292244 1.53041e-14 0.000522931
0.0334289 -0.0105824 0.000804716
0.0339637 -0.0204202 0.00047871
0.0312487 -0.0151785 -7.12241e-05
0.02928 -0.00778177 -0.000133799
0.028227 -0.00359783 -6.78219e-05
0.0276565 -0.00174734 -2.53153e-05
0.0273286 -0.000909047 -8.44365e-06
0.0271322 -0.00049672 -2.64427e-06
0.0270114 -0.000281106 -7.59049e-07
0.0269355 -0.0001637 -1.69751e-07
0.0268871 -9.78093e-05 2.82124e-09
0.0268557 -5.98622e-05 4.48021e-08
0.0268349 -3.74753e-05 4.77931e-08
0.0268211 -2.39575e-05 4.06184e-08
0.0268117 -1.56093e-05 3.20425e-08
0.0268053 -1.03419e-05 2.4489e-08
0.0268009 -6.95142e-06 1.842e-08
0.0267978 -4.72926e-06 1.37271e-08
0.0267956 -3.24954e-06 1.01675e-08
0.0267941 -2.25072e-06 7.49819e-09
0.026793 -1.5688e-06 5.5116e-09
0.0267922 -1.09888e-06 4.04116e-09
0.0267917 -7.72635e-07 2.95722e-09
0.0267913 -5.44792e-07 2.16067e-09
0.026791 -3.84942e-07 1.57667e-09
0.0267908 -2.72401e-07 1.14921e-09
0.0267907 -1.92958e-07 8.36535e-10
0.0267906 -1.36768e-07 6.07645e-10
0.0267905 -9.69642e-08 4.39403e-10
0.0267905 -6.87316e-08 3.14289e-10
0.0267904 -4.86758e-08 2.18531e-10
0.0267904 -3.43901e-08 1.40438e-10
0.0267904 -2.41531e-08 6.88421e-11
0.0267904 -1.67113e-08 -8.39373e-12
0.0267904 -1.11158e-08 -1.05038e-10
0.0267904 -6.58488e-09 -2.30192e-10
0.0267903 -2.34141e-09 -3.55278e-10
0.0267903 2.75437e-09 -5.95911e-10
0.0267903 1.09733e-08 -3.97131e-09
0.0267904 2.38873e-08 -1.86969e-08
0.0267904 3.15255e-08 -3.02328e-08
0.01 -1.62245e-08 -3.20676e-08
0.01 0.00089703 -0.0040109
0.0149133 0.00194171 -0.00686968
0.0195578 0.00224146 -0.00428893
0.0231674 0.00317103 -0.00216773
0.0270764 0.00548445 -0.00125963
0.032224 0.00805348 -0.00097735
0.040849 0.00987376 -0.000644696
0.0542494 0.00340342 4.50192e-05