# vtk DataFile Version 2.0
Tobias Weinzierl: CPU, Manycore and Cluster Computing
ASCII

DATASET STRUCTURED_POINTS
DIMENSIONS  51 11 6

ORIGIN 0 0 0 

SPACING 0.1 0.1 0.1 

POINT_DATA 3366

VECTORS velocity float
0 0 0
4.54258e-15 0 0
-6.83731e-10 0 0
-2.38902e-09 0 0
-3.96904e-09 0 0
-1.53342e-09 0 0
-5.68537e-10 0 0
-4.57132e-12 0 0
1.43903e-10 0 0
-3.47466e-10 0 0
-1.10129e-09 0 0
-1.66767e-09 0 0
-1.89598e-09 0 0
-1.8893e-09 0 0
-1.80655e-09 0 0
-1.7446e-09 0 0
-1.72619e-09 0 0
-1.7379e-09 0 0
-1.76149e-09 0 0
-1.78524e-09 0 0
-1.8042e-09 0 0
-1.81747e-09 0 0
-1.82589e-09 0 0
-1.83077e-09 0 0
-1.83331e-09 0 0
-1.83441e-09 0 0
-1.83471e-09 0 0
-1.83459e-09 0 0
-1.8343e-09 0 0
-1.83395e-09 0 0
-1.83363e-09 0 0
-1.83334e-09 0 0
-1.83311e-09 0 0
-1.83293e-09 0 0
-1.83278e-09 0 0
-1.83268e-09 0 0
-1.83259e-09 0 0
-1.83253e-09 0 0
-1.83249e-09 0 0
-1.83246e-09 0 0
-1.83243e-09 0 0
-1.83242e-09 0 0
-1.8324e-09 0 0
-1.8324e-09 0 0
-1.83239e-09 0 0
-1.83238e-09 0 0
-1.83238e-09 0 0
-1.83238e-09 0 0
-1.83238e-09 0 0
-1.83238e-09 0 0
0.00240178 0 0
0 6.66655e-09 0
1.5226e-14 1.98675e-10 0
-1.12038e-09 6.47533e-10 0
-4.29435e-09 9.81146e-10 0
-6.63923e-09 6.7136e-10 0
-2.7438e-09 9.44108e-10 0
-1.66707e-09 1.66825e-09 0
-1.06e-09 1.38132e-09 0
-4.42479e-10 1.04358e-09 0
-7.67912e-10 1.08259e-09 0
-1.79393e-09 1.00267e-09 0
-2.74155e-09 6.85645e-10 0
-3.20182e-09 3.05297e-10 0
-3.27739e-09 4.87095e-11 0
-3.24751e-09 -4.10591e-11 0
-3.27532e-09 -3.10672e-11 0
-3.37474e-09 2.62843e-12 0
-3.50277e-09 2.46948e-11 0
-3.62229e-09 3.09197e-11 0
-3.71644e-09 2.75409e-11 0
-3.78299e-09 2.06485e-11 0
-3.82642e-09 1.37312e-11 0
-3.8529e-09 8.19496e-12 0
-3.86797e-09 4.29724e-12 0
-3.87588e-09 1.80586e-12 0
-3.87953e-09 3.54323e-13 0
-3.88082e-09 -3.99979e-13 0
-3.8809e-09 -7.2306e-13 0
-3.88042e-09 -8.00531e-13 0
-3.87976e-09 -7.5207e-13 0
-3.87909e-09 -6.49595e-13 0
-3.87849e-09 -5.33182e-13 0
-3.878e-09 -4.23047e-13 0
-3.87761e-09 -3.27779e-13 0
-3.8773e-09 -2.49625e-13 0
-3.87707e-09 -1.87691e-13 0
-3.8769e-09 -1.3977e-13 0
-3.87677e-09 -1.0332e-13 0
-3.87667e-09 -7.59396e-14 0
-3.8766e-09 -5.55594e-14 0
-3.87655e-09 -4.04901e-14 0
-3.87652e-09 -2.93982e-14 0
-3.87649e-09 -2.12552e-14 0
-3.87647e-09 -1.52803e-14 0
-3.87646e-09 -1.08854e-14 0
-3.87645e-09 -7.61579e-15 0
-3.87644e-09 -5.12769e-15 0
-3.87644e-09 -3.15614e-15 0
-3.87644e-09 -7.61213e-16 0
-3.87644e-09 4.41306e-15 0
0.00662619 -2.17052e-09 0
0 2.89384e-11 0
2.38498e-14 2.26056e-10 0
-1.54243e-10 -8.98172e-12 0
-2.44602e-09 -1.42131e-09 0
-3.17606e-09 -2.29871e-09 0
-3.63917e-10 -1.92554e-10 0
-1.56254e-09 2.2777e-09 0
-2.06675e-09 1.86708e-09 0
-1.58854e-09 6.58364e-10 0
-1.23793e-09 1.72566e-10 0
-1.74847e-09 9.15928e-11 0
-2.42084e-09 3.08792e-10 0
-2.78331e-09 6.06857e-10 0
-2.80468e-09 7.45455e-10 0
-2.73572e-09 7.08654e-10 0
-2.75451e-09 5.91121e-10 0
-2.87053e-09 4.57415e-10 0
-3.02415e-09 3.34416e-10 0
-3.16574e-09 2.32392e-10 0
-3.27417e-09 1.53966e-10 0
-3.34798e-09 9.73349e-11 0
-3.39401e-09 5.85686e-11 0
-3.4206e-09 3.32754e-11 0
-3.43475e-09 1.75206e-11 0
-3.44149e-09 8.17387e-12 0
-3.4441e-09 2.93462e-12 0
-3.44458e-09 2.11215e-13 0
-3.44409e-09 -1.04338e-12 0
-3.44323e-09 -1.48728e-12 0
-3.44233e-09 -1.51626e-12 0
-3.44151e-09 -1.35738e-12 0
-3.44083e-09 -1.13389e-12 0
-3.44029e-09 -9.07767e-13 0
-3.43987e-09 -7.06481e-13 0
-3.43955e-09 -5.39086e-13 0
-3.43931e-09 -4.05549e-13 0
-3.43914e-09 -3.01916e-13 0
-3.43901e-09 -2.23011e-13 0
-3.43891e-09 -1.63744e-13 0
-3.43885e-09 -1.1966e-13 0
-3.4388e-09 -8.70973e-14 0
-3.43876e-09 -6.3155e-14 0
-3.43873e-09 -4.55907e-14 0
-3.43872e-09 -3.26946e-14 0
-3.4387e-09 -2.31759e-14 0
-3.43869e-09 -1.60324e-14 0
-3.43869e-09 -1.02948e-14 0
-3.43868e-09 -4.87727e-15 0
-3.43868e-09 6.76997e-16 0
-3.43869e-09 6.11134e-15 0
0.00897286 -3.33266e-09 0
0 -9.54005e-09 0
2.5196e-14 -1.87357e-10 0
6.93727e-10 -1.30665e-09 0
-1.1163e-09 -3.5619e-09 0
-1.9888e-09 -4.74325e-09 0
8.46463e-10 -2.30067e-09 0
-4.64007e-10 -3.04505e-14 0
-1.01132e-09 -5.57776e-10 0
-2.13133e-09 -1.61259e-09 0
-2.28332e-09 -1.9754e-09 0
-2.74476e-09 -1.39025e-09 0
-3.32131e-09 -3.07426e-10 0
-3.54721e-09 6.91266e-10 0
-3.34457e-09 1.1097e-09 0
-2.95008e-09 1.07724e-09 0
-2.62595e-09 8.82159e-10 0
-2.46031e-09 6.66978e-10 0
-2.41402e-09 4.75107e-10 0
-2.42247e-09 3.19648e-10 0
-2.44369e-09 2.03239e-10 0
-2.46046e-09 1.21963e-10 0
-2.46938e-09 6.85948e-11 0
-2.47215e-09 3.54608e-11 0
-2.47134e-09 1.6007e-11 0
-2.46892e-09 5.28328e-12 0
-2.46609e-09 -1.5422e-13 0
-2.46345e-09 -2.55665e-12 0
-2.46124e-09 -3.32056e-12 0
-2.45948e-09 -3.27107e-12 0
-2.45815e-09 -2.8716e-12 0
-2.45715e-09 -2.36709e-12 0
-2.45642e-09 -1.87643e-12 0
-2.45589e-09 -1.44918e-12 0
-2.4555e-09 -1.09904e-12 0
-2.45523e-09 -8.22681e-13 0
-2.45503e-09 -6.09952e-13 0
-2.45489e-09 -4.49028e-13 0
-2.45478e-09 -3.28795e-13 0
-2.45471e-09 -2.39765e-13 0
-2.45466e-09 -1.74264e-13 0
-2.45462e-09 -1.26286e-13 0
-2.45459e-09 -9.12358e-14 0
-2.45457e-09 -6.5644e-14 0
-2.45456e-09 -4.69034e-14 0
-2.45455e-09 -3.30249e-14 0
-2.45455e-09 -2.24809e-14 0
-2.45454e-09 -1.42416e-14 0
-2.45454e-09 -7.6977e-15 0
-2.45454e-09 -2.18843e-15 0
-2.45453e-09 3.03345e-15 0
0.00961194 -2.65173e-09 0
0 -1.83834e-08 0
8.64326e-15 -7.86027e-10 0
3.14474e-10 -2.26962e-09 0
-1.64747e-09 -3.1532e-09 0
-3.31747e-09 -2.57243e-09 0
-1.54724e-14 -9.02837e-10 0
-1.29627e-13 -1.55372e-13 0
1.31106e-13 -1.46895e-13 0
-1.12916e-09 -1.22663e-09 0
-3.02875e-09 -2.50792e-09 0
-3.57996e-09 -1.87038e-09 0
-3.9631e-09 -4.17379e-10 0
-4.20389e-09 7.0416e-10 0
-4.06033e-09 1.04423e-09 0
-3.57682e-09 9.03271e-10 0
-3.02546e-09 6.78933e-10 0
-2.61276e-09 4.91792e-10 0
-2.3684e-09 3.40137e-10 0
-2.2374e-09 2.18046e-10 0
-2.16558e-09 1.26806e-10 0
-2.1221e-09 6.49887e-11 0
-2.09311e-09 2.69947e-11 0
-2.0728e-09 5.86259e-12 0
-2.05847e-09 -4.52086e-12 0
-2.04846e-09 -8.64173e-12 0
-2.0416e-09 -9.43595e-12 0
-2.03696e-09 -8.6659e-12 0
-2.03387e-09 -7.31028e-12 0
-2.03183e-09 -5.8676e-12 0
-2.03048e-09 -4.56204e-12 0
-2.0296e-09 -3.47154e-12 0
-2.02901e-09 -2.6024e-12 0
-2.02862e-09 -1.93011e-12 0
-2.02836e-09 -1.42048e-12 0
-2.02819e-09 -1.03954e-12 0
-2.02807e-09 -7.57603e-13 0
-2.02799e-09 -5.5044e-13 0
-2.02793e-09 -3.99001e-13 0
-2.02789e-09 -2.88705e-13 0
-2.02787e-09 -2.08576e-13 0
-2.02785e-09 -1.50448e-13 0
-2.02783e-09 -1.08293e-13 0
-2.02782e-09 -7.76783e-14 0
-2.02782e-09 -5.53624e-14 0
-2.02781e-09 -3.90062e-14 0
-2.02781e-09 -2.69386e-14 0
-2.02781e-09 -1.79199e-14 0
-2.0278e-09 -1.09661e-14 0
-2.0278e-09 -5.19214e-15 0
-2.0278e-09 2.14185e-16 0
0.00974668 -1.20208e-09 0
0 -1.64025e-08 0
-2.24209e-15 -8.53615e-10 0
-2.05702e-10 -1.88697e-09 0
-2.0901e-09 -2.53791e-09 0
-4.12169e-09 -2.89044e-09 0
-1.79544e-09 -1.38589e-09 0
-1.28398e-13 1.23872e-13 0
7.24128e-15 -7.24128e-15 0
1.2041e-13 -1.41809e-13 0
-1.56292e-09 -1.17954e-09 0
-3.19718e-09 -1.86797e-09 0
-3.33292e-09 -3.81646e-10 0
-3.88341e-09 9.94063e-10 0
-4.33118e-09 1.21086e-09 0
-4.15913e-09 8.04403e-10 0
-3.5415e-09 4.17804e-10 0
-2.92696e-09 2.01021e-10 0
-2.50948e-09 8.56996e-11 0
-2.26743e-09 1.75781e-11 0
-2.13176e-09 -2.15923e-11 0
-2.05358e-09 -3.96137e-11 0
-2.00688e-09 -4.36763e-11 0
-1.97843e-09 -4.01789e-11 0
-1.96106e-09 -3.36236e-11 0
-1.95056e-09 -2.6594e-11 0
-1.94428e-09 -2.02992e-11 0
-1.94059e-09 -1.51434e-11 0
-1.93845e-09 -1.1131e-11 0
-1.93723e-09 -8.10429e-12 0
-1.93654e-09 -5.86545e-12 0
-1.93617e-09 -4.22965e-12 0
-1.93596e-09 -3.04363e-12 0
-1.93586e-09 -2.18773e-12 0
-1.93581e-09 -1.57175e-12 0
-1.93578e-09 -1.1291e-12 0
-1.93577e-09 -8.11212e-13 0
-1.93577e-09 -5.82963e-13 0
-1.93577e-09 -4.19045e-13 0
-1.93577e-09 -3.01277e-13 0
-1.93577e-09 -2.16609e-13 0
-1.93578e-09 -1.55681e-13 0
-1.93578e-09 -1.11776e-13 0
-1.93578e-09 -8.00785e-14 0
-1.93578e-09 -5.71327e-14 0
-1.93578e-09 -4.04397e-14 0
-1.93578e-09 -2.81896e-14 0
-1.93578e-09 -1.90877e-14 0
-1.93578e-09 -1.21963e-14 0
-1.93578e-09 -6.68893e-15 0
-1.93578e-09 -1.73196e-15 0
0.00976639 3.94654e-10 0
0 -1.15363e-08 0
1.57245e-15 -7.3973e-10 0
-2.75025e-10 -1.76403e-09 0
-2.08954e-09 -1.9493e-09 0
-4.44934e-09 -1.61472e-09 0
-4.02743e-09 -9.52368e-10 0
-1.1637e-09 -2.62644e-10 0
-1.25927e-13 1.21823e-13 0
-1.40623e-15 1.40623e-15 0
1.04564e-13 -1.36261e-13 0
-1.30614e-09 -6.80089e-10 0
-1.48508e-09 3.95345e-11 0
-2.42325e-09 1.87846e-09 0
-3.86429e-09 1.85928e-09 0
-4.45065e-09 8.91593e-10 0
-3.97764e-09 1.43752e-10 0
-3.21001e-09 -1.61032e-10 0
-2.64062e-09 -2.31277e-10 0
-2.32193e-09 -2.2056e-10 0
-2.16347e-09 -1.85792e-10 0
-2.08778e-09 -1.45898e-10 0
-2.05209e-09 -1.08989e-10 0
-2.03558e-09 -7.85871e-11 0
-2.02831e-09 -5.53625e-11 0
-2.02545e-09 -3.84713e-11 0
-2.02465e-09 -2.6558e-11 0
-2.02473e-09 -1.83037e-11 0
-2.02516e-09 -1.26346e-11 0
-2.02566e-09 -8.75155e-12 0
-2.02612e-09 -6.08857e-12 0
-2.02652e-09 -4.25581e-12 0
-2.02684e-09 -2.98842e-12 0
-2.02709e-09 -2.10739e-12 0
-2.02727e-09 -1.49175e-12 0
-2.02741e-09 -1.05945e-12 0
-2.02752e-09 -7.54566e-13 0
-2.02759e-09 -5.38694e-13 0
-2.02765e-09 -3.85327e-13 0
-2.02769e-09 -2.76043e-13 0
-2.02772e-09 -1.97965e-13 0
-2.02774e-09 -1.42048e-13 0
-2.02776e-09 -1.01905e-13 0
-2.02777e-09 -7.30064e-14 0
-2.02778e-09 -5.21277e-14 0
-2.02778e-09 -3.69671e-14 0
-2.02779e-09 -2.58791e-14 0
-2.02779e-09 -1.77078e-14 0
-2.02779e-09 -1.16798e-14 0
-2.02779e-09 -7.18136e-15 0
-2.02779e-09 -3.45294e-15 0
0.00974668 1.92263e-09 0
0 -8.16104e-09 0
3.40995e-15 -6.51038e-10 0
-4.28247e-10 -1.49452e-09 0
-2.28152e-09 -1.5112e-09 0
-4.32142e-09 -8.6947e-10 0
-4.37086e-09 -2.78182e-10 0
-2.78949e-09 -4.82751e-10 0
-1.32823e-09 -4.06329e-10 0
-1.31974e-13 1.11675e-13 0
1.00031e-13 1.1424e-13 0
-9.05223e-15 -3.5094e-10 0
-6.08233e-10 8.90397e-10 0
-7.19773e-10 2.99834e-09 0
-1.94637e-09 2.71022e-09 0
-3.34623e-09 1.07754e-09 0
-3.67095e-09 -8.9251e-11 0
-3.25733e-09 -4.7416e-10 0
-2.80081e-09 -4.78796e-10 0
-2.5382e-09 -3.80735e-10 0
-2.4309e-09 -2.7664e-10 0
-2.40189e-09 -1.9137e-10 0
-2.40337e-09 -1.2844e-10 0
-2.41351e-09 -8.47672e-11 0
-2.4241e-09 -5.5587e-11 0
-2.43274e-09 -3.64925e-11 0
-2.43917e-09 -2.41009e-11 0
-2.44376e-09 -1.60561e-11 0
-2.44698e-09 -1.08023e-11 0
-2.44923e-09 -7.33993e-12 0
-2.45079e-09 -5.03415e-12 0
-2.45189e-09 -3.48203e-12 0
-2.45265e-09 -2.42642e-12 0
-2.45319e-09 -1.70168e-12 0
-2.45358e-09 -1.19991e-12 0
-2.45385e-09 -8.4996e-13 0
-2.45404e-09 -6.04348e-13 0
-2.45418e-09 -4.31045e-13 0
-2.45428e-09 -3.08207e-13 0
-2.45435e-09 -2.20807e-13 0
-2.4544e-09 -1.58415e-13 0
-2.45443e-09 -1.13744e-13 0
-2.45446e-09 -8.16702e-14 0
-2.45448e-09 -5.85737e-14 0
-2.45449e-09 -4.18861e-14 0
-2.4545e-09 -2.97825e-14 0
-2.45451e-09 -2.09631e-14 0
-2.45451e-09 -1.45179e-14 0
-2.45451e-09 -9.92551e-15 0
-2.45452e-09 -7.02715e-15 0
-2.45452e-09 -5.42935e-15 0
0.00961194 3.13967e-09 0
0 -7.1922e-09 0
6.7828e-15 -4.9288e-10 0
-7.53515e-10 -1.17424e-09 0
-2.75807e-09 -1.18662e-09 0
-4.56289e-09 -6.18846e-10 0
-4.67849e-09 4.45401e-11 0
-3.4889e-09 -9.82902e-11 0
-2.71462e-09 -1.26276e-09 0
-1.39841e-09 -1.00634e-09 0
-1.57408e-09 1.466e-17 0
-3.30454e-09 5.21772e-10 0
-4.30173e-09 1.55634e-09 0
-2.10603e-09 2.37761e-09 0
-8.10697e-10 2.19406e-09 0
-1.95778e-09 1.06122e-09 0
-3.19537e-09 8.28042e-11 0
-3.48306e-09 -3.2855e-10 0
-3.37327e-09 -3.68383e-10 0
-3.28549e-09 -2.83518e-10 0
-3.27673e-09 -1.92128e-10 0
-3.30562e-09 -1.24293e-10 0
-3.34095e-09 -7.94149e-11 0
-3.37059e-09 -5.09283e-11 0
-3.39234e-09 -3.30315e-11 0
-3.40737e-09 -2.17274e-11 0
-3.4175e-09 -1.44946e-11 0
-3.42427e-09 -9.79419e-12 0
-3.4288e-09 -6.6922e-12 0
-3.43185e-09 -4.61632e-12 0
-3.43393e-09 -3.21011e-12 0
-3.43535e-09 -2.2475e-12 0
-3.43633e-09 -1.58261e-12 0
-3.43701e-09 -1.11982e-12 0
-3.43749e-09 -7.95585e-13 0
-3.43783e-09 -5.67147e-13 0
-3.43807e-09 -4.05436e-13 0
-3.43824e-09 -2.90502e-13 0
-3.43836e-09 -2.08534e-13 0
-3.43844e-09 -1.49905e-13 0
-3.43851e-09 -1.07865e-13 0
-3.43855e-09 -7.76491e-14 0
-3.43858e-09 -5.58848e-14 0
-3.4386e-09 -4.01714e-14 0
-3.43862e-09 -2.87988e-14 0
-3.43863e-09 -2.05519e-14 0
-3.43864e-09 -1.45742e-14 0
-3.43865e-09 -1.0265e-14 0
-3.43865e-09 -7.33931e-15 0
-3.43865e-09 -6.1941e-15 0
-3.43866e-09 -7.23492e-15 0
0.00897286 3.40909e-09 0
0 -7.59108e-09 0
9.12124e-15 -2.49092e-10 0
-1.04875e-09 -6.21595e-10 0
-2.98138e-09 -6.18844e-10 0
-4.43322e-09 -3.36628e-10 0
-4.74988e-09 -2.26251e-10 0
-4.00791e-09 -4.77985e-10 0
-3.49715e-09 -1.18344e-09 0
-3.85057e-09 -8.65678e-10 0
-3.61568e-09 1.10516e-09 0
-4.25494e-09 2.50158e-09 0
-3.89527e-09 1.68726e-09 0
-2.04928e-09 -2.43865e-10 0
-1.18696e-09 -1.25292e-09 0
-2.41138e-09 -1.04697e-09 0
-3.71077e-09 -3.68646e-10 0
-4.06691e-09 8.76288e-11 0
-3.96591e-09 1.92543e-10 0
-3.8448e-09 1.37931e-10 0
-3.79515e-09 6.82026e-11 0
-3.79193e-09 2.42439e-11 0
-3.8063e-09 3.30518e-12 0
-3.82352e-09 -4.54141e-12 0
-3.83826e-09 -6.36359e-12 0
-3.84946e-09 -5.87842e-12 0
-3.85753e-09 -4.74658e-12 0
-3.8632e-09 -3.60969e-12 0
-3.86715e-09 -2.6653e-12 0
-3.8699e-09 -1.93894e-12 0
-3.87181e-09 -1.40025e-12 0
-3.87315e-09 -1.00786e-12 0
-3.8741e-09 -7.2455e-13 0
-3.87476e-09 -5.20809e-13 0
-3.87523e-09 -3.74508e-13 0
-3.87557e-09 -2.69471e-13 0
-3.87581e-09 -1.94024e-13 0
-3.87598e-09 -1.39789e-13 0
-3.8761e-09 -1.00767e-13 0
-3.87619e-09 -7.26632e-14 0
-3.87626e-09 -5.24045e-14 0
-3.8763e-09 -3.77857e-14 0
-3.87633e-09 -2.72246e-14 0
-3.87636e-09 -1.95868e-14 0
-3.87637e-09 -1.4057e-14 0
-3.87639e-09 -1.00529e-14 0
-3.8764e-09 -7.17129e-15 0
-3.8764e-09 -5.13894e-15 0
-3.87641e-09 -3.83673e-15 0
-3.87641e-09 -3.72024e-15 0
-3.87642e-09 -5.7144e-15 0
0.00662619 1.92241e-09 0
0 0 0
5.32016e-15 0 0
-5.57313e-10 0 0
-1.43351e-09 0 0
-2.02956e-09 0 0
-2.21024e-09 0 0
-2.1448e-09 0 0
-2.11077e-09 0 0
-2.45217e-09 0 0
-2.04161e-09 0 0
-9.50415e-10 0 0
-6.0856e-11 0 0
1.09565e-11 0 0
-6.5718e-10 0 0
-1.58682e-09 0 0
-2.12693e-09 0 0
-2.18369e-09 0 0
-2.04865e-09 0 0
-1.92315e-09 0 0
-1.85275e-09 0 0
-1.82317e-09 0 0
-1.81471e-09 0 0
-1.81503e-09 0 0
-1.8181e-09 0 0
-1.82147e-09 0 0
-1.82434e-09 0 0
-1.82656e-09 0 0
-1.8282e-09 0 0
-1.82938e-09 0 0
-1.83023e-09 0 0
-1.83084e-09 0 0
-1.83127e-09 0 0
-1.83158e-09 0 0
-1.83181e-09 0 0
-1.83197e-09 0 0
-1.83208e-09 0 0
-1.83216e-09 0 0
-1.83222e-09 0 0
-1.83226e-09 0 0
-1.83229e-09 0 0
-1.83231e-09 0 0
-1.83233e-09 0 0
-1.83234e-09 0 0
-1.83235e-09 0 0
-1.83236e-09 0 0
-1.83236e-09 0 0
-1.83236e-09 0 0
-1.83237e-09 0 0
-1.83237e-09 0 0
-1.83237e-09 0 0
0.00240179 0 0
0 0 8.5133e-09
2.11029e-14 0 4.85055e-10
-9.80688e-10 0 1.74149e-09
-4.5994e-09 0 2.30416e-09
-1.07451e-08 0 -1.52696e-09
-3.92428e-09 0 -4.34461e-09
-7.12687e-10 0 -3.1971e-09
1.27788e-09 0 -2.09376e-09
2.13189e-09 0 -7.00689e-10
1.61212e-09 0 1.62601e-10
2.60238e-10 0 3.17536e-10
-1.14948e-09 0 1.0905e-10
-2.15972e-09 0 -8.36727e-11
-2.73015e-09 0 -1.38146e-10
-3.02596e-09 0 -1.03642e-10
-3.21868e-09 0 -4.92912e-11
-3.38849e-09 0 -9.32184e-12
-3.5448e-09 0 1.06058e-11
-3.67638e-09 0 1.6413e-11
-3.77662e-09 0 1.51702e-11
-3.84688e-09 0 1.15834e-11
-3.89286e-09 0 7.95988e-12
-3.92116e-09 0 5.10826e-12
-3.93753e-09 0 3.12151e-12
-3.94632e-09 0 1.83633e-12
-3.95057e-09 0 1.04634e-12
-3.95222e-09 0 5.7904e-13
-3.95252e-09 0 3.11163e-13
-3.95217e-09 0 1.61842e-13
-3.95157e-09 0 8.08493e-14
-3.95092e-09 0 3.81907e-14
-3.95034e-09 0 1.64929e-14
-3.94984e-09 0 5.95508e-15
-3.94944e-09 0 1.17955e-15
-3.94913e-09 0 -7.34545e-16
-3.94889e-09 0 -1.30352e-15
-3.94871e-09 0 -1.2943e-15
-3.94858e-09 0 -1.07751e-15
-3.94848e-09 0 -8.20326e-16
-3.94841e-09 0 -5.89741e-16
-3.94835e-09 0 -4.04622e-16
-3.94831e-09 0 -2.62699e-16
-3.94829e-09 0 -1.53095e-16
-3.94827e-09 0 -6.38791e-17
-3.94825e-09 0 1.95853e-17
-3.94824e-09 0 1.25787e-16
-3.94823e-09 0 2.56873e-16
-3.94823e-09 0 3.38561e-16
-3.94823e-09 0 9.51415e-16
-3.94823e-09 0 4.37932e-15
0.00660912 0 -1.49427e-09
0.0036 -2.37554e-09 6.23828e-10
0.0036 -0.00130048 -3.26822e-05
0.00689788 -0.00410774 -0.000404388
0.0141448 -0.0073806 -0.00203017
0.0252706 -0.0140282 -0.00516684
0.046219 -0.0111023 -0.00465003
0.0491767 -0.000961647 -0.00134256
0.0486832 0.00319432 0.000222897
0.0434433 0.0053338 0.000838895
0.0377801 0.00529252 0.000567026
0.0327478 0.00436631 5.95163e-05
0.0285722 0.00323389 -0.000297195
0.0253341 0.00221339 -0.000398951
0.0230018 0.00143972 -0.000324571
0.0214158 0.000919877 -0.000199761
0.0203745 0.000589013 -9.95986e-05
0.0197076 0.000377432 -4.05387e-05
0.0192902 0.00023957 -1.21883e-05
0.0190351 0.000149423 -9.47091e-07
0.0188828 9.12232e-05 2.38931e-06
0.0187942 5.44237e-05 2.66506e-06
0.0187439 3.16887e-05 2.04292e-06
0.0187162 1.79673e-05 1.3433e-06
0.0187015 9.87796e-06 8.04401e-07
0.0186941 5.22391e-06 4.47363e-07
0.0186907 2.61738e-06 2.30906e-07
0.0186893 1.20333e-06 1.08114e-07
0.018689 4.67094e-07 4.26295e-08
0.0186891 1.05728e-07 1.01225e-08
0.0186893 -5.50679e-08 -4.39517e-09
0.0186896 -1.13164e-07 -9.64169e-09
0.0186899 -1.22e-07 -1.04514e-08
0.0186901 -1.09757e-07 -9.38073e-09
0.0186903 -9.06088e-08 -7.70758e-09
0.0186905 -7.11764e-08 -6.02093e-09
0.0186906 -5.41612e-08 -4.55516e-09
0.0186906 -4.03304e-08 -3.37256e-09
0.0186907 -2.95743e-08 -2.45933e-09
0.0186907 -2.14469e-08 -1.77383e-09
0.0186908 -1.54266e-08 -1.26928e-09
0.0186908 -1.10302e-08 -9.03438e-10
0.0186908 -7.8534e-09 -6.41866e-10
0.0186908 -5.57676e-09 -4.58433e-10
0.0186908 -3.95685e-09 -3.34842e-10
0.0186908 -2.81127e-09 -2.57521e-10
0.0186908 -2.00864e-09 -2.18182e-10
0.0186908 -1.47081e-09 -2.14455e-10
0.0186908 -1.11895e-09 -1.48796e-10
0.0186908 -1.36403e-09 -2.42385e-10
0.0186908 -4.36328e-09 -2.41443e-09
0.0186909 -6.97456e-09 -4.42028e-09
0.01 -1.34805e-09 -1.97035e-08
0.01 -0.00310778 -0.000506384
0.0149763 -0.0102345 -0.00111667
0.0240105 -0.0181985 -0.00258619
0.0373406 -0.0304603 -0.00415248
0.057016 -0.0216688 -0.00114661
0.0549351 -0.00161904 0.00222419
0.0549591 0.00575419 0.00253316
0.0494301 0.0106451 0.00234717
0.0439364 0.0106264 0.0014188
0.0392852 0.00939431 0.00034311
0.0352633 0.00771803 -0.000362718
0.0320364 0.00585092 -0.000601115
0.0297344 0.00410958 -0.000518814
0.028203 0.00273081 -0.000328898
0.027222 0.00175287 -0.000167737
0.0266115 0.00109819 -7.0143e-05
0.0262428 0.000673647 -2.22075e-05
0.0260273 0.000404709 -2.58529e-06
0.0259058 0.000237972 3.65489e-06
0.0258399 0.000136751 4.52546e-06
0.0258059 7.65815e-05 3.68513e-06
0.0257895 4.15779e-05 2.57757e-06
0.0257824 2.16824e-05 1.66343e-06
0.02578 1.06694e-05 1.02052e-06
0.0257798 4.76736e-06 6.04312e-07
0.0257805 1.73785e-06 3.4835e-07
0.0257815 2.79352e-07 1.9643e-07
0.0257825 -3.48662e-07 1.08637e-07
0.0257833 -5.57634e-07 5.89811e-08
0.0257839 -5.69807e-07 3.14142e-08
0.0257844 -5.0098e-07 1.63729e-08
0.0257848 -4.08498e-07 8.30804e-09
0.0257851 -3.18537e-07 4.06572e-09
0.0257853 -2.41278e-07 1.8845e-09
0.0257854 -1.79141e-07 7.95816e-10
0.0257855 -1.31121e-07 2.74974e-10
0.0257856 -9.49759e-08 4.20649e-11
0.0257857 -6.82632e-08 -4.97075e-11
0.0257857 -4.87813e-08 -7.584e-11
0.0257857 -3.47127e-08 -7.43542e-11
0.0257857 -2.46313e-08 -6.40265e-11
0.0257857 -1.74538e-08 -5.40915e-11
0.0257858 -1.23787e-08 -5.02153e-11
0.0257858 -8.82935e-09 -5.40009e-11
0.0257858 -6.39708e-09 -5.42173e-11
0.0257858 -4.90455e-09 -5.27613e-11
0.0257858 -4.67587e-09 -5.73115e-12
0.0257858 -6.06632e-09 -2.99948e-10
0.0257858 -8.97463e-09 -3.51965e-09
0.0257858 -1.0777e-08 -6.39622e-09
0.0148 -1.48183e-08 -2.47017e-08
0.0148 -0.00531465 -0.00104808
0.0199878 -0.0161935 -0.00261506
0.0262989 -0.0276176 -0.00461977
0.0307428 -0.043341 -0.00531663
0.0292261 -0.0266025 -0.0008506
0.0262025 -1.74311e-07 0.0025511
0.0261902 0.00743051 0.00258733
0.030562 0.0154415 0.00250207
0.0309081 0.0151573 0.00157791
0.0297515 0.013277 0.000568526
0.0285924 0.0109327 -0.000146289
0.0277852 0.00816824 -0.000415685
0.0274857 0.00557052 -0.000385571
0.0274471 0.00359767 -0.000239718
0.0274881 0.00225487 -0.000107507
0.0275396 0.00138214 -2.81247e-05
0.0275866 0.000827959 7.17816e-06
0.0276277 0.000483488 1.73959e-05
0.0276628 0.000274496 1.67229e-05
0.0276913 0.000150955 1.2759e-05
0.0277135 7.98666e-05 8.70981e-06
0.0277301 4.01118e-05 5.56414e-06
0.0277421 1.85873e-05 3.40015e-06
0.0277505 7.39304e-06 2.01187e-06
0.0277563 1.88989e-06 1.16101e-06
0.0277603 -5.79179e-07 6.56239e-07
0.027763 -1.49782e-06 3.64116e-07
0.0277648 -1.67172e-06 1.98428e-07
0.027766 -1.52386e-06 1.06081e-07
0.0277669 -1.26651e-06 5.54507e-08
0.0277674 -9.99031e-07 2.81543e-08
0.0277678 -7.6245e-07 1.37135e-08
0.0277681 -5.69063e-07 6.24958e-09
0.0277683 -4.18097e-07 2.51129e-09
0.0277684 -3.03692e-07 7.24775e-10
0.0277685 -2.18732e-07 -6.41236e-11
0.0277685 -1.56542e-07 -3.60453e-10
0.0277686 -1.115e-07 -4.263e-10
0.0277686 -7.91354e-08 -3.94148e-10
0.0277686 -5.60248e-08 -3.28561e-10
0.0277686 -3.96078e-08 -2.59363e-10
0.0277687 -2.80057e-08 -1.98802e-10
0.0277687 -1.98615e-08 -1.4951e-10
0.0277687 -1.42327e-08 -1.08695e-10
0.0277687 -1.05583e-08 -7.51795e-11
0.0277687 -8.51079e-09 -8.49099e-11
0.0277687 -7.73354e-09 -1.74196e-10
0.0277687 -7.92696e-09 -8.12865e-10
0.0277687 -8.60254e-09 -4.21316e-09
0.0277687 -8.96011e-09 -7.0397e-09
0.018 -3.06549e-08 -2.66571e-08
0.018 -0.00665579 -0.0018799
0.0203392 -0.0178207 -0.00503892
0.0201136 -0.0233245 -0.0066448
0.0159032 -0.0254465 -0.00709812
-2.08906e-08 -0.013287 -0.00361236
1.55387e-06 4.81652e-07 1.17868e-08
-5.76841e-07 6.05382e-07 0.000488366
0.007173 0.00485849 0.00101837
0.0150047 0.0110498 0.000900971
0.0184283 0.0118111 0.000479444
0.0200464 0.010005 2.26851e-06
0.0217636 0.00728333 -0.000270542
0.0235404 0.00468052 -0.000286699
0.0250537 0.00285418 -0.000179867
0.0261681 0.0017089 -6.75465e-05
0.0269167 0.001007 2.52456e-06
0.0273972 0.000576766 3.07318e-05
0.0277001 0.000316695 3.41123e-05
0.0278897 0.000164427 2.75799e-05
0.0280076 7.89733e-05 1.9301e-05
0.0280802 3.33235e-05 1.24207e-05
0.0281245 1.0364e-05 7.56543e-06
0.0281513 -2.33604e-07 4.43061e-06
0.0281675 -4.4224e-06 2.51718e-06
0.0281771 -5.49118e-06 1.39394e-06
0.0281828 -5.18096e-06 7.53638e-07
0.0281863 -4.36921e-06 3.97255e-07
0.0281883 -3.46942e-06 2.03118e-07
0.0281895 -2.65559e-06 9.96253e-08
0.0281903 -1.98413e-06 4.57955e-08
0.0281907 -1.45791e-06 1.86672e-08
0.028191 -1.05856e-06 5.60524e-09
0.0281911 -7.61925e-07 -2.28274e-10
0.0281913 -5.44864e-07 -2.47046e-09
0.0281913 -3.87737e-07 -3.01752e-09
0.0281914 -2.74896e-07 -2.8327e-09
0.0281914 -1.94343e-07 -2.38759e-09
0.0281914 -1.37103e-07 -1.89983e-09
0.0281914 -9.6575e-08 -1.45963e-09
0.0281914 -6.79677e-08 -1.09581e-09
0.0281914 -4.78338e-08 -8.09492e-10
0.0281914 -3.37182e-08 -5.91367e-10
0.0281914 -2.38989e-08 -4.31213e-10
0.0281914 -1.71735e-08 -3.22129e-10
0.0281914 -1.26592e-08 -2.74772e-10
0.0281914 -9.67848e-09 -3.44651e-10
0.0281914 -7.68209e-09 -5.31199e-10
0.0281914 -6.3229e-09 -1.29461e-09
0.0281914 -5.2281e-09 -4.52418e-09
0.0281914 -4.67618e-09 -7.10204e-09
0.0196 -4.05972e-08 -4.10834e-08
0.0196 -0.00537283 -0.00272272
0.0191119 -0.0121086 -0.0065294
0.0161818 -0.0147377 -0.00700043
0.011345 -0.0134642 -0.00664786
0.00217519 -0.00546231 -0.00443578
1.17409e-06 -1.08035e-06 -0.000981633
5.0351e-07 -5.0351e-07 -6.63294e-10
-5.62422e-07 5.91259e-07 0.000149674
0.00481039 0.00366003 0.000308312
0.0109744 0.00820474 0.000246718
0.0137636 0.0077285 -2.22503e-05
0.0170439 0.00487734 -0.000293832
0.0203325 0.00245507 -0.00034622
0.0230944 0.00107247 -0.000258129
0.0250894 0.000428794 -0.000126926
0.0263781 0.000150942 -2.71514e-05
0.0271606 2.73806e-05 2.04113e-05
0.0276234 -2.74724e-05 3.16368e-05
0.0278938 -4.73603e-05 2.70493e-05
0.0280504 -4.92534e-05 1.88529e-05
0.0281402 -4.31325e-05 1.18095e-05
0.028191 -3.45948e-05 6.92303e-06
0.0282196 -2.63534e-05 3.87331e-06
0.0282354 -1.9443e-05 2.08733e-06
0.028244 -1.40557e-05 1.08602e-06
0.0282487 -1.00295e-05 5.4327e-07
0.0282512 -7.09739e-06 2.57793e-07
0.0282525 -4.99618e-06 1.12309e-07
0.0282532 -3.50559e-06 4.10355e-08
0.0282535 -2.45484e-06 8.08969e-09
0.0282536 -1.71702e-06 -5.65611e-09
0.0282537 -1.20016e-06 -1.01782e-08
0.0282537 -8.38584e-07 -1.05552e-08
0.0282537 -5.85838e-07 -9.29228e-09
0.0282537 -4.09241e-07 -7.56949e-09
0.0282537 -2.85878e-07 -5.90023e-09
0.0282537 -1.99715e-07 -4.47394e-09
0.0282537 -1.3954e-07 -3.33074e-09
0.0282536 -9.75221e-08 -2.44835e-09
0.0282536 -6.81943e-08 -1.78388e-09
0.0282536 -4.77421e-08 -1.29294e-09
0.0282536 -3.35037e-08 -9.38093e-10
0.0282536 -2.36094e-08 -6.94076e-10
0.0282536 -1.6732e-08 -5.46258e-10
0.0282536 -1.19181e-08 -4.89356e-10
0.0282536 -8.46456e-09 -5.59454e-10
0.0282536 -5.79209e-09 -7.36961e-10
0.0282536 -3.43766e-09 -1.48574e-09
0.0282536 -1.03377e-09 -4.56452e-09
0.0282536 2.2577e-10 -6.99631e-09
0.0196 -1.98356e-08 -5.51831e-08
0.0196 -0.00330163 -0.00306959
0.0189996 -0.00700606 -0.00658802
0.0177266 -0.00666696 -0.00652517
0.0138653 -0.00295938 -0.00573154
0.00998408 0.00332962 -0.00458502
0.00644453 0.00332648 -0.00228612
1.17486e-06 -9.85844e-07 -0.000425951
4.23422e-07 -4.23422e-07 -2.0126e-09
-5.46432e-07 5.78412e-07 4.30053e-05
0.00364926 0.00282461 0.000338053
0.00827618 0.00401507 0.000375459
0.0136939 0.000920319 -3.09432e-05
0.0185559 -0.00114607 -0.00031754
0.0223592 -0.00173789 -0.000382111
0.0249375 -0.00149151 -0.000268685
0.0264661 -0.00104209 -0.000122756
0.0272988 -0.000676025 -3.16899e-05
0.0277364 -0.00043182 4.30173e-06
0.0279636 -0.000276147 1.18619e-05
0.0280804 -0.000176787 9.85445e-06
0.0281396 -0.000113098 6.32101e-06
0.0281691 -7.23283e-05 3.57701e-06
0.0281832 -4.63285e-05 1.86104e-06
0.0281897 -2.97896e-05 8.97028e-07
0.0281924 -1.9266e-05 3.92549e-07
0.0281933 -1.25487e-05 1.44278e-07
0.0281933 -8.23706e-06 3.04612e-08
0.0281931 -5.44952e-06 -1.62731e-08
0.0281928 -3.63268e-06 -3.1314e-08
0.0281925 -2.43852e-06 -3.24802e-08
0.0281922 -1.64718e-06 -2.83642e-08
0.028192 -1.11873e-06 -2.28847e-08
0.0281919 -7.63374e-07 -1.76739e-08
0.0281918 -5.22952e-07 -1.32922e-08
0.0281917 -3.59428e-07 -9.8279e-09
0.0281916 -2.47709e-07 -7.18442e-09
0.0281916 -1.71101e-07 -5.2114e-09
0.0281915 -1.1841e-07 -3.76003e-09
0.0281915 -8.20825e-08 -2.70322e-09
0.0281915 -5.69911e-08 -1.94026e-09
0.0281915 -3.96334e-08 -1.39533e-09
0.0281915 -2.76024e-08 -1.01385e-09
0.0281915 -1.9231e-08 -7.58562e-10
0.0281914 -1.33494e-08 -6.03715e-10
0.0281914 -9.11702e-09 -5.3662e-10
0.0281914 -5.90194e-09 -5.9484e-10
0.0281914 -3.13942e-09 -7.53584e-10
0.0281914 -2.38242e-10 -1.43873e-09
0.0281914 3.20606e-09 -4.418e-09
0.0281914 5.08921e-09 -6.80063e-09
0.018 -1.2553e-08 -5.41956e-08
0.018 -0.0016578 -0.0030077
0.0184745 -0.00288918 -0.00625208
0.0188062 -0.00132674 -0.00576337
0.018176 0.0017847 -0.00462563
0.0181078 0.00761117 -0.00366656
0.0186898 0.0126931 -0.00223982
0.0115383 0.00696201 -0.000999195
1.20191e-06 -7.69776e-07 -0.000319237
-4.38715e-07 -8.85405e-07 8.54687e-09
1.21062e-07 -0.00020523 0.000832507
0.00933273 -0.0024356 0.00134135
0.0170705 -0.00528187 0.000708325
0.0219444 -0.0059356 0.000122849
0.0248274 -0.00502822 -0.000260291
0.0264622 -0.00348983 -0.000328369
0.0272927 -0.00212274 -0.000220948
0.0276563 -0.00121704 -0.000108327
0.0277902 -0.000691549 -4.39016e-05
0.027826 -0.000396836 -1.58935e-05
0.0278256 -0.000230386 -5.48065e-06
0.0278147 -0.000135104 -1.95722e-06
0.027803 -8.00006e-05 -8.18963e-07
0.0277933 -4.78751e-05 -4.40563e-07
0.027786 -2.8989e-05 -2.90939e-07
0.0277808 -1.77775e-05 -2.10464e-07
0.0277771 -1.10466e-05 -1.55069e-07
0.0277745 -6.95486e-06 -1.13288e-07
0.0277727 -4.43465e-06 -8.16191e-08
0.0277715 -2.86155e-06 -5.80966e-08
0.0277706 -1.86672e-06 -4.10027e-08
0.02777 -1.2297e-06 -2.87919e-08
0.0277696 -8.17048e-07 -2.01707e-08
0.0277693 -5.46915e-07 -1.41264e-08
0.0277691 -3.68416e-07 -9.90322e-09
0.027769 -2.49502e-07 -6.95514e-09
0.0277689 -1.69724e-07 -4.8955e-09
0.0277688 -1.15884e-07 -3.454e-09
0.0277688 -7.93683e-08 -2.44305e-09
0.0277688 -5.44996e-08 -1.73305e-09
0.0277687 -3.75009e-08 -1.23481e-09
0.0277687 -2.5838e-08 -8.87293e-10
0.0277687 -1.77938e-08 -6.4935e-10
0.0277687 -1.21902e-08 -4.94919e-10
0.0277687 -8.20077e-09 -4.06843e-10
0.0277687 -5.22011e-09 -3.77384e-10
0.0277687 -2.77558e-09 -4.48905e-10
0.0277687 -4.00231e-10 -5.91438e-10
0.0277687 2.6321e-09 -1.14886e-09
0.0277687 6.8395e-09 -4.01546e-09
0.0277687 9.24873e-09 -6.39552e-09
0.0148 -7.36677e-09 -4.72431e-08
0.0148 -0.000747897 -0.00279766
0.0164694 -0.00081386 -0.00558494
0.018548 0.0010995 -0.00481129
0.0205019 0.0041042 -0.00358408
0.0225944 0.00761217 -0.00288279
0.0262116 0.0127318 -0.00205062
0.0293433 0.0198175 -0.00112383
0.0239016 0.0117592 -0.000144326
0.0242823 1.40257e-14 0.000594872
0.0277979 -0.00693397 0.00150187
0.0323674 -0.0137012 0.00229891
0.0336113 -0.0119308 0.00202943
0.0323922 -0.00880022 0.00121173
0.0303352 -0.00598116 0.000208403
0.0285707 -0.00369837 -0.000330205
0.0274074 -0.00207681 -0.00036757
0.0267196 -0.00109883 -0.000229914
0.0263257 -0.000572773 -0.000113533
0.0261008 -0.000302189 -5.01145e-05
0.0259716 -0.000162948 -2.10051e-05
0.0258968 -8.9936e-05 -8.6318e-06
0.025853 -5.07506e-05 -3.54542e-06
0.0258271 -2.92312e-05 -1.47512e-06
0.0258116 -1.71562e-05 -6.27419e-07
0.0258021 -1.0245e-05 -2.73869e-07
0.0257963 -6.2164e-06 -1.22239e-07
0.0257926 -3.82822e-06 -5.50611e-08
0.0257902 -2.39006e-06 -2.43992e-08
0.0257887 -1.51115e-06 -1.01435e-08
0.0257878 -9.66532e-07 -3.5284e-09
0.0257871 -6.24662e-07 -5.63141e-10
0.0257867 -4.07473e-07 6.45385e-10
0.0257864 -2.67969e-07 1.02299e-09
0.0257862 -1.77475e-07 1.02879e-09
0.0257861 -1.18254e-07 8.88823e-10
0.025786 -7.92007e-08 7.10652e-10
0.0257859 -5.32754e-08 5.41581e-10
0.0257859 -3.59662e-08 3.98899e-10
0.0257858 -2.43505e-08 2.85601e-10
0.0257858 -1.6516e-08 1.9837e-10
0.0257858 -1.11983e-08 1.31458e-10
0.0257858 -7.54965e-09 7.82605e-11
0.0257858 -4.99052e-09 3.11956e-11
0.0257858 -3.10972e-09 -1.63143e-11
0.0257858 -1.58928e-09 -7.09883e-11
0.0257858 -1.48297e-10 -1.74594e-10
0.0257858 1.51638e-09 -3.06192e-10
0.0257858 4.13859e-09 -7.27193e-10
0.0257858 8.34581e-09 -3.37503e-09
0.0257858 1.08608e-08 -5.66007e-09
0.01 -1.43228e-08 -4.21834e-08
0.01 -0.000462837 -0.00232413
0.0117012 -0.000255334 -0.0043723
0.0143014 0.00110782 -0.00339436