# vtk DataFile Version 2.0
Tobias Weinzierl: CPU, Manycore and Cluster Computing
ASCII

DATASET STRUCTURED_POINTS
DIMENSIONS  51 11 6

ORIGIN 0 0 0 

SPACING 0.1 0.1 0.1 

POINT_DATA 3366

VECTORS velocity float
0 0 0
-1.11162e-14 0 0
-7.1653e-09 0 0
-9.47632e-09 0 0
-8.02678e-09 0 0
-3.31939e-09 0 0
-4.06597e-09 0 0
-6.17281e-09 0 0
-7.89276e-09 0 0
-8.59141e-09 0 0
-8.51395e-09 0 0
-8.28421e-09 0 0
-8.15225e-09 0 0
-8.13229e-09 0 0
-8.18664e-09 0 0
-8.27399e-09 0 0
-8.36467e-09 0 0
-8.44381e-09 0 0
-8.50683e-09 0 0
-8.55443e-09 0 0
-8.58925e-09 0 0
-8.61427e-09 0 0
-8.63205e-09 0 0
-8.64465e-09 0 0
-8.65356e-09 0 0
-8.65987e-09 0 0
-8.66436e-09 0 0
-8.66756e-09 0 0
-8.66984e-09 0 0
-8.67148e-09 0 0
-8.67266e-09 0 0
-8.67351e-09 0 0
-8.67413e-09 0 0
-8.67457e-09 0 0
-8.67489e-09 0 0
-8.67513e-09 0 0
-8.67529e-09 0 0
-8.67542e-09 0 0
-8.6755e-09 0 0
-8.67557e-09 0 0
-8.67561e-09 0 0
-8.67565e-09 0 0
-8.67567e-09 0 0
-8.67569e-09 0 0
-8.6757e-09 0 0
-8.67571e-09 0 0
-8.67572e-09 0 0
-8.67572e-09 0 0
-8.67573e-09 0 0
-8.67574e-09 0 0
0.00370173 0 0
0 7.79895e-09 0
3.36879e-15 4.57995e-09 0
-1.42338e-08 6.66165e-09 0
-1.80221e-08 3.05569e-09 0
-1.38625e-08 3.10638e-10 0
-4.76418e-09 1.09138e-09 0
-4.77768e-09 3.64112e-09 0
-7.5639e-09 3.04928e-09 0
-9.39748e-09 1.65871e-09 0
-1.07546e-08 5.18044e-10 0
-1.10102e-08 -3.19202e-11 0
-1.12858e-08 -5.20667e-11 0
-1.17758e-08 5.58123e-11 0
-1.23118e-08 1.38636e-10 0
-1.28094e-08 1.80106e-10 0
-1.32301e-08 1.84632e-10 0
-1.35603e-08 1.6511e-10 0
-1.38053e-08 1.35618e-10 0
-1.39805e-08 1.05505e-10 0
-1.41028e-08 7.92444e-11 0
-1.4187e-08 5.81927e-11 0
-1.42447e-08 4.21395e-11 0
-1.42842e-08 3.02697e-11 0
-1.43114e-08 2.1657e-11 0
-1.43301e-08 1.54756e-11 0
-1.43432e-08 1.10637e-11 0
-1.43524e-08 7.921e-12 0
-1.43589e-08 5.68177e-12 0
-1.43635e-08 4.08371e-12 0
-1.43668e-08 2.94063e-12 0
-1.43691e-08 2.121e-12 0
-1.43708e-08 1.53189e-12 0
-1.43721e-08 1.10758e-12 0
-1.43729e-08 8.01429e-13 0
-1.43736e-08 5.8021e-13 0
-1.43741e-08 4.20187e-13 0
-1.43744e-08 3.04338e-13 0
-1.43747e-08 2.20421e-13 0
-1.43748e-08 1.5961e-13 0
-1.4375e-08 1.15532e-13 0
-1.43751e-08 8.35745e-14 0
-1.43751e-08 6.03979e-14 0
-1.43752e-08 4.35804e-14 0
-1.43752e-08 3.13713e-14 0
-1.43752e-08 2.25106e-14 0
-1.43753e-08 1.60985e-14 0
-1.43753e-08 1.15785e-14 0
-1.43753e-08 9.31729e-15 0
-1.43753e-08 1.41226e-14 0
-1.43753e-08 3.79094e-14 0
0.00903294 -9.38126e-09 0
0 1.07516e-09 0
7.3471e-14 6.04632e-09 0
-1.31694e-08 7.98136e-09 0
-1.53142e-08 3.1066e-09 0
-7.71452e-09 6.54332e-10 0
-4.79818e-09 8.21139e-10 0
-6.41775e-09 2.64451e-09 0
-9.01828e-09 7.23042e-10 0
-6.36035e-09 -1.88228e-10 0
-5.34571e-09 1.0807e-09 0
-5.09435e-09 1.77414e-09 0
-5.59736e-09 2.2279e-09 0
-6.552e-09 2.06099e-09 0
-7.43296e-09 1.60857e-09 0
-8.15621e-09 1.1876e-09 0
-8.71312e-09 8.58461e-10 0
-9.11645e-09 6.10052e-10 0
-9.39534e-09 4.27109e-10 0
-9.58252e-09 2.9571e-10 0
-9.70618e-09 2.03363e-10 0
-9.78745e-09 1.39506e-10 0
-9.84101e-09 9.58035e-11 0
-9.87662e-09 6.60397e-11 0
-9.90056e-09 4.57763e-11 0
-9.91687e-09 3.19376e-11 0
-9.92813e-09 2.24337e-11 0
-9.936e-09 1.5861e-11 0
-9.94156e-09 1.12805e-11 0
-9.94551e-09 8.06422e-12 0
-9.94835e-09 5.78985e-12 0
-9.9504e-09 4.17149e-12 0
-9.95188e-09 3.01378e-12 0
-9.95296e-09 2.18195e-12 0
-9.95374e-09 1.58218e-12 0
-9.95431e-09 1.14854e-12 0
-9.95473e-09 8.34361e-13 0
-9.95503e-09 6.06387e-13 0
-9.95526e-09 4.40781e-13 0
-9.95542e-09 3.20388e-13 0
-9.95554e-09 2.32816e-13 0
-9.95563e-09 1.69093e-13 0
-9.95569e-09 1.22713e-13 0
-9.95573e-09 8.89598e-14 0
-9.95577e-09 6.44325e-14 0
-9.95579e-09 4.6751e-14 0
-9.95581e-09 3.44291e-14 0
-9.95582e-09 2.68495e-14 0
-9.95583e-09 2.41556e-14 0
-9.95584e-09 2.59241e-14 0
-9.95586e-09 3.2507e-14 0
0.0108702 -9.00978e-09 0
0 -8.51381e-09 0
1.33696e-13 4.07696e-09 0
-1.24178e-08 3.41788e-09 0
-1.4728e-08 -1.89325e-09 0
-5.89836e-09 4.42809e-10 0
-3.35338e-09 1.67697e-09 0
-5.70605e-09 -1.21801e-14 0
-7.62719e-09 -6.62283e-09 0
-1.30552e-08 -9.88931e-09 0
-1.01287e-08 -3.20684e-09 0
-8.23901e-09 1.78388e-09 0
-7.48137e-09 3.7548e-09 0
-7.33065e-09 3.61231e-09 0
-7.34019e-09 2.71015e-09 0
-7.49593e-09 1.91589e-09 0
-7.69863e-09 1.32794e-09 0
-7.87552e-09 9.0657e-10 0
-8.00627e-09 6.12267e-10 0
-8.0959e-09 4.11374e-10 0
-8.15556e-09 2.76432e-10 0
-8.19516e-09 1.86563e-10 0
-8.22176e-09 1.26826e-10 0
-8.23997e-09 8.69864e-11 0
-8.25267e-09 6.02302e-11 0
-8.26169e-09 4.20924e-11 0
-8.26817e-09 2.96681e-11 0
-8.27288e-09 2.10674e-11 0
-8.27633e-09 1.50543e-11 0
-8.27885e-09 1.08127e-11 0
-8.28071e-09 7.79776e-12 0
-8.28207e-09 5.64117e-12 0
-8.28308e-09 4.09066e-12 0
-8.28381e-09 2.97143e-12 0
-8.28436e-09 2.16104e-12 0
-8.28476e-09 1.57292e-12 0
-8.28505e-09 1.1454e-12 0
-8.28526e-09 8.34264e-13 0
-8.28542e-09 6.07643e-13 0
-8.28554e-09 4.42494e-13 0
-8.28562e-09 3.22103e-13 0
-8.28568e-09 2.3432e-13 0
-8.28573e-09 1.70305e-13 0
-8.28576e-09 1.23629e-13 0
-8.28578e-09 8.96246e-14 0
-8.2858e-09 6.4898e-14 0
-8.28581e-09 4.69798e-14 0
-8.28582e-09 3.42037e-14 0
-8.28582e-09 2.56863e-14 0
-8.28582e-09 2.14462e-14 0
-8.28583e-09 2.10978e-14 0
0.0110963 -5.94219e-09 0
0 -1.61306e-08 0
1.43337e-13 1.3567e-09 0
-1.33181e-08 -6.79642e-10 0
-1.69495e-08 -3.5647e-09 0
-1.00456e-08 -1.056e-09 0
-3.23726e-14 4.72309e-10 0
-4.95384e-13 -5.36293e-13 0
4.59849e-13 -5.42267e-13 0
-8.19957e-09 -5.46886e-09 0
-1.27494e-08 -7.28894e-09 0
-1.05822e-08 -8.90741e-10 0
-1.01811e-08 2.64259e-09 0
-9.65493e-09 3.1401e-09 0
-8.93044e-09 2.5108e-09 0
-8.46975e-09 1.86943e-09 0
-8.23816e-09 1.33026e-09 0
-8.12642e-09 9.12835e-10 0
-8.07155e-09 6.14633e-10 0
-8.0443e-09 4.12057e-10 0
-8.0312e-09 2.77646e-10 0
-8.02568e-09 1.88967e-10 0
-8.0242e-09 1.30155e-10 0
-8.0248e-09 9.07162e-11 0
-8.02632e-09 6.39055e-11 0
-8.02813e-09 4.54256e-11 0
-8.02988e-09 3.25251e-11 0
-8.03144e-09 2.34204e-11 0
-8.03273e-09 1.69368e-11 0
-8.03378e-09 1.22869e-11 0
-8.0346e-09 8.93389e-12 0
-8.03524e-09 6.5062e-12 0
-8.03572e-09 4.7432e-12 0
-8.03609e-09 3.46017e-12 0
-8.03636e-09 2.52508e-12 0
-8.03657e-09 1.8429e-12 0
-8.03672e-09 1.34493e-12 0
-8.03683e-09 9.8132e-13 0
-8.03691e-09 7.15775e-13 0
-8.03697e-09 5.21844e-13 0
-8.03702e-09 3.80217e-13 0
-8.03705e-09 2.76786e-13 0
-8.03707e-09 2.01229e-13 0
-8.03709e-09 1.45991e-13 0
-8.0371e-09 1.05534e-13 0
-8.03711e-09 7.58302e-14 0
-8.03712e-09 5.39987e-14 0
-8.03712e-09 3.80019e-14 0
-8.03712e-09 2.64302e-14 0
-8.03712e-09 1.85012e-14 0
-8.03713e-09 1.31863e-14 0
0.0111159 -2.80039e-09 0
0 -1.4187e-08 0
1.48637e-13 -3.27731e-10 0
-1.36634e-08 -1.87145e-09 0
-1.8175e-08 -3.31241e-09 0
-1.31093e-08 -3.26746e-09 0
-4.29965e-09 -1.49879e-09 0
-4.92259e-13 4.68947e-13 0
-9.09815e-15 9.09815e-15 0
4.34576e-13 -4.85122e-13 0
-5.80315e-09 -2.93992e-09 0
-7.96961e-09 -1.74231e-09 0
-1.10939e-08 3.06574e-09 0
-1.1747e-08 3.08306e-09 0
-1.06079e-08 2.04966e-09 0
-9.53148e-09 1.41891e-09 0
-8.86214e-09 9.83032e-10 0
-8.48512e-09 6.69017e-10 0
-8.27668e-09 4.54733e-10 0
-8.16112e-09 3.12792e-10 0
-8.0967e-09 2.18731e-10 0
-8.06064e-09 1.55355e-10 0
-8.04045e-09 1.11713e-10 0
-8.02915e-09 8.10384e-11 0
-8.02285e-09 5.91233e-11 0
-8.01935e-09 4.32827e-11 0
-8.01742e-09 3.1745e-11 0
-8.01636e-09 2.33021e-11 0
-8.01578e-09 1.71077e-11 0
-8.01547e-09 1.25574e-11 0
-8.01531e-09 9.21341e-12 0
-8.01522e-09 6.75618e-12 0
-8.01518e-09 4.95125e-12 0
-8.01516e-09 3.6262e-12 0
-8.01515e-09 2.65405e-12 0
-8.01514e-09 1.94127e-12 0
-8.01514e-09 1.41901e-12 0
-8.01514e-09 1.03657e-12 0
-8.01514e-09 7.56699e-13 0
-8.01514e-09 5.51986e-13 0
-8.01514e-09 4.02308e-13 0
-8.01514e-09 2.92889e-13 0
-8.01514e-09 2.12882e-13 0
-8.01514e-09 1.54328e-13 0
-8.01514e-09 1.1139e-13 0
-8.01514e-09 7.97667e-14 0
-8.01514e-09 5.6272e-14 0
-8.01514e-09 3.85449e-14 0
-8.01513e-09 2.489e-14 0
-8.01513e-09 1.41523e-14 0
-8.01514e-09 5.25193e-15 0
0.0111171 2.2037e-10 0
0 -1.0042e-08 0
1.45912e-13 -1.60628e-09 0
-1.30115e-08 -3.317e-09 0
-1.80292e-08 -2.67613e-09 0
-1.39855e-08 -1.95406e-09 0
-9.24949e-09 -3.60272e-09 0
-4.71378e-09 -2.61406e-09 0
-4.97439e-13 4.40454e-13 0
-5.8784e-15 5.8784e-15 0
4.2212e-13 -4.47031e-13 0
-3.02838e-09 3.80059e-09 0
-1.19348e-08 6.5879e-09 0
-1.49212e-08 3.61168e-09 0
-1.26422e-08 1.11736e-09 0
-1.037e-08 4.79888e-10 0
-9.17419e-09 3.32247e-10 0
-8.61691e-09 2.62374e-10 0
-8.35094e-09 2.12004e-10 0
-8.21681e-09 1.71709e-10 0
-8.14536e-09 1.38e-10 0
-8.10526e-09 1.0948e-10 0
-8.08162e-09 8.56403e-11 0
-8.06705e-09 6.61275e-11 0
-8.05772e-09 5.0499e-11 0
-8.05154e-09 3.82163e-11 0
-8.04735e-09 2.8711e-11 0
-8.04445e-09 2.14449e-11 0
-8.04241e-09 1.59436e-11 0
-8.04096e-09 1.18096e-11 0
-8.03992e-09 8.72146e-12 0
-8.03917e-09 6.42525e-12 0
-8.03862e-09 4.72418e-12 0
-8.03823e-09 3.46772e-12 0
-8.03793e-09 2.54188e-12 0
-8.03772e-09 1.86099e-12 0
-8.03757e-09 1.36104e-12 0
-8.03745e-09 9.9445e-13 0
-8.03737e-09 7.25938e-13 0
-8.03731e-09 5.29441e-13 0
-8.03726e-09 3.85743e-13 0
-8.03723e-09 2.80693e-13 0
-8.0372e-09 2.03888e-13 0
-8.03719e-09 1.47676e-13 0
-8.03717e-09 1.06418e-13 0
-8.03716e-09 7.59275e-14 0
-8.03716e-09 5.30407e-14 0
-8.03715e-09 3.53005e-14 0
-8.03715e-09 2.08121e-14 0
-8.03714e-09 8.19634e-15 0
-8.03714e-09 -3.35792e-15 0
0.0111159 3.21284e-09 0
0 -7.28553e-09 0
1.16413e-13 -2.61176e-09 0
-1.23219e-08 -4.34153e-09 0
-1.69802e-08 -2.53449e-09 0
-1.38228e-08 -1.47206e-09 0
-1.02504e-08 -2.00849e-09 0
-9.28058e-09 -5.41868e-09 0
-6.43874e-09 -4.07755e-09 0
-5.13769e-13 3.67139e-13 0
4.03523e-13 2.93559e-13 0
5.84363e-14 8.66732e-09 0
-1.02704e-08 1.33774e-08 0
-1.55426e-08 4.54162e-09 0
-1.33489e-08 -8.92942e-10 0
-1.05408e-08 -1.04807e-09 0
-9.18017e-09 -4.15143e-10 0
-8.66899e-09 -9.13453e-11 0
-8.48402e-09 3.43631e-11 0
-8.41063e-09 7.76137e-11 0
-8.37502e-09 8.57164e-11 0
-8.3532e-09 7.88594e-11 0
-8.33751e-09 6.66838e-11 0
-8.32545e-09 5.37789e-11 0
-8.31601e-09 4.21171e-11 0
-8.30867e-09 3.23533e-11 0
-8.30301e-09 2.45252e-11 0
-8.29869e-09 1.84167e-11 0
-8.29541e-09 1.37346e-11 0
-8.29295e-09 1.01904e-11 0
-8.2911e-09 7.53108e-12 0
-8.28973e-09 5.54884e-12 0
-8.28871e-09 4.0785e-12 0
-8.28796e-09 2.99195e-12 0
-8.2874e-09 2.19136e-12 0
-8.28699e-09 1.60284e-12 0
-8.28669e-09 1.17102e-12 0
-8.28646e-09 8.54651e-13 0
-8.2863e-09 6.23157e-13 0
-8.28618e-09 4.53934e-13 0
-8.28609e-09 3.30321e-13 0
-8.28603e-09 2.40058e-13 0
-8.28598e-09 1.74135e-13 0
-8.28594e-09 1.25927e-13 0
-8.28592e-09 9.05411e-14 0
-8.2859e-09 6.43304e-14 0
-8.28589e-09 4.44871e-14 0
-8.28588e-09 2.86837e-14 0
-8.28587e-09 1.48278e-14 0
-8.28587e-09 1.08888e-15 0
-8.28587e-09 -1.31237e-14 0
0.0110963 6.25749e-09 0
0 -6.91149e-09 0
7.60268e-14 -3.07039e-09 0
-1.19292e-08 -4.82078e-09 0
-1.60113e-08 -2.303e-09 0
-1.41091e-08 -9.27871e-10 0
-1.17036e-08 -1.28872e-09 0
-9.98962e-09 -2.87674e-09 0
-1.19355e-08 -7.54072e-09 0
-1.06281e-08 -5.57744e-09 0
-1.2796e-08 7.16712e-19 0
-1.21185e-08 9.77407e-09 0
-7.78388e-09 1.60276e-08 0
-7.71794e-09 5.59338e-09 0
-9.1997e-09 -2.17958e-09 0
-9.69805e-09 -2.1855e-09 0
-9.86048e-09 -8.45775e-10 0
-9.96179e-09 -1.8918e-10 0
-1.00214e-08 2.8486e-11 0
-1.00455e-08 8.3088e-11 0
-1.00471e-08 8.53143e-11 0
-1.00377e-08 7.28634e-11 0
-1.00244e-08 5.811e-11 0
-1.00109e-08 4.48632e-11 0
-9.99887e-09 3.40211e-11 0
-9.98888e-09 2.55157e-11 0
-9.9809e-09 1.89957e-11 0
-9.97467e-09 1.40678e-11 0
-9.9699e-09 1.03781e-11 0
-9.96629e-09 7.63353e-12 0
-9.96358e-09 5.60179e-12 0
-9.96156e-09 4.10319e-12 0
-9.96006e-09 3.0009e-12 0
-9.95894e-09 2.19192e-12 0
-9.95812e-09 1.59925e-12 0
-9.95752e-09 1.16569e-12 0
-9.95707e-09 8.48928e-13 0
-9.95675e-09 6.1773e-13 0
-9.95651e-09 4.49135e-13 0
-9.95633e-09 3.26281e-13 0
-9.95621e-09 2.36804e-13 0
-9.95611e-09 1.7165e-13 0
-9.95604e-09 1.24187e-13 0
-9.95599e-09 8.95515e-14 0
-9.95596e-09 6.41576e-14 0
-9.95593e-09 4.53241e-14 0
-9.95591e-09 3.09583e-14 0
-9.9559e-09 1.91884e-14 0
-9.95589e-09 7.80164e-15 0
-9.95589e-09 -6.50009e-15 0
-9.9559e-09 -2.60118e-14 0
0.0108702 9.10988e-09 0
0 -7.83928e-09 0
4.01012e-14 -2.20397e-09 0
-1.19164e-08 -3.39853e-09 0
-1.61672e-08 -1.64389e-09 0
-1.60465e-08 -7.94284e-10 0
-1.53523e-08 -9.73763e-10 0
-1.42271e-08 -1.50138e-09 0
-1.33462e-08 -1.01785e-09 0
-1.70989e-08 2.29578e-09 0
-1.78961e-08 1.46482e-09 0
-1.92135e-08 -3.9821e-09 0
-1.40794e-08 -3.97077e-09 0
-1.2514e-08 -1.01249e-10 0
-1.41733e-08 1.98841e-09 0
-1.49206e-08 1.88835e-09 0
-1.4924e-08 1.1792e-09 0
-1.47912e-08 6.29206e-10 0
-1.4681e-08 3.2687e-10 0
-1.46027e-08 1.77662e-10 0
-1.45459e-08 1.03819e-10 0
-1.45036e-08 6.49834e-11 0
-1.44714e-08 4.2834e-11 0
-1.44471e-08 2.92229e-11 0
-1.44286e-08 2.03741e-11 0
-1.44148e-08 1.43983e-11 0
-1.44044e-08 1.02627e-11 0
-1.43967e-08 7.35544e-12 0
-1.4391e-08 5.29084e-12 0
-1.43868e-08 3.81478e-12 0
-1.43837e-08 2.75473e-12 0
-1.43815e-08 1.99113e-12 0
-1.43798e-08 1.43995e-12 0
-1.43786e-08 1.04158e-12 0
-1.43777e-08 7.53419e-13 0
-1.4377e-08 5.44889e-13 0
-1.43766e-08 3.93958e-13 0
-1.43762e-08 2.84718e-13 0
-1.4376e-08 2.05661e-13 0
-1.43758e-08 1.4846e-13 0
-1.43757e-08 1.07075e-13 0
-1.43756e-08 7.71306e-14 0
-1.43755e-08 5.54463e-14 0
-1.43754e-08 3.97056e-14 0
-1.43754e-08 2.82048e-14 0
-1.43754e-08 1.96624e-14 0
-1.43754e-08 1.30534e-14 0
-1.43754e-08 7.37356e-15 0
-1.43754e-08 9.36795e-16 0
-1.43754e-08 -1.15416e-14 0
-1.43754e-08 -3.89811e-14 0
0.00903293 9.15137e-09 0
0 0 0
1.45863e-14 0 0
-5.95962e-09 0 0
-8.29208e-09 0 0
-8.85789e-09 0 0
-8.94924e-09 0 0
-8.8043e-09 0 0
-7.84946e-09 0 0
-6.4709e-09 0 0
-5.10016e-09 0 0
-7.09491e-09 0 0
-1.04295e-08 0 0
-1.19118e-08 0 0
-1.14445e-08 0 0
-1.04174e-08 0 0
-9.63513e-09 0 0
-9.19487e-09 0 0
-8.97031e-09 0 0
-8.85489e-09 0 0
-8.79171e-09 0 0
-8.75424e-09 0 0
-8.7304e-09 0 0
-8.71444e-09 0 0
-8.70341e-09 0 0
-8.69563e-09 0 0
-8.69009e-09 0 0
-8.68611e-09 0 0
-8.68324e-09 0 0
-8.68117e-09 0 0
-8.67967e-09 0 0
-8.67858e-09 0 0
-8.6778e-09 0 0
-8.67723e-09 0 0
-8.67681e-09 0 0
-8.67652e-09 0 0
-8.6763e-09 0 0
-8.67614e-09 0 0
-8.67603e-09 0 0
-8.67595e-09 0 0
-8.67589e-09 0 0
-8.67585e-09 0 0
-8.67582e-09 0 0
-8.67579e-09 0 0
-8.67578e-09 0 0
-8.67577e-09 0 0
-8.67576e-09 0 0
-8.67575e-09 0 0
-8.67575e-09 0 0
-8.67575e-09 0 0
-8.67577e-09 0 0
0.00370173 0 0
0 0 7.25645e-09
2.78865e-14 0 2.58534e-09
-1.5326e-08 0 2.81465e-09
-2.03997e-08 0 -2.1942e-09
-1.69645e-08 0 -6.46757e-09
-9.06435e-10 0 -5.0522e-09
-2.43633e-10 0 -7.87694e-10
-3.26005e-09 0 7.77515e-10
-6.27187e-09 0 7.59896e-10
-8.15242e-09 0 1.03143e-10
-9.24232e-09 0 -2.75283e-10
-1.02207e-08 0 -3.09635e-10
-1.11537e-08 0 -2.0773e-10
-1.19498e-08 0 -1.04247e-10
-1.25951e-08 0 -3.84089e-11
-1.31011e-08 0 -6.60326e-12
-1.34828e-08 0 4.71063e-12
-1.37605e-08 0 6.54517e-12
-1.39571e-08 0 5.11718e-12
-1.40938e-08 0 3.1777e-12
-1.41877e-08 0 1.64556e-12
-1.42519e-08 0 6.61228e-13
-1.42958e-08 0 1.12127e-13
-1.4326e-08 0 -1.5198e-13
-1.43468e-08 0 -2.50755e-13
-1.43612e-08 0 -2.63442e-13
-1.43713e-08 0 -2.37092e-13
-1.43785e-08 0 -1.97302e-13
-1.43835e-08 0 -1.56733e-13
-1.43871e-08 0 -1.20827e-13
-1.43897e-08 0 -9.1268e-14
-1.43916e-08 0 -6.79608e-14
-1.43929e-08 0 -5.00888e-14
-1.43939e-08 0 -3.66408e-14
-1.43946e-08 0 -2.66545e-14
-1.43951e-08 0 -1.93092e-14
-1.43955e-08 0 -1.39439e-14
-1.43958e-08 0 -1.00439e-14
-1.4396e-08 0 -7.21878e-15
-1.43961e-08 0 -5.17649e-15
-1.43962e-08 0 -3.69974e-15
-1.43963e-08 0 -2.62835e-15
-1.43963e-08 0 -1.84349e-15
-1.43964e-08 0 -1.25627e-15
-1.43964e-08 0 -8.10064e-16
-1.43964e-08 0 -5.05452e-16
-1.43964e-08 0 -3.6153e-16
-1.43964e-08 0 2.40165e-16
-1.43965e-08 0 6.26449e-15
-1.43965e-08 0 3.02902e-14
0.00903173 0 -7.97035e-09
0.0036 6.70158e-09 4.74463e-09
0.00359998 -0.00302178 -0.00128404
0.010148 -0.00717916 -0.00294319
0.0197788 -0.00909602 -0.00326962
0.0311005 -0.0107182 -0.0029315
0.0463145 -0.00645 -0.00153712
0.0475631 -8.72312e-06 -0.000120512
0.0468896 0.00275776 0.000252885
0.0415245 0.00432259 0.00012606
0.0361827 0.00415773 -0.000141686
0.0316066 0.00341718 -0.000209964
0.0281185 0.00252718 -0.000164298
0.0257413 0.00172347 -0.000100006
0.0242346 0.00111039 -5.20986e-05
0.0233188 0.000687927 -2.41234e-05
0.0227793 0.000412961 -1.01136e-05
0.022471 0.000240857 -3.86979e-06
0.0223001 0.000136589 -1.36137e-06
0.0222087 7.52271e-05 -4.60851e-07
0.0221619 4.00804e-05 -1.82256e-07
0.0221394 2.04809e-05 -1.14062e-07
0.0221296 9.86057e-06 -1.02419e-07
0.0221263 4.29814e-06 -9.80891e-08
0.0221259 1.51284e-06 -8.97657e-08
0.0221268 2.09363e-07 -7.76545e-08
0.0221281 -3.31035e-07 -6.41667e-08
0.0221294 -4.97419e-07 -5.12326e-08
0.0221304 -4.94344e-07 -3.98886e-08
0.0221313 -4.25352e-07 -3.049e-08
0.022132 -3.40029e-07 -2.29935e-08
0.0221325 -2.60001e-07 -1.71691e-08
0.0221329 -1.92992e-07 -1.27267e-08
0.0221331 -1.40238e-07 -9.383e-09
0.0221333 -1.00274e-07 -6.89024e-09
0.0221335 -7.07847e-08 -5.04484e-09
0.0221336 -4.94348e-08 -3.68573e-09
0.0221336 -3.42025e-08 -2.68865e-09
0.0221337 -2.34626e-08 -1.95946e-09
0.0221337 -1.59664e-08 -1.42784e-09
0.0221337 -1.07822e-08 -1.04188e-09
0.0221338 -7.22956e-09 -7.64012e-10
0.0221338 -4.81963e-09 -5.67845e-10
0.0221338 -3.20645e-09 -4.36136e-10
0.0221338 -2.15019e-09 -3.59527e-10
0.0221338 -1.49308e-09 -3.36063e-10
0.0221338 -1.14738e-09 -3.6481e-10
0.0221338 -1.06685e-09 -3.88786e-10
0.0221338 -1.3687e-09 -3.41409e-10
0.0221338 -4.33147e-09 -2.13397e-09
0.0221338 -1.60756e-08 -1.1856e-08
0.0221338 -2.51375e-08 -1.97411e-08
0.01 7.34532e-09 -3.18897e-09
0.01 -0.00544383 -0.00221201
0.0159975 -0.0137144 -0.00480319
0.0251211 -0.018401 -0.00477704
0.0361486 -0.0243699 -0.0034362
0.0544016 -0.0151722 -0.00085566
0.0537661 -0.000147717 0.000917095
0.0543839 0.00619103 0.00100801
0.047483 0.0108106 0.000536271
0.0406422 0.0100469 -0.000121514
0.0354449 0.00818074 -0.000334564
0.0317439 0.00594684 -0.000265883
0.0294556 0.00393204 -0.000158517
0.0281532 0.00244754 -8.03168e-05
0.0274362 0.0014669 -3.54693e-05
0.0270535 0.000852693 -1.35551e-05
0.0268575 0.000481094 -4.13888e-06
0.0267626 0.000262911 -6.13318e-07
0.0267205 0.000138407 4.41361e-07
0.0267048 6.93768e-05 5.87873e-07
0.0267016 3.22924e-05 4.68087e-07
0.0267037 1.31188e-05 3.13902e-07
0.0267075 3.71469e-06 1.91961e-07
0.0267116 -5.24857e-07 1.1017e-07
0.0267151 -2.14113e-06 5.99011e-08
0.026718 -2.49989e-06 3.07519e-08
0.0267203 -2.31226e-06 1.46223e-08
0.026722 -1.93305e-06 6.0951e-09
0.0267233 -1.52817e-06 1.82572e-09
0.0267242 -1.16661e-06 -1.48125e-10
0.0267249 -8.69853e-07 -9.34714e-10
0.0267254 -6.37829e-07 -1.13977e-09
0.0267258 -4.61952e-07 -1.08344e-09
0.026726 -3.3143e-07 -9.28333e-10
0.0267262 -2.36026e-07 -7.52468e-10
0.0267263 -1.67077e-07 -5.89914e-10
0.0267264 -1.17679e-07 -4.52804e-10
0.0267265 -8.25329e-08 -3.43021e-10
0.0267265 -5.76719e-08 -2.58236e-10
0.0267265 -4.01756e-08 -1.94976e-10
0.0267266 -2.79236e-08 -1.50177e-10
0.0267266 -1.93933e-08 -1.2205e-10
0.0267266 -1.35053e-08 -1.10611e-10
0.0267266 -9.51134e-09 -1.1782e-10
0.0267266 -6.92327e-09 -1.46651e-10
0.0267266 -5.52344e-09 -1.96598e-10
0.0267266 -5.60357e-09 -2.24177e-10
0.0267266 -8.16412e-09 -1.86334e-10
0.0267266 -1.34954e-08 -2.43265e-09
0.0267266 -2.11617e-08 -1.40328e-08
0.0267266 -2.55663e-08 -2.33509e-08
0.0148 -1.24053e-08 -2.87929e-09
0.0148 -0.00691544 -0.00290832
0.0191369 -0.0175778 -0.00643675
0.0248362 -0.0245007 -0.00623329
0.0281467 -0.036439 -0.00391306
0.0273115 -0.0226009 -0.000733987
0.0262338 -1.57517e-07 0.000904261
0.0269157 0.00895841 0.000939876
0.0322151 0.0180775 0.000717839
0.0311331 0.0163343 0.00017414
0.0291113 0.0124712 -0.000134642
0.0277381 0.00862889 -0.000180556
0.0270897 0.00538078 -0.00012484
0.0269015 0.0031642 -6.41096e-05
0.0269041 0.00180315 -2.4467e-05
0.0269727 0.000997725 -5.35618e-06
0.0270523 0.000533791 1.69087e-06
0.0271214 0.000273996 3.26565e-06
0.0271744 0.000132844 2.8832e-06
0.0272126 5.87256e-05 2.06223e-06
0.0272392 2.14448e-05 1.33152e-06
0.0272573 3.82767e-06 8.0842e-07
0.0272696 -3.64322e-06 4.70573e-07
0.0272778 -6.11047e-06 2.65202e-07
0.0272834 -6.27708e-06 1.45323e-07
0.0272871 -5.51555e-06 7.74289e-08
0.0272897 -4.48941e-06 3.99326e-08
0.0272914 -3.4946e-06 1.97125e-08
0.0272927 -2.6432e-06 9.08863e-09
0.0272935 -1.9603e-06 3.68527e-09
0.0272941 -1.43352e-06 1.06179e-09
0.0272945 -1.03742e-06 -1.18333e-10
0.0272947 -7.44824e-07 -5.738e-10
0.0272949 -5.31426e-07 -6.83351e-10
0.0272951 -3.7727e-07 -6.41572e-10
0.0272952 -2.66725e-07 -5.44962e-10
0.0272952 -1.87911e-07 -4.38818e-10
0.0272953 -1.31986e-07 -3.42445e-10
0.0272953 -9.24651e-08 -2.6252e-10
0.0272953 -6.46401e-08 -2.00093e-10
0.0272953 -4.51263e-08 -1.54227e-10
0.0272954 -3.15096e-08 -1.23921e-10
0.0272954 -2.20887e-08 -1.09173e-10
0.0272954 -1.56959e-08 -1.1197e-10
0.0272954 -1.15907e-08 -1.38562e-10
0.0272954 -9.37483e-09 -1.99551e-10
0.0272954 -8.77789e-09 -2.75136e-10
0.0272954 -9.54622e-09 -3.61044e-10
0.0272954 -1.18181e-08 -2.73507e-09
0.0272954 -1.55573e-08 -1.39197e-08
0.0272954 -1.77229e-08 -2.27812e-08
0.018 -3.00241e-08 -9.14957e-09
0.018 -0.0069283 -0.00367384
0.0195486 -0.0169694 -0.00823283
0.0201001 -0.0201975 -0.00747828
0.0162906 -0.0214839 -0.00457426
-9.98798e-09 -0.0113277 -0.00165498
1.72761e-06 6.77735e-07 4.73013e-09
-7.35726e-07 7.89112e-07 0.000150975
0.00890972 0.00646714 0.000310928
0.0179902 0.0131654 0.000254674
0.0206516 0.0116538 8.43545e-05
0.022025 0.00804553 -5.95398e-05
0.0235475 0.00482108 -8.23414e-05
0.0248283 0.00266109 -4.48309e-05
0.0257454 0.00140735 -1.17572e-05
0.0263567 0.00070775 3.61388e-06
0.0267462 0.000332369 7.59863e-06
0.0269868 0.000139834 6.85003e-06
0.0271322 4.61708e-05 4.91297e-06
0.0272188 3.8563e-06 3.14921e-06
0.02727 -1.28836e-05 1.88609e-06
0.0273002 -1.7542e-05 1.07776e-06
0.027318 -1.69501e-05 5.93407e-07
0.0273286 -1.44336e-05 3.15692e-07
0.0273348 -1.15225e-05 1.61686e-07
0.0273386 -8.85353e-06 7.87436e-08
0.0273409 -6.637e-06 3.54044e-08
0.0273423 -4.89221e-06 1.35813e-08
0.0273432 -3.56305e-06 3.1614e-09
0.0273438 -2.57213e-06 -1.38443e-09
0.0273441 -1.84437e-06 -3.0168e-09
0.0273443 -1.3156e-06 -3.28557e-09
0.0273445 -9.34494e-07 -2.97945e-09
0.0273446 -6.61489e-07 -2.48405e-09
0.0273447 -4.66866e-07 -1.97606e-09
0.0273447 -3.2866e-07 -1.52706e-09
0.0273447 -2.30837e-07 -1.15801e-09
0.0273448 -1.61794e-07 -8.67276e-10
0.0273448 -1.13191e-07 -6.44645e-10
0.0273448 -7.90656e-08 -4.78069e-10
0.0273448 -5.51764e-08 -3.56788e-10
0.0273448 -3.85214e-08 -2.72841e-10
0.0273448 -2.69904e-08 -2.22135e-10
0.0273448 -1.91112e-08 -2.06037e-10
0.0273448 -1.38528e-08 -2.35095e-10
0.0273448 -1.04785e-08 -3.29035e-10
0.0273448 -8.47838e-09 -4.56237e-10
0.0273448 -7.50359e-09 -5.55748e-10
0.0273448 -7.49446e-09 -2.85783e-09
0.0273448 -8.29182e-09 -1.36792e-08
0.0273448 -8.83022e-09 -2.22369e-08
0.0196 -3.47574e-08 -2.55646e-08
0.0196 -0.00491076 -0.00424945
0.0191894 -0.0109424 -0.00927688
0.017411 -0.0120718 -0.00793161
0.0132055 -0.00991302 -0.00463981
0.00336774 -0.0038729 -0.00213143
1.33601e-06 -1.2387e-06 -0.000395777
5.02969e-07 -5.02969e-07 -9.12722e-10
-7.09666e-07 7.61787e-07 2.65156e-05
0.00645865 0.00453829 7.37874e-05
0.0131475 0.00843164 5.56887e-05
0.0164491 0.00576512 -5.10967e-05
0.020181 0.00261392 -0.000106385
0.0230463 0.00098759 -6.50403e-05
0.0248766 0.000282426 -1.98263e-05
0.02596 -2.58461e-06 2.14176e-06
0.0265789 -9.82559e-05 7.97477e-06
0.0269258 -0.000114082 7.26307e-06
0.0271178 -0.000100819 5.04105e-06
0.0272234 -8.02274e-05 3.0877e-06
0.027281 -6.06267e-05 1.75529e-06
0.0273122 -4.45359e-05 9.45068e-07
0.0273291 -3.21846e-05 4.84261e-07
0.0273382 -2.30326e-05 2.34155e-07
0.027343 -1.63851e-05 1.03733e-07
0.0273455 -1.16126e-05 3.85921e-08
0.0273468 -8.21017e-06 7.90108e-09
0.0273475 -5.7949e-06 -5.20589e-09
0.0273478 -4.085e-06 -9.70222e-09
0.0273479 -2.87663e-06 -1.0238e-08
0.027348 -2.02378e-06 -9.14999e-09
0.027348 -1.42246e-06 -7.56289e-09
0.027348 -9.98844e-07 -5.98152e-09
0.027348 -7.00677e-07 -4.60305e-09
0.027348 -4.90987e-07 -3.47904e-09
0.027348 -3.43653e-07 -2.59745e-09
0.027348 -2.40237e-07 -1.92289e-09
0.027348 -1.67727e-07 -1.41547e-09
0.0273479 -1.16952e-07 -1.03873e-09
0.0273479 -8.14513e-08 -7.62599e-10
0.0273479 -5.66774e-08 -5.64018e-10
0.0273479 -3.94332e-08 -4.26947e-10
0.0273479 -2.74701e-08 -3.4249e-10
0.0273479 -1.92015e-08 -3.09438e-10
0.0273479 -1.34976e-08 -3.34822e-10
0.0273479 -9.53205e-09 -4.29976e-10
0.0273479 -6.66859e-09 -5.55518e-10
0.0273479 -4.40122e-09 -6.4038e-10
0.0273479 -2.46379e-09 -2.90155e-09
0.0273479 -7.3644e-10 -1.35903e-08
0.0273479 9.42025e-11 -2.20436e-08
0.0196 -1.93889e-08 -3.9578e-08
0.0196 -0.00250121 -0.00441026
0.0193811 -0.00508036 -0.00925427
0.0188694 -0.00444872 -0.00772983
0.0161153 -0.00110354 -0.00438595
0.0121328 0.00463494 -0.00227272
0.00734829 0.00386894 -0.000968222
1.33884e-06 -1.13855e-06 -0.000195683
4.28886e-07 -4.28886e-07 -1.69957e-09
-6.79896e-07 7.39435e-07 7.0657e-06
0.00453628 0.00165516 0.000147589
0.0105632 0.00103802 7.51265e-05
0.0175385 -0.00173124 -0.000170254
0.0223159 -0.00200497 -0.000160314
0.0248582 -0.00149457 -7.29992e-05
0.0261156 -0.00099255 -2.01218e-05
0.0267375 -0.000634869 -1.31405e-06
0.0270478 -0.000401103 2.80545e-06
0.0272029 -0.000253022 2.5991e-06
0.0272798 -0.000160306 1.66156e-06
0.0273174 -0.00010237 9.08754e-07
0.0273352 -6.60255e-05 4.44225e-07
0.0273432 -4.30474e-05 1.9035e-07
0.0273465 -2.83717e-05 6.29395e-08
0.0273475 -1.88916e-05 4.45243e-09
0.0273475 -1.26959e-05 -1.88969e-08
0.0273472 -8.60094e-06 -2.54531e-08
0.0273467 -5.86626e-06 -2.46586e-08
0.0273463 -4.02317e-06 -2.1143e-08
0.0273459 -2.77119e-06 -1.70439e-08
0.0273457 -1.91517e-06 -1.32562e-08
0.0273454 -1.3268e-06 -1.00812e-08
0.0273453 -9.20709e-07 -7.55389e-09
0.0273451 -6.3956e-07 -5.60341e-09
0.027345 -4.44472e-07 -4.1275e-09
0.027345 -3.08895e-07 -3.02543e-09
0.0273449 -2.14593e-07 -2.21013e-09
0.0273449 -1.48978e-07 -1.61128e-09
0.0273449 -1.03331e-07 -1.17429e-09
0.0273449 -7.15916e-08 -8.58155e-10
0.0273448 -4.95429e-08 -6.33195e-10
0.0273448 -3.42401e-08 -4.79319e-10
0.0273448 -2.36195e-08 -3.84905e-10
0.0273448 -1.62224e-08 -3.46494e-10
0.0273448 -1.09958e-08 -3.69719e-10
0.0273448 -7.14308e-09 -4.65485e-10
0.0273448 -3.99418e-09 -5.9196e-10
0.0273448 -9.0022e-10 -6.67214e-10
0.0273448 2.68915e-09 -2.91013e-09
0.0273448 6.83439e-09 -1.36242e-08
0.0273448 9.00595e-09 -2.21115e-08
0.018 -1.19593e-08 -4.09519e-08
0.018 -0.000561992 -0.00426557
0.0190204 -0.000627973 -0.00869406
0.0203853 0.000594711 -0.0070278
0.0203594 0.00287137 -0.00394397
0.0201047 0.00799432 -0.00206952
0.0204209 0.0133667 -0.00105379
0.012671 0.00758307 -0.000480661
1.37121e-06 -9.05891e-07 -0.000151687
-5.58319e-07 -1.01031e-06 1.02033e-08
1.2013e-07 -0.00217076 0.000553741
0.0102245 -0.00724403 0.000574154
0.0189955 -0.00906856 -0.000115779
0.0240102 -0.0062693 -0.000225292
0.026139 -0.00348574 -0.000124793
0.0269264 -0.00187078 -4.72775e-05
0.0272076 -0.00102793 -1.48892e-05
0.0273038 -0.000579501 -4.15234e-06
0.0273316 -0.000333346 -1.02058e-06
0.0273345 -0.000195196 -2.2075e-07
0.0273293 -0.000116314 -6.11204e-08
0.0273224 -7.05378e-05 -4.75107e-08
0.0273159 -4.35316e-05 -5.26677e-08
0.0273106 -2.73251e-05 -5.22228e-08
0.0273065 -1.74297e-05 -4.61733e-08
0.0273035 -1.12827e-05 -3.78757e-08
0.0273012 -7.40003e-06 -2.96447e-08
0.0272996 -4.90894e-06 -2.25299e-08
0.0272984 -3.28772e-06 -1.68087e-08
0.0272975 -2.21924e-06 -1.23949e-08
0.0272969 -1.50737e-06 -9.07333e-09
0.0272965 -1.02877e-06 -6.61149e-09
0.0272961 -7.04621e-07 -4.80394e-09
0.0272959 -4.83793e-07 -3.48453e-09
0.0272958 -3.32682e-07 -2.52496e-09
0.0272957 -2.2894e-07 -1.82875e-09
0.0272956 -1.57561e-07 -1.32455e-09
0.0272955 -1.08382e-07 -9.60176e-10
0.0272955 -7.4478e-08 -6.97891e-10
0.0272954 -5.1103e-08 -5.1085e-10
0.0272954 -3.49891e-08 -3.80649e-10
0.0272954 -2.38751e-08 -2.95787e-10
0.0272954 -1.61837e-08 -2.5099e-10
0.0272954 -1.07975e-08 -2.47374e-10
0.0272954 -6.89785e-09 -2.93943e-10
0.0272954 -3.8385e-09 -4.05381e-10
0.0272954 -1.0158e-09 -5.44183e-10
0.0272954 2.33599e-09 -6.2126e-10
0.0272954 7.2768e-09 -2.85999e-09
0.0272954 1.40763e-08 -1.37777e-08
0.0272954 1.78572e-08 -2.24689e-08
0.0148 -9.099e-09 -3.68112e-08
0.0148 0.000471375 -0.00395029
0.0175623 0.00152471 -0.00772397
0.0209487 0.0027128 -0.00592586
0.0233532 0.00458829 -0.00330421
0.025155 0.00744882 -0.00190098
0.0281811 0.0127116 -0.00116867
0.0315055 0.0209616 -0.00062288
0.0259644 0.0127701 -9.51541e-06
0.0276651 1.51804e-14 0.000638965
0.0324993 -0.00873454 0.00141252
0.0350804 -0.0181168 0.00122593
0.0326729 -0.0154584 0.000142827
0.0300733 -0.00905964 -0.000242164
0.0285513 -0.00435809 -0.000187602
0.027755 -0.00203837 -8.48368e-05
0.0273278 -0.00100384 -3.1631e-05
0.027088 -0.000522297 -1.08715e-05
0.0269488 -0.000282882 -3.5523e-06
0.0268658 -0.000157788 -1.08595e-06
0.0268154 -9.01336e-05 -2.81801e-07
0.0267841 -5.25842e-05 -3.21246e-08
0.0267644 -3.12867e-05 3.66337e-08
0.0267517 -1.89661e-05 4.8383e-08
0.0267435 -1.17025e-05 4.36301e-08
0.0267381 -7.34082e-06 3.53163e-08
0.0267344 -4.6744e-06 2.73521e-08
0.026732 -3.01632e-06 2.07252e-08
0.0267303 -1.96874e-06 1.55063e-08
0.0267292 -1.29727e-06 1.15057e-08
0.0267284 -8.61376e-07 8.48664e-09
0.0267279 -5.75319e-07 6.23172e-09
0.0267275 -3.85899e-07 4.55997e-09
0.0267272 -2.59568e-07 3.32748e-09
0.026727 -1.74848e-07 2.42271e-09
0.0267269 -1.17811e-07 1.76068e-09
0.0267268 -7.93114e-08 1.27735e-09
0.0267268 -5.32907e-08 9.24837e-10
0.0267267 -3.56988e-08 6.67406e-10
0.0267267 -2.38104e-08 4.78246e-10
0.0267267 -1.57794e-08 3.36798e-10
0.0267267 -1.03458e-08 2.26469e-10
0.0267266 -6.63852e-09 1.32527e-10
0.0267266 -4.03809e-09 3.99489e-11
0.0267266 -2.07606e-09 -6.94035e-11
0.0267266 -3.51084e-10 -2.1667e-10
0.0267266 1.56862e-09 -3.75823e-10
0.0267266 4.43438e-09 -4.71304e-10
0.0267266 1.0065e-08 -2.68473e-09
0.0267266 1.97598e-08 -1.38409e-08
0.0267266 2.56217e-08 -2.28058e-08
0.01 -1.55915e-08 -3.5416e-08
0.01 0.000418226 -0.00331589
0.0137698 0.00128068 -0.00604655
0.018076 0.00202612 -0.00422123
0.0217982 0.00319339 -0.00229871
0.025887 0.00568895 -0.00146349
0.0311175 0.00835503 -0.00129997
0.039746 0.0103647 -0.000943338
0.052646 0.00387423 1.73795e-05