# vtk DataFile Version 2.0
Tobias Weinzierl: CPU, Manycore and Cluster Computing
ASCII

DATASET STRUCTURED_POINTS
DIMENSIONS  51 11 6

ORIGIN 0 0 0 

SPACING 0.1 0.1 0.1 

POINT_DATA 3366

VECTORS velocity float
0 0 0
9.63788e-15 0 0
-1.62001e-08 0 0
-2.40887e-08 0 0
-2.50511e-08 0 0
-2.2394e-08 0 0
-2.68131e-08 0 0
-2.63879e-08 0 0
-2.42189e-08 0 0
-2.24537e-08 0 0
-2.18403e-08 0 0
-2.1928e-08 0 0
-2.23066e-08 0 0
-2.27698e-08 0 0
-2.32212e-08 0 0
-2.36163e-08 0 0
-2.39406e-08 0 0
-2.41962e-08 0 0
-2.43924e-08 0 0
-2.45406e-08 0 0
-2.46514e-08 0 0
-2.47338e-08 0 0
-2.47949e-08 0 0
-2.484e-08 0 0
-2.48734e-08 0 0
-2.48981e-08 0 0
-2.49164e-08 0 0
-2.49299e-08 0 0
-2.49399e-08 0 0
-2.49473e-08 0 0
-2.49528e-08 0 0
-2.49569e-08 0 0
-2.49599e-08 0 0
-2.49621e-08 0 0
-2.49638e-08 0 0
-2.4965e-08 0 0
-2.49659e-08 0 0
-2.49666e-08 0 0
-2.49671e-08 0 0
-2.49674e-08 0 0
-2.49677e-08 0 0
-2.49679e-08 0 0
-2.4968e-08 0 0
-2.49682e-08 0 0
-2.49682e-08 0 0
-2.49683e-08 0 0
-2.49683e-08 0 0
-2.49684e-08 0 0
-2.49684e-08 0 0
-2.49685e-08 0 0
0.00607948 0 0
0 7.82965e-09 0
1.2482e-14 1.14019e-08 0
-2.67837e-08 1.84301e-08 0
-3.36841e-08 8.30632e-09 0
-3.10416e-08 -9.83142e-10 0
-1.75486e-08 2.04715e-09 0
-3.06109e-08 3.72648e-09 0
-2.82158e-08 -2.81659e-09 0
-2.44925e-08 -3.96043e-09 0
-2.20343e-08 -2.27851e-09 0
-2.32804e-08 -4.18486e-10 0
-2.52571e-08 5.41233e-10 0
-2.70277e-08 8.85866e-10 0
-2.84944e-08 9.38443e-10 0
-2.96672e-08 8.59076e-10 0
-3.0574e-08 7.26182e-10 0
-3.12571e-08 5.83745e-10 0
-3.1763e-08 4.54153e-10 0
-3.21342e-08 3.45961e-10 0
-3.24055e-08 2.6007e-10 0
-3.26036e-08 1.93939e-10 0
-3.27484e-08 1.43957e-10 0
-3.28544e-08 1.06598e-10 0
-3.29322e-08 7.88468e-11 0
-3.29895e-08 5.83011e-11 0
-3.30317e-08 4.31126e-11 0
-3.30628e-08 3.18893e-11 0
-3.30858e-08 2.35952e-11 0
-3.31029e-08 1.74636e-11 0
-3.31155e-08 1.29286e-11 0
-3.31249e-08 9.57302e-12 0
-3.31318e-08 7.08924e-12 0
-3.31369e-08 5.25023e-12 0
-3.31408e-08 3.88831e-12 0
-3.31436e-08 2.87956e-12 0
-3.31457e-08 2.13233e-12 0
-3.31472e-08 1.57877e-12 0
-3.31484e-08 1.16867e-12 0
-3.31492e-08 8.64811e-13 0
-3.31499e-08 6.39623e-13 0
-3.31503e-08 4.72674e-13 0
-3.31507e-08 3.4882e-13 0
-3.31509e-08 2.5684e-13 0
-3.31511e-08 1.88447e-13 0
-3.31513e-08 1.37592e-13 0
-3.31514e-08 1.00129e-13 0
-3.31515e-08 7.42e-14 0
-3.31515e-08 6.20241e-14 0
-3.31516e-08 7.43852e-14 0
-3.31517e-08 1.45441e-13 0
0.0125199 -2.70736e-08 0
0 -8.36042e-10 0
6.36444e-14 1.38545e-08 0
-2.55959e-08 2.24121e-08 0
-2.04957e-08 8.50913e-09 0
-1.83235e-08 -1.15406e-08 0
-2.49441e-08 1.49204e-09 0
-2.27838e-08 1.03783e-08 0
-2.44971e-08 -6.38743e-09 0
4.02615e-09 -5.91309e-09 0
1.90853e-09 -6.26386e-10 0
-2.53555e-09 3.63681e-09 0
-6.80609e-09 3.98629e-09 0
-9.58711e-09 3.3638e-09 0
-1.14809e-08 2.70237e-09 0
-1.28016e-08 2.10952e-09 0
-1.37146e-08 1.60399e-09 0
-1.43415e-08 1.19577e-09 0
-1.47729e-08 8.80589e-10 0
-1.50724e-08 6.44417e-10 0
-1.52828e-08 4.7053e-10 0
-1.54325e-08 3.43639e-10 0
-1.554e-08 2.51356e-10 0
-1.5618e-08 1.84247e-10 0
-1.5675e-08 1.35359e-10 0
-1.57168e-08 9.96536e-11 0
-1.57477e-08 7.35014e-11 0
-1.57705e-08 5.42951e-11 0
-1.57874e-08 4.01561e-11 0
-1.57999e-08 2.97267e-11 0
-1.58092e-08 2.20212e-11 0
-1.58161e-08 1.6321e-11 0
-1.58213e-08 1.21003e-11 0
-1.58251e-08 8.97283e-12 0
-1.5828e-08 6.65433e-12 0
-1.58301e-08 4.93497e-12 0
-1.58316e-08 3.65963e-12 0
-1.58328e-08 2.71352e-12 0
-1.58337e-08 2.01157e-12 0
-1.58343e-08 1.49071e-12 0
-1.58348e-08 1.10416e-12 0
-1.58351e-08 8.17206e-13 0
-1.58354e-08 6.04106e-13 0
-1.58356e-08 4.45787e-13 0
-1.58357e-08 3.2819e-13 0
-1.58359e-08 2.41073e-13 0
-1.58359e-08 1.77075e-13 0
-1.5836e-08 1.30735e-13 0
-1.5836e-08 9.88467e-14 0
-1.58361e-08 8.45015e-14 0
-1.58361e-08 9.15518e-14 0
0.0128864 -1.89325e-08 0
0 -1.00275e-08 0
1.98547e-13 1.24583e-08 0
-3.28009e-08 2.16307e-08 0
-1.63331e-08 1.36307e-08 0
-1.44452e-08 1.16882e-08 0
-2.97894e-08 7.23005e-09 0
-1.8986e-08 6.44447e-14 0
-2.26692e-08 -3.12345e-08 0
-2.71457e-08 -3.01777e-08 0
-1.00723e-08 5.46218e-09 0
-8.26856e-09 9.06341e-09 0
-9.58328e-09 7.96857e-09 0
-1.12155e-08 5.73829e-09 0
-1.24949e-08 4.23045e-09 0
-1.33886e-08 3.12294e-09 0
-1.39775e-08 2.27588e-09 0
-1.43638e-08 1.64409e-09 0
-1.46233e-08 1.18469e-09 0
-1.48032e-08 8.55051e-10 0
-1.49315e-08 6.19392e-10 0
-1.50249e-08 4.50616e-10 0
-1.50939e-08 3.29204e-10 0
-1.51453e-08 2.41398e-10 0
-1.51837e-08 1.77562e-10 0
-1.52125e-08 1.30935e-10 0
-1.5234e-08 9.67396e-11 0
-1.52501e-08 7.1581e-11 0
-1.52622e-08 5.30232e-11 0
-1.52712e-08 3.93075e-11 0
-1.5278e-08 2.91554e-11 0
-1.5283e-08 2.16329e-11 0
-1.52868e-08 1.60546e-11 0
-1.52895e-08 1.19159e-11 0
-1.52916e-08 8.8442e-12 0
-1.52932e-08 6.56393e-12 0
-1.52943e-08 4.87098e-12 0
-1.52952e-08 3.61402e-12 0
-1.52958e-08 2.68072e-12 0
-1.52963e-08 1.98771e-12 0
-1.52966e-08 1.47304e-12 0
-1.52969e-08 1.0907e-12 0
-1.52971e-08 8.06492e-13 0
-1.52972e-08 5.95008e-13 0
-1.52973e-08 4.37364e-13 0
-1.52974e-08 3.19557e-13 0
-1.52975e-08 2.31392e-13 0
-1.52975e-08 1.66248e-13 0
-1.52975e-08 1.20348e-13 0
-1.52976e-08 9.05605e-14 0
-1.52976e-08 7.19363e-14 0
0.012892 -1.20472e-08 0
0 -1.64509e-08 0
3.24337e-13 6.91503e-09 0
-4.14727e-08 1.07822e-08 0
-1.93693e-08 8.88923e-09 0
-8.81632e-09 1.12843e-08 0
-3.82199e-14 6.26216e-09 0
-1.14952e-12 -1.07606e-12 0
9.41902e-13 -1.16825e-12 0
-3.14455e-08 -1.93008e-08 0
-3.09173e-08 -1.93266e-08 0
-1.58634e-08 3.64337e-09 0
-1.43703e-08 7.27488e-09 0
-1.43461e-08 6.4437e-09 0
-1.46645e-08 4.93943e-09 0
-1.48609e-08 3.60758e-09 0
-1.49581e-08 2.57727e-09 0
-1.50151e-08 1.83559e-09 0
-1.50592e-08 1.31451e-09 0
-1.50983e-08 9.48703e-10 0
-1.51336e-08 6.89778e-10 0
-1.51647e-08 5.046e-10 0
-1.51911e-08 3.70883e-10 0
-1.5213e-08 2.73554e-10 0
-1.52306e-08 2.02273e-10 0
-1.52445e-08 1.49827e-10 0
-1.52553e-08 1.11112e-10 0
-1.52636e-08 8.24656e-11 0
-1.527e-08 6.1235e-11 0
-1.52749e-08 4.54831e-11 0
-1.52785e-08 3.37878e-11 0
-1.52812e-08 2.51006e-11 0
-1.52833e-08 1.8646e-11 0
-1.52848e-08 1.38499e-11 0
-1.5286e-08 1.0286e-11 0
-1.52868e-08 7.63777e-12 0
-1.52875e-08 5.67018e-12 0
-1.5288e-08 4.20842e-12 0
-1.52883e-08 3.12252e-12 0
-1.52886e-08 2.31585e-12 0
-1.52888e-08 1.71654e-12 0
-1.52889e-08 1.27114e-12 0
-1.5289e-08 9.39887e-13 0
-1.52891e-08 6.93181e-13 0
-1.52892e-08 5.09016e-13 0
-1.52892e-08 3.71087e-13 0
-1.52892e-08 2.67434e-13 0
-1.52892e-08 1.89323e-13 0
-1.52893e-08 1.30459e-13 0
-1.52893e-08 8.5628e-14 0
-1.52893e-08 4.92577e-14 0
0.012892 -5.91237e-09 0
0 -1.33947e-08 0
4.50418e-13 3.35205e-09 0
-4.88321e-08 6.33891e-09 0
-2.80563e-08 3.37491e-09 0
-1.69523e-08 5.738e-10 0
-9.16007e-09 1.85757e-10 0
-1.13354e-12 1.05006e-12 0
-1.08158e-13 1.08158e-13 0
9.11355e-13 -9.7245e-13 0
-1.9356e-08 -1.08508e-08 0
-1.95598e-08 -7.58509e-09 0
-1.88251e-08 6.6492e-09 0
-1.7968e-08 6.16544e-09 0
-1.70676e-08 4.78459e-09 0
-1.63473e-08 3.41343e-09 0
-1.58854e-08 2.41596e-09 0
-1.56144e-08 1.732e-09 0
-1.54615e-08 1.25842e-09 0
-1.53774e-08 9.2354e-10 0
-1.53321e-08 6.82324e-10 0
-1.53083e-08 5.06205e-10 0
-1.52962e-08 3.76443e-10 0
-1.52905e-08 2.80289e-10 0
-1.52879e-08 2.08802e-10 0
-1.52871e-08 1.55561e-10 0
-1.5287e-08 1.15877e-10 0
-1.52872e-08 8.62928e-11 0
-1.52875e-08 6.42399e-11 0
-1.52879e-08 4.78059e-11 0
-1.52882e-08 3.55635e-11 0
-1.52884e-08 2.64472e-11 0
-1.52886e-08 1.96613e-11 0
-1.52888e-08 1.46121e-11 0
-1.52889e-08 1.08562e-11 0
-1.5289e-08 8.06342e-12 0
-1.52891e-08 5.98729e-12 0
-1.52891e-08 4.4443e-12 0
-1.52891e-08 3.29777e-12 0
-1.52892e-08 2.44589e-12 0
-1.52892e-08 1.81292e-12 0
-1.52892e-08 1.34243e-12 0
-1.52892e-08 9.92448e-13 0
-1.52892e-08 7.31672e-13 0
-1.52892e-08 5.36784e-13 0
-1.52892e-08 3.90368e-13 0
-1.52892e-08 2.79397e-13 0
-1.52892e-08 1.94079e-13 0
-1.52892e-08 1.26951e-13 0
-1.52892e-08 7.18428e-14 0
-1.52892e-08 2.36208e-14 0
0.012892 1.0697e-11 0
0 -8.29551e-09 0
5.03558e-13 -4.27883e-10 0
-4.9084e-08 5.24955e-10 0
-2.79706e-08 2.40572e-10 0
-2.09896e-08 -8.08099e-10 0
-1.64175e-08 -9.39586e-09 0
-1.42931e-08 -9.30002e-09 0
-1.15299e-12 9.47129e-13 0
-3.5775e-14 3.5775e-14 0
9.47113e-13 -8.75596e-13 0
-1.08695e-08 2.99455e-09 0
-2.75277e-08 5.84606e-09 0
-2.22411e-08 4.8268e-09 0
-1.88651e-08 3.35849e-09 0
-1.72453e-08 2.41921e-09 0
-1.64263e-08 1.82749e-09 0
-1.59856e-08 1.39714e-09 0
-1.57351e-08 1.06768e-09 0
-1.55855e-08 8.13384e-10 0
-1.54921e-08 6.17453e-10 0
-1.54315e-08 4.67106e-10 0
-1.53908e-08 3.5226e-10 0
-1.53627e-08 2.64921e-10 0
-1.53429e-08 1.98769e-10 0
-1.53287e-08 1.48842e-10 0
-1.53184e-08 1.11275e-10 0
-1.53108e-08 8.30775e-11 0
-1.53053e-08 6.19571e-11 0
-1.53012e-08 4.6164e-11 0
-1.52982e-08 3.43705e-11 0
-1.52959e-08 2.55737e-11 0
-1.52942e-08 1.90181e-11 0
-1.5293e-08 1.41363e-11 0
-1.5292e-08 1.05033e-11 0
-1.52914e-08 7.801e-12 0
-1.52908e-08 5.7919e-12 0
-1.52905e-08 4.29869e-12 0
-1.52902e-08 3.1892e-12 0
-1.529e-08 2.36494e-12 0
-1.52898e-08 1.75256e-12 0
-1.52897e-08 1.29744e-12 0
-1.52896e-08 9.5891e-13 0
-1.52895e-08 7.06611e-13 0
-1.52895e-08 5.1786e-13 0
-1.52894e-08 3.75584e-13 0
-1.52894e-08 2.66798e-13 0
-1.52894e-08 1.8148e-13 0
-1.52894e-08 1.11775e-13 0
-1.52894e-08 5.13212e-14 0
-1.52894e-08 -4.2426e-15 0
0.012892 5.93249e-09 0
0 -5.19699e-09 0
4.02958e-13 -4.01848e-09 0
-4.45056e-08 -4.89595e-09 0
-2.67393e-08 -1.76787e-09 0
-2.12239e-08 -3.60616e-09 0
-1.87013e-08 -4.59634e-09 0
-2.23222e-08 -1.61936e-08 0
-1.72589e-08 -1.4313e-08 0
-1.14302e-12 7.51237e-13 0
1.07483e-12 6.83075e-13 0
4.6987e-14 1.98956e-08 0
-4.31172e-08 1.82497e-08 0
-2.5462e-08 -2.11695e-09 0
-1.88899e-08 -5.39747e-11 0
-1.70825e-08 1.01226e-09 0
-1.6417e-08 1.15651e-09 0
-1.60792e-08 1.03423e-09 0
-1.5869e-08 8.52986e-10 0
-1.57235e-08 6.77411e-10 0
-1.56176e-08 5.26711e-10 0
-1.55387e-08 4.04161e-10 0
-1.54793e-08 3.07397e-10 0
-1.54344e-08 2.32361e-10 0
-1.54004e-08 1.74864e-10 0
-1.53748e-08 1.31166e-10 0
-1.53555e-08 9.81483e-11 0
-1.53409e-08 7.33061e-11 0
-1.533e-08 5.46736e-11 0
-1.53218e-08 4.07314e-11 0
-1.53157e-08 3.03175e-11 0
-1.53111e-08 2.25499e-11 0
-1.53077e-08 1.67624e-11 0
-1.53051e-08 1.24541e-11 0
-1.53032e-08 9.24902e-12 0
-1.53018e-08 6.86613e-12 0
-1.53007e-08 5.09533e-12 0
-1.53e-08 3.77987e-12 0
-1.52994e-08 2.80294e-12 0
-1.52989e-08 2.07753e-12 0
-1.52986e-08 1.53887e-12 0
-1.52984e-08 1.13874e-12 0
-1.52982e-08 8.41224e-13 0
-1.52981e-08 6.19535e-13 0
-1.5298e-08 4.53588e-13 0
-1.52979e-08 3.28161e-13 0
-1.52978e-08 2.3144e-13 0
-1.52978e-08 1.53909e-13 0
-1.52978e-08 8.76971e-14 0
-1.52978e-08 2.63824e-14 0
-1.52978e-08 -3.36725e-14 0
0.012892 1.20632e-08 0
0 -5.26008e-09 0
2.36133e-13 -6.46912e-09 0
-3.64203e-08 -8.41086e-09 0
-2.47616e-08 -2.62443e-09 0
-2.08485e-08 -1.26906e-09 0
-2.26075e-08 -5.26981e-09 0
-2.65972e-08 -9.73654e-09 0
-4.01114e-08 -2.23357e-08 0
-3.70814e-08 -1.72825e-08 0
-1.73293e-08 -6.04931e-19 0
-4.6102e-09 4.53482e-08 0
-2.24746e-09 3.09693e-08 0
-1.17613e-08 -1.87433e-08 0
-1.53422e-08 -4.71196e-09 0
-1.63813e-08 4.41345e-11 0
-1.66136e-08 8.50667e-10 0
-1.65884e-08 8.55265e-10 0
-1.64853e-08 7.13136e-10 0
-1.63678e-08 5.62286e-10 0
-1.62588e-08 4.32832e-10 0
-1.61659e-08 3.28967e-10 0
-1.60901e-08 2.48126e-10 0
-1.60301e-08 1.86239e-10 0
-1.59832e-08 1.39333e-10 0
-1.59472e-08 1.04007e-10 0
-1.59197e-08 7.7513e-11 0
-1.58988e-08 5.77006e-11 0
-1.58831e-08 4.29141e-11 0
-1.58712e-08 3.18948e-11 0
-1.58623e-08 2.36917e-11 0
-1.58557e-08 1.75902e-11 0
-1.58507e-08 1.30549e-11 0
-1.5847e-08 9.68558e-12 0
-1.58442e-08 7.1836e-12 0
-1.58422e-08 5.32639e-12 0
-1.58406e-08 3.94822e-12 0
-1.58395e-08 2.92579e-12 0
-1.58386e-08 2.16742e-12 0
-1.5838e-08 1.60496e-12 0
-1.58375e-08 1.18776e-12 0
-1.58372e-08 8.78189e-13 0
-1.58369e-08 6.48247e-13 0
-1.58367e-08 4.77066e-13 0
-1.58366e-08 3.48994e-13 0
-1.58365e-08 2.52104e-13 0
-1.58364e-08 1.76934e-13 0
-1.58364e-08 1.15276e-13 0
-1.58363e-08 5.9195e-14 0
-1.58363e-08 8.67903e-16 0
-1.58363e-08 -6.48713e-14 0
0.0128864 1.89396e-08 0
0 -7.56795e-09 0
1.1902e-13 -6.5213e-09 0
-3.4328e-08 -8.18376e-09 0
-3.36045e-08 -1.93222e-09 0
-3.29682e-08 9.07673e-10 0
-3.27395e-08 4.87961e-09 0
-3.62514e-08 3.64118e-09 0
-3.98067e-08 -3.60599e-09 0
-5.69296e-08 -2.50894e-08 0
-5.89722e-08 -3.59981e-08 0
-6.12525e-08 2.06722e-09 0
-1.68759e-08 2.47633e-08 0
-3.12309e-08 1.15705e-08 0
-3.54685e-08 4.85847e-09 0
-3.57458e-08 2.38001e-09 0
-3.53249e-08 1.39151e-09 0
-3.48559e-08 9.12912e-10 0
-3.44571e-08 6.33277e-10 0
-3.41404e-08 4.50323e-10 0
-3.38957e-08 3.24097e-10 0
-3.37092e-08 2.34904e-10 0
-3.35683e-08 1.71099e-10 0
-3.34624e-08 1.25097e-10 0
-3.33831e-08 9.17349e-11 0
-3.33239e-08 6.74272e-11 0
-3.32797e-08 4.96492e-11 0
-3.32468e-08 3.66079e-11 0
-3.32223e-08 2.70189e-11 0
-3.32041e-08 1.99558e-11 0
-3.31906e-08 1.47463e-11 0
-3.31805e-08 1.09003e-11 0
-3.31731e-08 8.05898e-12 0
-3.31676e-08 5.95894e-12 0
-3.31634e-08 4.4063e-12 0
-3.31604e-08 3.25814e-12 0
-3.31581e-08 2.409e-12 0
-3.31565e-08 1.78096e-12 0
-3.31552e-08 1.31641e-12 0
-3.31543e-08 9.72768e-13 0
-3.31536e-08 7.18505e-13 0
-3.31531e-08 5.30289e-13 0
-3.31528e-08 3.90827e-13 0
-3.31525e-08 2.87272e-13 0
-3.31523e-08 2.10023e-13 0
-3.31521e-08 1.51791e-13 0
-3.3152e-08 1.06775e-13 0
-3.3152e-08 6.95899e-14 0
-3.31519e-08 3.32575e-14 0
-3.31519e-08 -1.68781e-14 0
-3.3152e-08 -1.25383e-13 0
0.01252 2.70604e-08 0
0 0 0
4.61146e-14 0 0
-1.84774e-08 0 0
-2.17314e-08 0 0
-2.26021e-08 0 0
-2.15758e-08 0 0
-1.76834e-08 0 0
-1.69541e-08 0 0
-1.98484e-08 0 0
-4.16427e-08 0 0
-5.66423e-08 0 0
-4.07789e-08 0 0
-3.26618e-08 0 0
-2.92929e-08 0 0
-2.77209e-08 0 0
-2.68498e-08 0 0
-2.62992e-08 0 0
-2.59252e-08 0 0
-2.56623e-08 0 0
-2.54744e-08 0 0
-2.53387e-08 0 0
-2.52402e-08 0 0
-2.51684e-08 0 0
-2.51157e-08 0 0
-2.50771e-08 0 0
-2.50487e-08 0 0
-2.50277e-08 0 0
-2.50122e-08 0 0
-2.50008e-08 0 0
-2.49924e-08 0 0
-2.49862e-08 0 0
-2.49816e-08 0 0
-2.49781e-08 0 0
-2.49756e-08 0 0
-2.49738e-08 0 0
-2.49724e-08 0 0
-2.49714e-08 0 0
-2.49706e-08 0 0
-2.49701e-08 0 0
-2.49696e-08 0 0
-2.49693e-08 0 0
-2.49691e-08 0 0
-2.49689e-08 0 0
-2.49688e-08 0 0
-2.49687e-08 0 0
-2.49687e-08 0 0
-2.49686e-08 0 0
-2.49686e-08 0 0
-2.49686e-08 0 0
-2.49687e-08 0 0
0.0060795 0 0
0 0 5.79063e-09
3.95083e-14 0 4.79821e-09
-2.83641e-08 0 5.65865e-09
-3.4155e-08 0 5.44679e-10
-2.92531e-08 0 -7.11627e-10
-1.78802e-08 0 -2.85181e-10
-2.45489e-08 0 2.67424e-10
-2.34849e-08 0 2.2232e-10
-2.13434e-08 0 2.62478e-11
-2.07533e-08 0 -1.00017e-10
-2.21413e-08 0 -1.07184e-10
-2.42454e-08 0 -7.49187e-11
-2.62763e-08 0 -4.40401e-11
-2.79805e-08 0 -2.38434e-11
-2.93277e-08 0 -1.25686e-11
-3.03543e-08 0 -6.76899e-12
-3.11175e-08 0 -3.86226e-12
-3.16757e-08 0 -2.36786e-12
-3.20803e-08 0 -1.5468e-12
-3.23725e-08 0 -1.05653e-12
-3.25835e-08 0 -7.41423e-13
-3.2736e-08 0 -5.28276e-13
-3.28468e-08 0 -3.79637e-13
-3.29274e-08 0 -2.74216e-13
-3.29864e-08 0 -1.98732e-13
-3.30297e-08 0 -1.44373e-13
-3.30615e-08 0 -1.05073e-13
-3.3085e-08 0 -7.6579e-14
-3.31023e-08 0 -5.58735e-14
-3.31151e-08 0 -4.08009e-14
-3.31246e-08 0 -2.98129e-14
-3.31316e-08 0 -2.17943e-14
-3.31368e-08 0 -1.59383e-14
-3.31407e-08 0 -1.16588e-14
-3.31435e-08 0 -8.52984e-15
-3.31457e-08 0 -6.24121e-15
-3.31473e-08 0 -4.56712e-15
-3.31484e-08 0 -3.34301e-15
-3.31493e-08 0 -2.44911e-15
-3.31499e-08 0 -1.80023e-15
-3.31504e-08 0 -1.3378e-15
-3.31508e-08 0 -1.0263e-15
-3.3151e-08 0 -8.58026e-16
-3.31512e-08 0 -8.54975e-16
-3.31514e-08 0 -1.04838e-15
-3.31515e-08 0 -1.30765e-15
-3.31515e-08 0 -5.17411e-16
-3.31516e-08 0 5.70307e-15
-3.31517e-08 0 2.98302e-14
-3.31517e-08 0 1.08506e-13
0.0125199 0 -2.28636e-08
0.0036 1.25301e-08 6.57034e-09
0.00359998 -0.00565923 -0.00291668
0.0151487 -0.0101605 -0.00448682
0.0248695 -0.00862453 -0.0023923
0.0342098 -0.0077642 -0.00126549
0.0439506 -0.00482838 -0.000662997
0.0459565 -0.000829301 -0.000333184
0.0453722 0.00230371 -0.000172079
0.0400393 0.0040912 -9.20148e-05
0.0351507 0.00391022 -5.12827e-05
0.031435 0.00302424 -2.7146e-05
0.0289374 0.00207871 -1.41453e-05
0.0273908 0.00131381 -7.33164e-06
0.0264962 0.0007739 -3.78971e-06
0.0260136 0.000424863 -1.9604e-06
0.0257753 0.000213994 -1.01976e-06
0.0256735 9.41673e-05 -5.35755e-07
0.025643 3.03838e-05 -2.85127e-07
0.0256466 -8.08585e-07 -1.53968e-07
0.0256642 -1.40554e-05 -8.44321e-08
0.0256856 -1.8013e-05 -4.70503e-08
0.0257061 -1.75557e-05 -2.6667e-08
0.0257237 -1.52955e-05 -1.53914e-08
0.0257381 -1.25511e-05 -9.05993e-09
0.0257494 -9.93186e-06 -5.44718e-09
0.0257581 -7.67596e-06 -3.34923e-09
0.0257647 -5.83819e-06 -2.10718e-09
0.0257697 -4.39102e-06 -1.35626e-09
0.0257734 -3.27638e-06 -8.9207e-10
0.0257762 -2.43069e-06 -5.98516e-10
0.0257782 -1.79575e-06 -4.0867e-10
0.0257797 -1.32261e-06 -2.83274e-10
0.0257808 -9.71927e-07 -1.98855e-10
0.0257816 -7.13031e-07 -1.41092e-10
0.0257822 -5.22445e-07 -1.01064e-10
0.0257826 -3.82442e-07 -7.31172e-11
0.0257829 -2.79754e-07 -5.36397e-11
0.0257831 -2.04521e-07 -4.03616e-11
0.0257833 -1.49445e-07 -3.19801e-11
0.0257834 -1.09146e-07 -2.79913e-11
0.0257835 -7.96669e-08 -2.86629e-11
0.0257836 -5.81036e-08 -3.50637e-11
0.0257836 -4.23316e-08 -4.89771e-11
0.0257837 -3.08051e-08 -7.24133e-11
0.0257837 -2.2419e-08 -1.07111e-10
0.0257837 -1.64326e-08 -1.617e-10
0.0257837 -1.25082e-08 -3.24891e-10
0.0257837 -1.12193e-08 -1.28657e-09
0.0257838 -1.69862e-08 -7.3785e-09
0.0257838 -4.07219e-08 -3.00044e-08
0.0257838 -5.88621e-08 -4.73713e-08
0.01 1.103e-08 9.36068e-09
0.01 -0.00875201 -0.00523276
0.0183865 -0.0166972 -0.00770349
0.0259883 -0.0162483 -0.0036109
0.0349644 -0.0174444 -0.00171655
0.0521628 -0.0108228 -0.00080011
0.0513182 -0.000921193 -0.000338987
0.0518649 0.00618554 -0.000169385
0.040929 0.0103629 -8.99485e-05
0.0343941 0.00867888 -5.50637e-05
0.0305453 0.00625206 -2.88724e-05
0.0283373 0.00406433 -1.44933e-05
0.0271794 0.0024517 -7.34145e-06
0.0266207 0.00138266 -3.70279e-06
0.0263837 0.000723644 -1.85753e-06
0.0263085 0.000341567 -9.32054e-07
0.0263077 0.000133145 -4.705e-07
0.0263365 2.73351e-05 -2.39862e-07
0.0263732 -2.10066e-05 -1.23709e-07
0.0264084 -3.89157e-05 -6.45597e-08
0.0264385 -4.18019e-05 -3.40693e-08
0.0264629 -3.8047e-05 -1.81638e-08
0.026482 -3.19783e-05 -9.77591e-09
0.0264966 -2.56777e-05 -5.30932e-09
0.0265077 -2.00348e-05 -2.91005e-09
0.0265159 -1.53364e-05 -1.61076e-09
0.026522 -1.15866e-05 -9.01526e-10
0.0265266 -8.67297e-06 -5.11114e-10
0.0265299 -6.44911e-06 -2.9419e-10
0.0265324 -4.7725e-06 -1.72353e-10
0.0265342 -3.5194e-06 -1.0305e-10
0.0265355 -2.58863e-06 -6.30411e-11
0.0265364 -1.90041e-06 -3.9557e-11
0.0265372 -1.39319e-06 -2.55351e-11
0.0265377 -1.02027e-06 -1.70514e-11
0.0265381 -7.46575e-07 -1.19325e-11
0.0265383 -5.45969e-07 -9.01472e-12
0.0265385 -3.9907e-07 -7.76412e-12
0.0265387 -2.91572e-07 -8.11223e-12
0.0265388 -2.12943e-07 -1.04336e-11
0.0265389 -1.55448e-07 -1.56212e-11
0.0265389 -1.13422e-07 -2.52066e-11
0.026539 -8.27335e-08 -4.14081e-11
0.026539 -6.03975e-08 -6.69692e-11
0.026539 -4.43273e-08 -1.05589e-10
0.026539 -3.32185e-08 -1.71661e-10
0.026539 -2.66174e-08 -3.69538e-10
0.0265391 -2.50607e-08 -1.42317e-09
0.0265391 -2.89972e-08 -7.70249e-09
0.0265391 -3.86333e-08 -2.9891e-08
0.0265391 -4.49483e-08 -4.66989e-08
0.0148 -8.5483e-09 2.14953e-08
0.0148 -0.00945056 -0.00726527
0.0202626 -0.0188853 -0.0106364
0.0239411 -0.0211288 -0.00485015
0.0260785 -0.0317581 -0.00223974
0.0284682 -0.0200643 -0.000865301
0.0269542 -1.5546e-07 -0.000159444
0.0278091 0.0129726 -9.07372e-05
0.0332973 0.0217013 -5.66521e-05
0.029378 0.0143667 -3.48398e-05
0.0269124 0.00911823 -2.21302e-05
0.0258411 0.00546379 -1.23449e-05
0.0255744 0.0030404 -6.41685e-06
0.0256563 0.00157474 -3.19479e-06
0.0258403 0.000739759 -1.55032e-06
0.0260229 0.000291446 -7.4741e-07
0.0261713 6.69349e-05 -3.62624e-07
0.0262819 -3.47299e-05 -1.78439e-07
0.0263612 -7.25326e-05 -8.94224e-08
0.026417 -7.92998e-05 -4.57143e-08
0.026456 -7.25027e-05 -2.38449e-08
0.0264834 -6.09926e-05 -1.26852e-08
0.0265026 -4.89616e-05 -6.88008e-09
0.0265161 -3.81773e-05 -3.80446e-09
0.0265258 -2.92043e-05 -2.14611e-09
0.0265326 -2.205e-05 -1.23635e-09
0.0265376 -1.64966e-05 -7.28366e-10
0.0265411 -1.22616e-05 -4.39378e-10
0.0265437 -9.0709e-06 -2.71634e-10
0.0265456 -6.6875e-06 -1.7213e-10
0.0265469 -4.91795e-06 -1.1173e-10
0.0265479 -3.60994e-06 -7.41889e-11
0.0265486 -2.64618e-06 -5.03091e-11
0.0265491 -1.93774e-06 -3.48025e-11
0.0265495 -1.41788e-06 -2.45842e-11
0.0265498 -1.03689e-06 -1.78452e-11
0.02655 -7.57933e-07 -1.35519e-11
0.0265501 -5.53817e-07 -1.11904e-11
0.0265502 -4.04535e-07 -1.06652e-11
0.0265503 -2.95388e-07 -1.23045e-11
0.0265504 -2.15604e-07 -1.6944e-11
0.0265504 -1.57295e-07 -2.60345e-11
0.0265505 -1.1471e-07 -4.16277e-11
0.0265505 -8.36814e-08 -6.59905e-11
0.0265505 -6.12389e-08 -1.01212e-10
0.0265505 -4.53445e-08 -1.55871e-10
0.0265505 -3.46847e-08 -3.13073e-10
0.0265505 -2.84897e-08 -1.22112e-09
0.0265505 -2.6584e-08 -7.00922e-09
0.0265505 -2.8214e-08 -2.78139e-08
0.0265505 -2.97011e-08 -4.36156e-08
0.018 -2.84229e-08 2.31423e-08
0.018 -0.00798008 -0.00871706
0.0210347 -0.0159952 -0.0127831
0.020857 -0.0166253 -0.00578501
0.0157831 -0.0190872 -0.00262345
-2.02625e-09 -0.0104771 -0.000904483
1.96669e-06 9.25968e-07 1.05137e-09
-9.45081e-07 1.04598e-06 -1.21061e-05
0.012992 0.00889107 -1.92637e-05
0.0217383 0.0151167 -1.26607e-05
0.0216898 0.00981798 -1.09114e-05
0.0224575 0.00541794 -8.83413e-06
0.0235867 0.0026449 -5.17045e-06
0.0245695 0.00112126 -2.57278e-06
0.025285 0.000359379 -1.21495e-06
0.0257608 1.18798e-05 -5.68829e-07
0.0260621 -0.000125151 -2.70244e-07
0.0262481 -0.000162236 -1.32129e-07
0.0263619 -0.0001559 -6.69862e-08
0.0264314 -0.000133649 -3.52989e-08
0.0264741 -0.000108107 -1.93171e-08
0.0265007 -8.45429e-05 -1.09525e-08
0.0265175 -6.47289e-05 -6.41755e-09
0.0265283 -4.88718e-05 -3.8773e-09
0.0265353 -3.65502e-05 -2.41053e-09
0.02654 -2.71545e-05 -1.53895e-09
0.0265432 -2.00796e-05 -1.00659e-09
0.0265454 -1.47979e-05 -6.7274e-10
0.0265469 -1.08788e-05 -4.58096e-10
0.026548 -7.9834e-06 -3.16892e-10
0.0265487 -5.85091e-06 -2.22082e-10
0.0265492 -4.28388e-06 -1.57294e-10
0.0265496 -3.1343e-06 -1.12376e-10
0.0265499 -2.29197e-06 -8.08882e-11
0.0265501 -1.67534e-06 -5.86647e-11
0.0265503 -1.22422e-06 -4.29792e-11
0.0265504 -8.94344e-07 -3.20606e-11
0.0265504 -6.53209e-07 -2.4823e-11
0.0265505 -4.76976e-07 -2.07396e-11
0.0265505 -3.48188e-07 -1.98244e-11
0.0265506 -2.54069e-07 -2.26966e-11
0.0265506 -1.85276e-07 -3.0669e-11
0.0265506 -1.34986e-07 -4.56957e-11
0.0265506 -9.82221e-08 -6.98449e-11
0.0265506 -7.13706e-08 -1.04374e-10
0.0265506 -5.1819e-08 -1.54582e-10
0.0265506 -3.76985e-08 -2.92429e-10
0.0265506 -2.76968e-08 -1.13507e-09
0.0265506 -2.10151e-08 -6.7337e-09
0.0265506 -1.66144e-08 -2.71169e-08
0.0265506 -1.47904e-08 -4.26366e-08
0.0196 -2.72947e-08 1.47703e-08
0.0196 -0.00504007 -0.00946403
0.0215345 -0.00993178 -0.0138945
0.0200962 -0.00935626 -0.00624464
0.0148904 -0.0074816 -0.00271868
0.00466466 -0.00301708 -0.00114632
1.57118e-06 -1.4606e-06 -0.000241799
5.15522e-07 -5.15522e-07 -2.43245e-10
-9.10468e-07 9.79694e-07 -4.10717e-06
0.00889742 0.00569774 -6.85918e-06
0.0151296 0.00841747 -6.53349e-06
0.0186608 0.00357829 -6.77258e-06
0.0217117 0.000935074 -4.57245e-06
0.0237468 -0.000119779 -2.33661e-06
0.0249731 -0.000449426 -1.10771e-06
0.0256766 -0.000484453 -5.20874e-07
0.0260705 -0.000419821 -2.52843e-07
0.0262882 -0.000334226 -1.29131e-07
0.0264077 -0.000255586 -6.95173e-08
0.026473 -0.00019142 -3.91574e-08
0.0265085 -0.000141757 -2.28662e-08
0.0265279 -0.000104327 -1.37455e-08
0.0265384 -7.65126e-05 -8.46992e-09
0.0265441 -5.60039e-05 -5.3382e-09
0.0265471 -4.09473e-05 -3.43688e-09
0.0265488 -2.99202e-05 -2.25787e-09
0.0265497 -2.18551e-05 -1.51138e-09
0.0265501 -1.59609e-05 -1.02893e-09
0.0265504 -1.16551e-05 -7.10872e-10
0.0265505 -8.51043e-06 -4.97292e-10
0.0265506 -6.21401e-06 -3.51477e-10
0.0265506 -4.53716e-06 -2.505e-10
0.0265506 -3.31277e-06 -1.79748e-10
0.0265507 -2.41876e-06 -1.29723e-10
0.0265507 -1.76599e-06 -9.41432e-11
0.0265507 -1.28936e-06 -6.88067e-11
0.0265507 -9.41331e-07 -5.0904e-11
0.0265507 -6.87194e-07 -3.86176e-11
0.0265507 -5.01601e-07 -3.09068e-11
0.0265507 -3.66043e-07 -2.74323e-11
0.0265507 -2.66999e-07 -2.85835e-11
0.0265507 -1.94589e-07 -3.55411e-11
0.0265507 -1.41589e-07 -5.01905e-11
0.0265507 -1.02704e-07 -7.4503e-11
0.0265507 -7.40371e-08 -1.09345e-10
0.0265507 -5.26928e-08 -1.58681e-10
0.0265507 -3.64866e-08 -2.90964e-10
0.0265506 -2.37644e-08 -1.11533e-09
0.0265506 -1.33412e-08 -6.66732e-09
0.0265506 -4.29083e-09 -2.69607e-08
0.0265506 4.1205e-12 -4.24235e-08
0.0196 -1.83568e-08 4.34925e-09
0.0196 -0.00183935 -0.00947917
0.0218653 -0.00365173 -0.0139171
0.0212885 -0.0029297 -0.00624873
0.0182023 -0.000115661 -0.0026578
0.0138773 0.00602255 -0.00130463
0.00893276 0.00502092 -0.000580737
1.58026e-06 -1.34094e-06 -0.000123098
4.30473e-07 -4.30473e-07 -8.7157e-11
-8.84867e-07 9.3607e-07 -1.566e-06
0.00570016 6.61066e-05 -4.15393e-06
0.0151277 -0.00115563 -7.06783e-06
0.0208398 -0.00243539 -6.91083e-06
0.0237515 -0.0021367 -3.52706e-06
0.0251963 -0.00156843 -1.58937e-06
0.0259091 -0.00108444 -7.28608e-07
0.0262589 -0.000736139 -3.55787e-07
0.0264285 -0.000499081 -1.85622e-07
0.0265087 -0.00034047 -1.01973e-07
0.0265448 -0.000234401 -5.80535e-08
0.0265595 -0.000162965 -3.38806e-08
0.026564 -0.000114351 -2.01616e-08
0.0265641 -8.08954e-05 -1.22137e-08
0.0265625 -5.76214e-05 -7.53466e-09
0.0265604 -4.12736e-05 -4.73785e-09
0.0265583 -2.96961e-05 -3.03878e-09
0.0265566 -2.14411e-05 -1.98798e-09
0.0265551 -1.55229e-05 -1.3254e-09
0.026554 -1.12616e-05 -8.99118e-10
0.0265532 -8.18308e-06 -6.19326e-10
0.0265525 -5.95324e-06 -4.32188e-10
0.026552 -4.33493e-06 -3.04872e-10
0.0265517 -3.15867e-06 -2.16978e-10
0.0265514 -2.30275e-06 -1.55573e-10
0.0265512 -1.67938e-06 -1.12303e-10
0.0265511 -1.22508e-06 -8.16895e-11
0.0265509 -8.9383e-07 -6.01246e-11
0.0265509 -6.52199e-07 -4.52804e-11
0.0265508 -4.75874e-07 -3.57894e-11
0.0265508 -3.47149e-07 -3.11063e-11
0.0265507 -2.53117e-07 -3.15025e-11
0.0265507 -1.84352e-07 -3.81136e-11
0.0265507 -1.33956e-07 -5.28538e-11
0.0265507 -9.68529e-08 -7.78219e-11
0.0265507 -6.92656e-08 -1.14206e-10
0.0265507 -4.83164e-08 -1.6681e-10
0.0265507 -3.17234e-08 -3.06439e-10
0.0265507 -1.75994e-08 -1.14856e-09
0.0265507 -4.44149e-09 -6.74274e-09
0.0265506 8.42708e-09 -2.71171e-08
0.0265506 1.47981e-08 -4.26313e-08
0.018 -1.29086e-08 -4.80054e-09
0.018 0.000786816 -0.00880393
0.0214376 0.00124249 -0.0129219
0.0225179 0.0013536 -0.00582371
0.02193 0.00337798 -0.00249487
0.0213383 0.0080971 -0.00119968
0.022267 0.0147365 -0.000637741
0.0143196 0.00911941 -0.000289745
1.61019e-06 -1.07169e-06 -6.25616e-05
-7.76025e-07 -1.14968e-06 3.90506e-09
9.44495e-08 -0.00670381 3.97638e-06
0.0158079 -0.0115536 -2.97921e-06
0.0227325 -0.00768251 -1.07901e-05
0.0252313 -0.00447228 -5.50917e-06
0.0261627 -0.00260478 -2.41662e-06
0.0265112 -0.0015459 -1.09759e-06
0.0266309 -0.000938586 -5.32884e-07
0.0266598 -0.000583636 -2.73966e-07
0.0266545 -0.000371629 -1.46588e-07
0.0266383 -0.000242035 -8.05122e-08
0.0266205 -0.000160926 -4.50247e-08
0.0266046 -0.000108969 -2.55443e-08
0.0265915 -7.49497e-05 -1.46927e-08
0.0265813 -5.22254e-05 -8.57725e-09
0.0265734 -3.67774e-05 -5.09182e-09
0.0265674 -2.61177e-05 -3.08038e-09
0.026563 -1.86705e-05 -1.9025e-09
0.0265597 -1.34153e-05 -1.2009e-09
0.0265573 -9.67721e-06 -7.74826e-10
0.0265555 -7.00164e-06 -5.1057e-10
0.0265541 -5.07731e-06 -3.43038e-10
0.0265532 -3.68817e-06 -2.34491e-10
0.0265525 -2.68253e-06 -1.62707e-10
0.0265519 -1.95297e-06 -1.1437e-10
0.0265516 -1.42283e-06 -8.13508e-11
0.0265513 -1.03714e-06 -5.86106e-11
0.0265511 -7.56271e-07 -4.3008e-11
0.0265509 -5.51583e-07 -3.26373e-11
0.0265508 -4.02317e-07 -2.64842e-11
0.0265507 -2.93395e-07 -2.42899e-11
0.0265507 -2.13841e-07 -2.65601e-11
0.0265506 -1.55648e-07 -3.46438e-11
0.0265506 -1.12949e-07 -5.07198e-11
0.0265506 -8.14115e-08 -7.73962e-11
0.0265506 -5.77757e-08 -1.17177e-10
0.0265506 -3.94891e-08 -1.78605e-10
0.0265506 -2.43851e-08 -3.43122e-10
0.0265506 -1.03924e-08 -1.25526e-09
0.0265505 4.54567e-09 -7.03517e-09
0.0265505 2.11055e-08 -2.78161e-08
0.0265505 2.97074e-08 -4.36028e-08
0.0148 -1.20241e-08 -1.30291e-08
0.0148 0.00227263 -0.00754614
0.0200434 0.00381253 -0.0110914
0.0230466 0.00314896 -0.00506743
0.024685 0.00429002 -0.00224207
0.0264617 0.00737326 -0.00109494
0.0298091 0.0129847 -0.000579027
0.0351882 0.0227085 -0.000311601
0.0304626 0.0144161 -0.000113899
0.0304813 1.54451e-14 -2.44209e-06
0.0322237 -0.015737 5.02186e-06
0.0304176 -0.0238784 -6.93477e-06
0.0290641 -0.0118505 -1.23658e-05
0.0282438 -0.00556167 -6.12798e-06
0.0277004 -0.00284549 -2.72947e-06
0.0273317 -0.00155114 -1.25435e-06
0.0270821 -0.000883899 -6.01756e-07
0.0269135 -0.000522255 -2.98048e-07
0.0267994 -0.000318681 -1.5045e-07
0.0267216 -0.000200256 -7.65454e-08
0.026668 -0.000129226 -3.88748e-08
0.0266308 -8.53731e-05 -1.95166e-08
0.0266047 -5.7556e-05 -9.56771e-09
0.0265862 -3.94683e-05 -4.49274e-09
0.0265731 -2.74449e-05 -1.94578e-09
0.0265637 -1.92994e-05 -7.03816e-10
0.0265569 -1.3692e-05 -1.27922e-10
0.026552 -9.7811e-06 1.1473e-10
0.0265485 -7.02453e-06 1.96136e-10
0.0265459 -5.06538e-06 2.03925e-10
0.0265441 -3.66393e-06 1.81719e-10
0.0265427 -2.65642e-06 1.50417e-10
0.0265417 -1.92933e-06 1.19375e-10
0.026541 -1.4031e-06 9.22334e-11
0.0265405 -1.0214e-06 6.99107e-11
0.0265401 -7.44066e-07 5.21088e-11
0.0265398 -5.42311e-07 3.80329e-11
0.0265396 -3.95388e-07 2.66966e-11
0.0265395 -2.88305e-07 1.69955e-11
0.0265394 -2.10192e-07 7.64148e-12
0.0265393 -1.53147e-07 -2.99968e-12
0.0265392 -1.11408e-07 -1.71189e-11
0.0265392 -8.07511e-08 -3.76173e-11
0.0265392 -5.80425e-08 -6.80723e-11
0.0265391 -4.08998e-08 -1.13285e-10
0.0265391 -2.73977e-08 -1.88861e-10
0.0265391 -1.57489e-08 -3.99121e-10
0.0265391 -3.81014e-09 -1.46252e-09
0.0265391 1.16663e-08 -7.73044e-09
0.0265391 3.28718e-08 -2.98833e-08
0.0265391 4.49527e-08 -4.66701e-08
0.01 -1.79713e-08 -2.29287e-08
0.01 0.0021125 -0.00593781
0.0176741 0.00341679 -0.00877229
0.0223764 0.00247896 -0.00412854
0.0256384 0.0028685 -0.00192857
0.0292006 0.00450504 -0.000971515