# vtk DataFile Version 2.0
Tobias Weinzierl: CPU, Manycore and Cluster Computing
ASCII

DATASET STRUCTURED_POINTS
DIMENSIONS  51 11 6

ORIGIN 0 0 0 

SPACING 0.1 0.1 0.1 

POINT_DATA 3366

VECTORS velocity float
0 0 0
3.88437e-15 0 0
-1.78379e-09 0 0
-4.16293e-09 0 0
-5.19965e-09 0 0
-1.6194e-09 0 0
-2.2865e-10 0 0
1.33132e-10 0 0
-3.48514e-10 0 0
-1.44403e-09 0 0
-2.37247e-09 0 0
-2.79272e-09 0 0
-2.83248e-09 0 0
-2.72888e-09 0 0
-2.63095e-09 0 0
-2.58692e-09 0 0
-2.58778e-09 0 0
-2.61044e-09 0 0
-2.63772e-09 0 0
-2.66126e-09 0 0
-2.67859e-09 0 0
-2.69011e-09 0 0
-2.69714e-09 0 0
-2.70109e-09 0 0
-2.70309e-09 0 0
-2.70392e-09 0 0
-2.70412e-09 0 0
-2.704e-09 0 0
-2.70375e-09 0 0
-2.70347e-09 0 0
-2.7032e-09 0 0
-2.70297e-09 0 0
-2.70278e-09 0 0
-2.70263e-09 0 0
-2.70251e-09 0 0
-2.70242e-09 0 0
-2.70236e-09 0 0
-2.7023e-09 0 0
-2.70227e-09 0 0
-2.70224e-09 0 0
-2.70222e-09 0 0
-2.7022e-09 0 0
-2.70219e-09 0 0
-2.70218e-09 0 0
-2.70218e-09 0 0
-2.70217e-09 0 0
-2.70217e-09 0 0
-2.70217e-09 0 0
-2.70217e-09 0 0
-2.70217e-09 0 0
0.00260001 0 0
0 7.07417e-09 0
2.05809e-14 8.23529e-10 0
-3.21266e-09 1.66206e-09 0
-7.89326e-09 1.52704e-09 0
-9.23485e-09 1.03477e-09 0
-3.35929e-09 1.25537e-09 0
-1.43372e-09 1.90157e-09 0
-7.85495e-10 1.75108e-09 0
-7.76041e-10 1.58625e-09 0
-2.10566e-09 1.51545e-09 0
-3.60708e-09 1.08163e-09 0
-4.43312e-09 5.32251e-10 0
-4.65724e-09 1.41939e-10 0
-4.65681e-09 -2.66898e-11 0
-4.68036e-09 -4.57677e-11 0
-4.78738e-09 -1.05579e-11 0
-4.93945e-09 2.12048e-11 0
-5.08928e-09 3.44745e-11 0
-5.21158e-09 3.39072e-11 0
-5.30052e-09 2.70857e-11 0
-5.3602e-09 1.90479e-11 0
-5.39778e-09 1.21294e-11 0
-5.42014e-09 7.0063e-12 0
-5.43269e-09 3.57321e-12 0
-5.43924e-09 1.45583e-12 0
-5.44232e-09 2.56753e-13 0
-5.44347e-09 -3.50825e-13 0
-5.44365e-09 -6.03652e-13 0
-5.44337e-09 -6.59452e-13 0
-5.44293e-09 -6.16489e-13 0
-5.44247e-09 -5.32238e-13 0
-5.44205e-09 -4.38026e-13 0
-5.4417e-09 -3.49347e-13 0
-5.44141e-09 -2.72645e-13 0
-5.44119e-09 -2.09516e-13 0
-5.44102e-09 -1.59199e-13 0
-5.44089e-09 -1.1996e-13 0
-5.44079e-09 -8.98255e-14 0
-5.44072e-09 -6.6937e-14 0
-5.44067e-09 -4.96885e-14 0
-5.44063e-09 -3.67614e-14 0
-5.4406e-09 -2.71075e-14 0
-5.44057e-09 -1.99106e-14 0
-5.44056e-09 -1.45436e-14 0
-5.44055e-09 -1.05237e-14 0
-5.44054e-09 -7.47009e-15 0
-5.44053e-09 -5.10908e-15 0
-5.44053e-09 -3.16808e-15 0
-5.44053e-09 -2.01345e-16 0
-5.44054e-09 7.36792e-15 0
0.0070351 -3.0784e-09 0
0 3.86665e-10 0
4.11469e-14 9.47508e-10 0
-1.73677e-09 9.82047e-10 0
-5.64887e-09 -9.98893e-10 0
-5.20666e-09 -1.2678e-09 0
-1.13538e-09 1.15878e-09 0
-2.02193e-09 2.85416e-09 0
-2.28889e-09 1.67524e-09 0
-1.85051e-09 2.35186e-10 0
-2.08335e-09 1.04633e-10 0
-2.99845e-09 3.61318e-10 0
-3.5571e-09 7.68978e-10 0
-3.71442e-09 1.03527e-09 0
-3.69374e-09 1.01416e-09 0
-3.72277e-09 8.36636e-10 0
-3.86355e-09 6.37332e-10 0
-4.06001e-09 4.62845e-10 0
-4.24786e-09 3.22419e-10 0
-4.39563e-09 2.15724e-10 0
-4.49875e-09 1.38739e-10 0
-4.56497e-09 8.57241e-11 0
-4.60478e-09 5.07382e-11 0
-4.62733e-09 2.85606e-11 0
-4.63931e-09 1.50536e-11 0
-4.64516e-09 7.17023e-12 0
-4.64765e-09 2.79145e-12 0
-4.64839e-09 5.1268e-13 0
-4.6483e-09 -5.59078e-13 0
-4.64788e-09 -9.70079e-13 0
-4.64736e-09 -1.04206e-12 0
-4.64687e-09 -9.57029e-13 0
-4.64645e-09 -8.13141e-13 0
-4.6461e-09 -6.60005e-13 0
-4.64583e-09 -5.2019e-13 0
-4.64563e-09 -4.01904e-13 0
-4.64547e-09 -3.06206e-13 0
-4.64535e-09 -2.30965e-13 0
-4.64527e-09 -1.7294e-13 0
-4.6452e-09 -1.28782e-13 0
-4.64515e-09 -9.54887e-14 0
-4.64512e-09 -7.05456e-14 0
-4.64509e-09 -5.19292e-14 0
-4.64507e-09 -3.80515e-14 0
-4.64506e-09 -2.76832e-14 0
-4.64505e-09 -1.98747e-14 0
-4.64504e-09 -1.38297e-14 0
-4.64504e-09 -8.62941e-15 0
-4.64504e-09 -3.16631e-15 0
-4.64504e-09 2.81163e-15 0
-4.64504e-09 8.94568e-15 0
0.00932885 -4.24202e-09 0
0 -9.25554e-09 0
4.8469e-14 2.25232e-10 0
-3.51649e-10 -1.11196e-09 0
-3.8439e-09 -4.32863e-09 0
-3.47611e-09 -5.12367e-09 0
6.04506e-10 -2.13225e-09 0
-8.16873e-10 -3.29479e-14 0
-1.37026e-09 -1.05199e-09 0
-3.27293e-09 -2.62625e-09 0
-3.73833e-09 -2.62424e-09 0
-4.31583e-09 -1.27855e-09 0
-4.64267e-09 3.22853e-10 0
-4.55255e-09 1.3576e-09 0
-4.1428e-09 1.52957e-09 0
-3.71954e-09 1.28534e-09 0
-3.4741e-09 9.71175e-10 0
-3.39512e-09 6.92011e-10 0
-3.40138e-09 4.68602e-10 0
-3.43172e-09 3.02233e-10 0
-3.4588e-09 1.86011e-10 0
-3.47581e-09 1.09189e-10 0
-3.4841e-09 6.08074e-11 0
-3.48681e-09 3.167e-11 0
-3.48657e-09 1.48979e-11 0
-3.48509e-09 5.72411e-12 0
-3.48329e-09 1.02888e-12 0
-3.4816e-09 -1.1376e-12 0
-3.48019e-09 -1.94544e-12 0
-3.47907e-09 -2.07025e-12 0
-3.47822e-09 -1.88657e-12 0
-3.47759e-09 -1.59222e-12 0
-3.47712e-09 -1.28483e-12 0
-3.47678e-09 -1.00748e-12 0
-3.47653e-09 -7.74888e-13 0
-3.47635e-09 -5.8804e-13 0
-3.47622e-09 -4.42003e-13 0
-3.47612e-09 -3.2995e-13 0
-3.47605e-09 -2.45062e-13 0
-3.476e-09 -1.81323e-13 0
-3.47597e-09 -1.33757e-13 0
-3.47594e-09 -9.84008e-14 0
-3.47592e-09 -7.2171e-14 0
-3.47591e-09 -5.27005e-14 0
-3.4759e-09 -3.81688e-14 0
-3.47589e-09 -2.71483e-14 0
-3.47588e-09 -1.85409e-14 0
-3.47588e-09 -1.16474e-14 0
-3.47588e-09 -6.0158e-15 0
-3.47588e-09 -9.44239e-16 0
-3.47588e-09 4.3338e-15 0
0.00987258 -3.20908e-09 0
0 -1.78902e-08 0
2.82271e-14 -7.64786e-10 0
-5.59183e-10 -2.59188e-09 0
-4.19314e-09 -4.01915e-09 0
-5.28348e-09 -3.29709e-09 0
-2.10005e-14 -1.10506e-09 0
-1.94418e-13 -2.19724e-13 0
1.84702e-13 -2.08466e-13 0
-1.84994e-09 -1.80457e-09 0
-4.52218e-09 -3.29217e-09 0
-5.02961e-09 -1.86962e-09 0
-5.3615e-09 1.27007e-10 0
-5.47985e-09 1.22735e-09 0
-5.08763e-09 1.30487e-09 0
-4.42938e-09 1.02333e-09 0
-3.86742e-09 7.54377e-10 0
-3.51799e-09 5.35935e-10 0
-3.32994e-09 3.57474e-10 0
-3.23007e-09 2.20859e-10 0
-3.17282e-09 1.2575e-10 0
-3.1367e-09 6.51483e-11 0
-3.11248e-09 2.94444e-11 0
-3.09592e-09 9.95942e-12 0
-3.08464e-09 2.46133e-13 0
-3.07705e-09 -3.96433e-12 0
-3.07201e-09 -5.28352e-12 0
-3.06871e-09 -5.21221e-12 0
-3.06656e-09 -4.56439e-12 0
-3.06517e-09 -3.75402e-12 0
-3.06427e-09 -2.97361e-12 0
-3.06367e-09 -2.29916e-12 0
-3.06329e-09 -1.74906e-12 0
-3.06303e-09 -1.31579e-12 0
-3.06286e-09 -9.82127e-13 0
-3.06274e-09 -7.29039e-13 0
-3.06266e-09 -5.39055e-13 0
-3.06261e-09 -3.9747e-13 0
-3.06257e-09 -2.92482e-13 0
-3.06254e-09 -2.14898e-13 0
-3.06252e-09 -1.57687e-13 0
-3.06251e-09 -1.15542e-13 0
-3.0625e-09 -8.4485e-14 0
-3.06249e-09 -6.155e-14 0
-3.06249e-09 -4.45451e-14 0
-3.06248e-09 -3.1873e-14 0
-3.06248e-09 -2.23613e-14 0
-3.06248e-09 -1.50907e-14 0
-3.06248e-09 -9.29597e-15 0
-3.06247e-09 -4.21841e-15 0
-3.06247e-09 8.00374e-16 0
0.00996988 -1.47536e-09 0
0 -1.59831e-08 0
1.20465e-14 -1.02876e-09 0
-1.00561e-09 -2.39215e-09 0
-4.48591e-09 -3.2531e-09 0
-6.47918e-09 -3.56321e-09 0
-2.38818e-09 -1.67352e-09 0
-1.8641e-13 1.81458e-13 0
3.24634e-15 -3.24634e-15 0
1.69592e-13 -1.99821e-13 0
-2.20556e-09 -1.45757e-09 0
-4.06162e-09 -1.85636e-09 0
-4.55696e-09 3.58701e-10 0
-5.5352e-09 1.59862e-09 0
-5.82505e-09 1.34296e-09 0
-5.23139e-09 7.64771e-10 0
-4.41914e-09 4.06984e-10 0
-3.81713e-09 2.19681e-10 0
-3.46026e-09 1.06816e-10 0
-3.26136e-09 3.57945e-11 0
-3.1488e-09 -3.99482e-12 0
-3.08301e-09 -2.19022e-11 0
-3.04376e-09 -2.68179e-11 0
-3.02022e-09 -2.53009e-11 0
-3.00617e-09 -2.13142e-11 0
-2.99785e-09 -1.68966e-11 0
-2.99298e-09 -1.29276e-11 0
-2.99017e-09 -9.68192e-12 0
-2.98855e-09 -7.15825e-12 0
-2.98764e-09 -5.25218e-12 0
-2.98713e-09 -3.83708e-12 0
-2.98685e-09 -2.79703e-12 0
-2.98669e-09 -2.037e-12 0
-2.98661e-09 -1.48329e-12 0
-2.98657e-09 -1.08045e-12 0
-2.98655e-09 -7.87472e-13 0
-2.98654e-09 -5.74339e-13 0
-2.98654e-09 -4.19191e-13 0
-2.98653e-09 -3.06154e-13 0
-2.98653e-09 -2.23714e-13 0
-2.98654e-09 -1.63517e-13 0
-2.98654e-09 -1.195e-13 0
-2.98654e-09 -8.72565e-14 0
-2.98654e-09 -6.35861e-14 0
-2.98654e-09 -4.61512e-14 0
-2.98654e-09 -3.32343e-14 0
-2.98654e-09 -2.35818e-14 0
-2.98654e-09 -1.62951e-14 0
-2.98654e-09 -1.06895e-14 0
-2.98654e-09 -6.06804e-15 0
-2.98654e-09 -1.74537e-15 0
0.00998211 3.46286e-10 0
0 -1.12982e-08 0
1.34951e-14 -1.00746e-09 0
-1.04438e-09 -2.35361e-09 0
-4.40472e-09 -2.43887e-09 0
-6.79605e-09 -1.91307e-09 0
-5.31264e-09 -1.31212e-09 0
-1.57882e-09 -4.91763e-10 0
-1.84397e-13 1.78525e-13 0
-8.93225e-15 8.93225e-15 0
1.48286e-13 -1.90903e-13 0
-1.58399e-09 -1.25296e-10 0
-2.324e-09 1.42334e-09 0
-4.54781e-09 2.89164e-09 0
-6.22448e-09 1.84348e-09 0
-6.01781e-09 5.37099e-10 0
-4.95107e-09 -5.9809e-11 0
-4.05982e-09 -2.10541e-10 0
-3.54935e-09 -2.16684e-10 0
-3.29506e-09 -1.86122e-10 0
-3.1728e-09 -1.47153e-10 0
-3.11387e-09 -1.09786e-10 0
-3.08534e-09 -7.85931e-11 0
-3.07164e-09 -5.4778e-11 0
-3.06523e-09 -3.76125e-11 0
-3.06241e-09 -2.56678e-11 0
-3.06132e-09 -1.75166e-11 0
-3.06103e-09 -1.20016e-11 0
-3.06109e-09 -8.27498e-12 0
-3.06129e-09 -5.74777e-12 0
-3.06151e-09 -4.02292e-12 0
-3.06172e-09 -2.83636e-12 0
-3.06189e-09 -2.01322e-12 0
-3.06203e-09 -1.43748e-12 0
-3.06214e-09 -1.03169e-12 0
-3.06223e-09 -7.43698e-13 0
-3.06229e-09 -5.38067e-13 0
-3.06234e-09 -3.90473e-13 0
-3.06237e-09 -2.8406e-13 0
-3.0624e-09 -2.07042e-13 0
-3.06242e-09 -1.51113e-13 0
-3.06243e-09 -1.10376e-13 0
-3.06244e-09 -8.06182e-14 0
-3.06245e-09 -5.88103e-14 0
-3.06246e-09 -4.27654e-14 0
-3.06246e-09 -3.09023e-14 0
-3.06246e-09 -2.20824e-14 0
-3.06247e-09 -1.55218e-14 0
-3.06247e-09 -1.07014e-14 0
-3.06247e-09 -7.13344e-15 0
-3.06247e-09 -4.12134e-15 0
0.00996988 2.11219e-09 0
0 -8.05114e-09 0
1.34883e-14 -9.84266e-10 0
-1.25382e-09 -2.13458e-09 0
-4.46512e-09 -1.92603e-09 0
-6.54335e-09 -9.93657e-10 0
-5.72656e-09 -4.63162e-10 0
-3.67946e-09 -1.03205e-09 0
-1.90464e-09 -7.86825e-10 0
-1.9306e-13 1.63997e-13 0
1.36015e-13 1.67434e-13 0
-1.50103e-14 3.15062e-10 0
-4.94584e-10 2.90836e-09 0
-2.04122e-09 4.70277e-09 0
-4.54801e-09 2.64446e-09 0
-5.52886e-09 3.06387e-10 0
-4.99206e-09 -5.70653e-10 0
-4.21377e-09 -6.19039e-10 0
-3.73551e-09 -4.75068e-10 0
-3.52549e-09 -3.32809e-10 0
-3.45398e-09 -2.23422e-10 0
-3.43871e-09 -1.45869e-10 0
-3.44215e-09 -9.36873e-11 0
-3.44984e-09 -5.98258e-11 0
-3.45702e-09 -3.83073e-11 0
-3.46257e-09 -2.47413e-11 0
-3.46657e-09 -1.6175e-11 0
-3.46937e-09 -1.07219e-11 0
-3.47131e-09 -7.20858e-12 0
-3.47266e-09 -4.91292e-12 0
-3.47359e-09 -3.39054e-12 0
-3.47424e-09 -2.36619e-12 0
-3.4747e-09 -1.66743e-12 0
-3.47503e-09 -1.1848e-12 0
-3.47526e-09 -8.47744e-13 0
-3.47543e-09 -6.10084e-13 0
-3.47555e-09 -4.41132e-13 0
-3.47564e-09 -3.20189e-13 0
-3.4757e-09 -2.33113e-13 0
-3.47575e-09 -1.70116e-13 0
-3.47578e-09 -1.24353e-13 0
-3.4758e-09 -9.09918e-14 0
-3.47582e-09 -6.65906e-14 0
-3.47583e-09 -4.8686e-14 0
-3.47584e-09 -3.55064e-14 0
-3.47585e-09 -2.57751e-14 0
-3.47585e-09 -1.85748e-14 0
-3.47586e-09 -1.32895e-14 0
-3.47586e-09 -9.65525e-15 0
-3.47586e-09 -7.68686e-15 0
-3.47586e-09 -6.94968e-15 0
0.00987258 3.64982e-09 0
0 -7.20832e-09 0
1.45397e-14 -8.43623e-10 0
-1.76505e-09 -1.82222e-09 0
-4.91584e-09 -1.56179e-09 0
-6.72322e-09 -7.00452e-10 0
-6.16965e-09 -6.07196e-11 0
-4.50338e-09 -4.65573e-10 0
-3.67125e-09 -2.0328e-09 0
-2.08292e-09 -1.51069e-09 0
-3.14631e-09 1.02294e-17 0
-5.45347e-09 8.78332e-10 0
-4.78994e-09 3.10867e-09 0
-1.86889e-09 4.30582e-09 0
-2.19613e-09 2.78723e-09 0
-4.11642e-09 5.66564e-10 0
-4.82706e-09 -4.77016e-10 0
-4.7016e-09 -5.9535e-10 0
-4.53417e-09 -4.31925e-10 0
-4.48855e-09 -2.69437e-10 0
-4.5087e-09 -1.61102e-10 0
-4.54454e-09 -9.62512e-11 0
-4.57614e-09 -5.84636e-11 0
-4.59923e-09 -3.63433e-11 0
-4.61485e-09 -2.31469e-11 0
-4.62509e-09 -1.5078e-11 0
-4.63174e-09 -1.00185e-11 0
-4.63606e-09 -6.77147e-12 0
-4.6389e-09 -4.64432e-12 0
-4.64079e-09 -3.22559e-12 0
-4.64207e-09 -2.26439e-12 0
-4.64294e-09 -1.60417e-12 0
-4.64354e-09 -1.14522e-12 0
-4.64396e-09 -8.22835e-13 0
-4.64425e-09 -5.94352e-13 0
-4.64447e-09 -4.31188e-13 0
-4.64462e-09 -3.13921e-13 0
-4.64473e-09 -2.29193e-13 0
-4.64481e-09 -1.67703e-13 0
-4.64486e-09 -1.22913e-13 0
-4.6449e-09 -9.01859e-14 0
-4.64493e-09 -6.62088e-14 0
-4.64496e-09 -4.85991e-14 0
-4.64497e-09 -3.56364e-14 0
-4.64499e-09 -2.60774e-14 0
-4.64499e-09 -1.90281e-14 0
-4.645e-09 -1.38516e-14 0
-4.645e-09 -1.01168e-14 0
-4.64501e-09 -7.77335e-15 0
-4.64501e-09 -7.60219e-15 0
-4.64501e-09 -1.01485e-14 0
0.00932884 4.30017e-09 0
0 -7.67966e-09 0
1.41272e-14 -4.77949e-10 0
-2.20663e-09 -1.04068e-09 0
-5.0518e-09 -8.61892e-10 0
-6.52469e-09 -4.36158e-10 0
-6.55267e-09 -4.5706e-10 0
-5.5787e-09 -9.91197e-10 0
-4.96805e-09 -1.80103e-09 0
-5.5005e-09 -5.25487e-10 0
-5.52143e-09 2.68183e-09 0
-6.25389e-09 3.36745e-09 0
-4.86596e-09 7.44606e-10 0
-2.525e-09 -1.67762e-09 0
-2.95473e-09 -1.80928e-09 0
-4.91079e-09 -7.4544e-10 0
-5.7594e-09 1.1808e-10 0
-5.68756e-09 3.59851e-10 0
-5.48773e-09 2.71929e-10 0
-5.38766e-09 1.41896e-10 0
-5.36386e-09 5.82079e-11 0
-5.37169e-09 1.74191e-11 0
-5.38738e-09 8.79768e-13 0
-5.40202e-09 -4.47159e-12 0
-5.41337e-09 -5.34661e-12 0
-5.42154e-09 -4.71245e-12 0
-5.42726e-09 -3.74133e-12 0
-5.43121e-09 -2.83804e-12 0
-5.43394e-09 -2.10753e-12 0
-5.43584e-09 -1.54972e-12 0
-5.43717e-09 -1.13476e-12 0
-5.43811e-09 -8.29783e-13 0
-5.43877e-09 -6.06776e-13 0
-5.43925e-09 -4.43989e-13 0
-5.43959e-09 -3.25162e-13 0
-5.43984e-09 -2.38355e-13 0
-5.44002e-09 -1.7487e-13 0
-5.44015e-09 -1.28385e-13 0
-5.44025e-09 -9.43081e-14 0
-5.44032e-09 -6.93e-14 0
-5.44037e-09 -5.09284e-14 0
-5.44041e-09 -3.74185e-14 0
-5.44044e-09 -2.74739e-14 0
-5.44046e-09 -2.01479e-14 0
-5.44047e-09 -1.47487e-14 0
-5.44048e-09 -1.0779e-14 0
-5.44049e-09 -7.89338e-15 0
-5.44049e-09 -5.86342e-15 0
-5.4405e-09 -4.70632e-15 0
-5.4405e-09 -5.38931e-15 0
-5.44051e-09 -9.44523e-15 0
0.0070351 2.77967e-09 0
0 0 0
7.41877e-15 0 0
-1.1412e-09 0 0
-2.41449e-09 0 0
-3.04912e-09 0 0
-3.1851e-09 0 0
-3.17596e-09 0 0
-3.20144e-09 0 0
-3.41759e-09 0 0
-2.37513e-09 0 0
-8.00439e-10 0 0
-1.68031e-10 0 0
-8.6777e-10 0 0
-2.19654e-09 0 0
-3.15361e-09 0 0
-3.33605e-09 0 0
-3.12584e-09 0 0
-2.9024e-09 0 0
-2.77077e-09 0 0
-2.71162e-09 0 0
-2.69074e-09 0 0
-2.68633e-09 0 0
-2.68777e-09 0 0
-2.69069e-09 0 0
-2.6935e-09 0 0
-2.69578e-09 0 0
-2.6975e-09 0 0
-2.69878e-09 0 0
-2.6997e-09 0 0
-2.70037e-09 0 0
-2.70086e-09 0 0
-2.70121e-09 0 0
-2.70147e-09 0 0
-2.70165e-09 0 0
-2.70179e-09 0 0
-2.70189e-09 0 0
-2.70196e-09 0 0
-2.70201e-09 0 0
-2.70205e-09 0 0
-2.70208e-09 0 0
-2.7021e-09 0 0
-2.70212e-09 0 0
-2.70213e-09 0 0
-2.70214e-09 0 0
-2.70214e-09 0 0
-2.70215e-09 0 0
-2.70215e-09 0 0
-2.70215e-09 0 0
-2.70215e-09 0 0
-2.70216e-09 0 0
0.00260001 0 0
0 0 8.49612e-09
3.03558e-14 0 9.60256e-10
-3.21749e-09 0 2.50087e-09
-8.86706e-09 0 1.88882e-09
-1.434e-08 0 -3.5783e-09
-3.86504e-09 0 -6.22637e-09
7.76031e-10 0 -3.65411e-09
2.60453e-09 0 -1.63122e-09
2.35196e-09 0 -9.08736e-12
5.67364e-10 0 5.08513e-10
-1.4204e-09 0 2.67058e-10
-2.86944e-09 0 -7.22488e-11
-3.73189e-09 0 -2.05775e-10
-4.21436e-09 0 -1.74838e-10
-4.51225e-09 0 -9.61978e-11
-4.74572e-09 0 -3.26158e-11
-4.9505e-09 0 2.31754e-12
-5.12273e-09 0 1.54744e-11
-5.25585e-09 0 1.69167e-11
-5.35101e-09 0 1.37845e-11
-5.41478e-09 0 9.79689e-12
-5.45524e-09 0 6.41854e-12
-5.47966e-09 0 3.98157e-12
-5.49364e-09 0 2.37405e-12
-5.50117e-09 0 1.37322e-12
-5.50489e-09 0 7.7513e-13
-5.50646e-09 0 4.28661e-13
-5.50689e-09 0 2.32924e-13
-5.50677e-09 0 1.24673e-13
-5.50642e-09 0 6.59279e-14
-5.506e-09 0 3.45996e-14
-5.50561e-09 0 1.81595e-14
-5.50527e-09 0 9.65594e-15
-5.50499e-09 0 5.30642e-15
-5.50477e-09 0 3.09108e-15
-5.5046e-09 0 1.95197e-15
-5.50447e-09 0 1.34599e-15
-5.50437e-09 0 1.00124e-15
-5.5043e-09 0 7.8497e-16
-5.50424e-09 0 6.34443e-16
-5.5042e-09 0 5.21599e-16
-5.50417e-09 0 4.35355e-16
-5.50415e-09 0 3.73373e-16
-5.50413e-09 0 3.38895e-16
-5.50412e-09 0 3.42612e-16
-5.50411e-09 0 4.05368e-16
-5.50411e-09 0 4.91032e-16
-5.5041e-09 0 5.31816e-16
-5.5041e-09 0 1.61932e-15
-5.50411e-09 0 7.32303e-15
0.00702408 0 -2.32597e-09
0.0036 -3.06697e-10 1.87623e-09
0.0036 -0.00144799 -0.000167477
0.00719837 -0.00458784 -0.00090016
0.0149473 -0.00807143 -0.00266649
0.0265043 -0.0135927 -0.00507282
0.0464089 -0.0100141 -0.00404174
0.0489968 -0.000547485 -0.000914848
0.0484052 0.00333721 0.000478985
0.0431209 0.00526883 0.000841206
0.0374868 0.00506001 0.000389851
0.0324874 0.00408604 -0.000120283
0.0283686 0.00300254 -0.000363421
0.0252518 0.00206187 -0.000359434
0.0230831 0.00135242 -0.000247546
0.0216573 0.000867999 -0.000135592
0.0207497 0.00055179 -6.17712e-05
0.0201856 0.000346912 -2.31252e-05
0.0198425 0.000214672 -6.13837e-06
0.0196385 0.000130385 4.3841e-08
0.0195198 7.76628e-05 1.62939e-06
0.0194523 4.53581e-05 1.58192e-06
0.0194148 2.59637e-05 1.12759e-06
0.0193946 1.45479e-05 6.93176e-07
0.0193842 7.95814e-06 3.82348e-07
0.019379 4.22984e-06 1.88296e-07
0.0193767 2.16586e-06 7.79692e-08
0.0193757 1.05155e-06 2.04548e-08
0.0193755 4.68326e-07 -6.43265e-09
0.0193756 1.7555e-07 -1.67865e-08
0.0193758 3.74591e-08 -1.88923e-08
0.019376 -2.09938e-08 -1.7328e-08
0.0193762 -4.03458e-08 -1.44704e-08
0.0193764 -4.18808e-08 -1.14599e-08
0.0193765 -3.63626e-08 -8.77825e-09
0.0193766 -2.89441e-08 -6.57576e-09
0.0193766 -2.18759e-08 -4.84995e-09
0.0193767 -1.59696e-08 -3.53754e-09
0.0193767 -1.13679e-08 -2.55947e-09
0.0193767 -7.93723e-09 -1.84093e-09
0.0193768 -5.45719e-09 -1.31874e-09
0.0193768 -3.70646e-09 -9.42851e-10
0.0193768 -2.49552e-09 -6.75421e-10
0.0193768 -1.67492e-09 -4.89221e-10
0.0193768 -1.13274e-09 -3.65734e-10
0.0193768 -7.87634e-10 -2.92358e-10
0.0193768 -5.91101e-10 -2.66814e-10
0.0193768 -5.27014e-10 -2.82307e-10
0.0193768 -5.5133e-10 -2.01331e-10
0.0193768 -1.36773e-09 -4.53419e-10
0.0193768 -5.90081e-09 -3.72057e-09
0.0193768 -9.64115e-09 -6.63911e-09
0.01 -1.17535e-10 -1.67259e-08
0.01 -0.00334067 -0.000624249
0.0150441 -0.010749 -0.00167584
0.0240477 -0.0184702 -0.00334775
0.0369887 -0.0293539 -0.00439334
0.0563325 -0.0202754 -0.00123774
0.0546534 -0.00129416 0.00194055
0.0549356 0.00584282 0.00234027
0.0493997 0.0107377 0.00209903
0.0436999 0.0106622 0.00103951
0.038806 0.00933188 3.46605e-06
0.0346393 0.00749303 -0.000501165
0.0314648 0.00548986 -0.00055349
0.0293325 0.00372006 -0.000398543
0.0279872 0.00239608 -0.000223783
0.0271645 0.00149704 -0.000103963
0.0266745 0.000914559 -3.98257e-05
0.0263909 0.000547456 -1.10014e-05
0.0262319 0.000321201 -1.43923e-07
0.0261457 0.000184617 2.87823e-06
0.026101 0.000103798 2.99109e-06
0.0260789 5.69176e-05 2.29023e-06
0.026069 3.02759e-05 1.54476e-06
0.0260651 1.547e-05 9.70513e-07
0.0260642 7.45187e-06 5.82099e-07
0.0260646 3.24777e-06 3.37563e-07
0.0260654 1.13861e-06 1.90566e-07
0.0260663 1.49527e-07 1.05082e-07
0.0260671 -2.61131e-07 5.66405e-08
0.0260677 -3.87386e-07 2.97909e-08
0.0260682 -3.84381e-07 1.52137e-08
0.0260686 -3.30951e-07 7.46728e-09
0.0260689 -2.64992e-07 3.45086e-09
0.0260691 -2.03097e-07 1.43284e-09
0.0260692 -1.51217e-07 4.63203e-10
0.0260693 -1.1032e-07 2.96845e-11
0.0260694 -7.92885e-08 -1.38972e-10
0.0260695 -5.63435e-08 -1.83389e-10
0.0260695 -3.96896e-08 -1.74557e-10
0.0260695 -2.77705e-08 -1.47104e-10
0.0260695 -1.93357e-08 -1.17232e-10
0.0260696 -1.34259e-08 -9.22685e-11
0.0260696 -9.32873e-09 -7.58351e-11
0.0260696 -6.53114e-09 -7.0747e-11
0.0260696 -4.67735e-09 -7.62789e-11
0.0260696 -3.53563e-09 -8.52937e-11
0.0260696 -3.13359e-09 -1.03192e-10
0.0260696 -4.06379e-09 -4.28776e-11
0.0260696 -6.76897e-09 -5.53056e-10
0.0260696 -1.10232e-08 -5.14838e-09
0.0260696 -1.34897e-08 -9.15946e-09
0.0148 -1.45325e-08 -2.16385e-08
0.0148 -0.00546317 -0.0011423
0.0197524 -0.0163797 -0.00307952
0.0258242 -0.0271904 -0.00509168
0.0302129 -0.0419511 -0.00514103
0.0287098 -0.0256775 -0.00079945
0.026105 -1.68567e-07 0.00215018
0.02627 0.00760716 0.00224964
0.0308835 0.0158656 0.00217174
0.0310775 0.015562 0.00123481
0.0297579 0.0134243 0.000291621
0.0285243 0.0107147 -0.000256561
0.027731 0.00767244 -0.000381793
0.0274517 0.00502201 -0.00029462
0.0274073 0.00313486 -0.000160245
0.027435 0.00190618 -6.20007e-05
0.0274796 0.00113379 -1.08185e-05
0.0275252 0.000658943 8.88325e-06
0.0275661 0.000373587 1.30183e-05
0.0276 0.000206158 1.12542e-05
0.0276263 0.000110277 8.13699e-06
0.0276457 5.67183e-05 5.36052e-06
0.0276595 2.76001e-05 3.33346e-06
0.0276691 1.22687e-05 1.99236e-06
0.0276757 4.52843e-06 1.1563e-06
0.0276802 8.56232e-07 6.55533e-07
0.0276831 -7.07489e-07 3.64201e-07
0.0276851 -1.2273e-06 1.9852e-07
0.0276865 -1.26583e-06 1.06074e-07
0.0276873 -1.11008e-06 5.53808e-08
0.0276879 -8.99179e-07 2.80626e-08
0.0276884 -6.9518e-07 1.3623e-08
0.0276886 -5.21448e-07 6.16978e-09
0.0276888 -3.83032e-07 2.44441e-09
0.0276889 -2.77126e-07 6.70039e-10
0.027689 -1.98241e-07 -1.08437e-10
0.0276891 -1.40581e-07 -3.96177e-10
0.0276891 -9.90142e-08 -4.55084e-10
0.0276892 -6.93648e-08 -4.17384e-10
0.0276892 -4.83944e-08 -3.47339e-10
0.0276892 -3.367e-08 -2.74445e-10
0.0276892 -2.34054e-08 -2.11041e-10
0.0276892 -1.63139e-08 -1.6112e-10
0.0276892 -1.14893e-08 -1.24018e-10
0.0276892 -8.34331e-09 -9.74442e-11
0.0276892 -6.59314e-09 -8.89143e-11
0.0276892 -6.08562e-09 -1.40994e-10
0.0276892 -6.55392e-09 -2.44667e-10
0.0276892 -7.83744e-09 -1.10944e-09
0.0276892 -9.66421e-09 -5.81934e-09
0.0276892 -1.0641e-08 -9.71847e-09
0.018 -3.1088e-08 -2.52563e-08
0.018 -0.00658676 -0.00196492
0.0201224 -0.017543 -0.00536631
0.0199104 -0.0228385 -0.00692595
0.0159133 -0.024751 -0.0066932
-1.8792e-08 -0.0128689 -0.00316866
1.58284e-06 5.1564e-07 1.02419e-08
-6.04046e-07 6.36017e-07 0.000428721
0.0074111 0.00515806 0.000872645
0.0155389 0.0115595 0.000737713
0.0189122 0.0120076 0.000352636
0.0205152 0.00976802 -4.77615e-05
0.0222487 0.00678719 -0.000238172
0.0239772 0.00419164 -0.000215003
0.0253623 0.00248592 -0.000114013
0.0263291 0.00144948 -2.9588e-05
0.0269579 0.000825764 1.37532e-05
0.0273544 0.0004543 2.65531e-05
0.0276008 0.000238941 2.46581e-05
0.0277523 0.000118599 1.83355e-05
0.0278446 5.40962e-05 1.21765e-05
0.0279002 2.11379e-05 7.54684e-06
0.0279334 5.31434e-06 4.46325e-06
0.0279531 -1.57509e-06 2.5496e-06
0.0279648 -4.02685e-06 1.41605e-06
0.0279717 -4.41968e-06 7.66703e-07
0.0279757 -3.96351e-06 4.04371e-07
0.0279781 -3.24333e-06 2.06751e-07
0.0279795 -2.52083e-06 1.01348e-07
0.0279803 -1.89683e-06 4.65195e-08
0.0279808 -1.39643e-06 1.88919e-08
0.0279811 -1.01223e-06 5.59583e-09
0.0279813 -7.25417e-07 -3.35527e-10
0.0279814 -5.15401e-07 -2.60796e-09
0.0279815 -3.63733e-07 -3.15358e-09
0.0279815 -2.55327e-07 -2.95409e-09
0.0279816 -1.78454e-07 -2.49021e-09
0.0279816 -1.24282e-07 -1.98396e-09
0.0279816 -8.63049e-08 -1.52736e-09
0.0279816 -5.98012e-08 -1.14984e-09
0.0279816 -4.13863e-08 -8.52708e-10
0.0279816 -2.86581e-08 -6.26406e-10
0.0279816 -1.99334e-08 -4.59348e-10
0.0279816 -1.40552e-08 -3.42729e-10
0.0279816 -1.02251e-08 -2.74177e-10
0.0279816 -7.84825e-09 -2.77471e-10
0.0279816 -6.46899e-09 -4.09406e-10
0.0279816 -5.72489e-09 -6.05806e-10
0.0279816 -5.44183e-09 -1.55212e-09
0.0279816 -5.43702e-09 -6.0445e-09
0.0279816 -5.45943e-09 -9.68037e-09
0.0196 -3.94347e-08 -4.05019e-08
0.0196 -0.00521849 -0.00277569
0.0190933 -0.0118209 -0.0067744
0.0162631 -0.0142425 -0.00729671
0.0115934 -0.0127639 -0.00644791
0.00239865 -0.00512373 -0.00397835
1.2008e-06 -1.10647e-06 -0.000828401
5.02422e-07 -5.02422e-07 -7.27038e-10
-5.87337e-07 6.20755e-07 0.000116845
0.0051247 0.00388372 0.000243269
0.0115032 0.00842472 0.000193937
0.0142746 0.00747407 -4.03829e-05
0.0176746 0.00435487 -0.000269081
0.0210325 0.00202335 -0.000284949
0.023678 0.000841871 -0.000181503
0.025451 0.000325885 -6.81563e-05
0.0265351 0.000101883 -6.49906e-07
0.027172 3.06362e-06 2.32371e-05
0.02754 -3.62765e-05 2.44155e-05
0.0277506 -4.63243e-05 1.83211e-05
0.02787 -4.32212e-05 1.18822e-05
0.027937 -3.55249e-05 7.09544e-06
0.0279743 -2.73085e-05 4.01244e-06
0.0279948 -2.01836e-05 2.17719e-06
0.028006 -1.45606e-05 1.13862e-06
0.0280121 -1.03446e-05 5.72287e-07
0.0280153 -7.27778e-06 2.73056e-07
0.028017 -5.08785e-06 1.19918e-07
0.0280179 -3.54216e-06 4.45326e-08
0.0280183 -2.45919e-06 9.45583e-09
0.0280185 -1.70399e-06 -5.34204e-09
0.0280186 -1.17897e-06 -1.03432e-08
0.0280186 -8.14746e-07 -1.09042e-08
0.0280186 -5.62442e-07 -9.68053e-09
0.0280186 -3.87875e-07 -7.93143e-09
0.0280186 -2.67216e-07 -6.2111e-09
0.0280186 -1.83902e-07 -4.72895e-09
0.0280185 -1.26434e-07 -3.53411e-09
0.0280185 -8.68414e-08 -2.60763e-09
0.0280185 -5.96056e-08 -1.90706e-09
0.0280185 -4.09095e-08 -1.38697e-09
0.0280185 -2.81179e-08 -1.00767e-09
0.0280185 -1.94103e-08 -7.39126e-10
0.0280185 -1.35198e-08 -5.63277e-10
0.0280185 -9.55515e-09 -4.71796e-10
0.0280185 -6.87886e-09 -4.72369e-10
0.0280185 -5.00887e-09 -6.04414e-10
0.0280185 -3.52391e-09 -7.89104e-10
0.0280185 -2.11399e-09 -1.7115e-09
0.0280185 -6.06084e-10 -6.05802e-09
0.0280185 1.90154e-10 -9.56067e-09
0.0196 -1.97192e-08 -5.42865e-08
0.0196 -0.0031424 -0.00310917
0.0190358 -0.00659965 -0.00683495
0.017789 -0.00617851 -0.00686294
0.0142169 -0.00253958 -0.00566336
0.0104142 0.00356806 -0.00410611
0.00658514 0.0033864 -0.00193646
1.2014e-06 -1.01154e-06 -0.000356607
4.24202e-07 -4.24202e-07 -2.01672e-09
-5.67741e-07 6.06932e-07 3.16916e-05
0.00387477 0.0028264 0.000334703
0.00849242 0.00365989 0.000367049
0.0141328 0.000195343 -8.44561e-05
0.01928 -0.00164673 -0.000352669
0.0230804 -0.001828 -0.000339503
0.0254041 -0.00136567 -0.00019052
0.0266628 -0.000890597 -6.70959e-05
0.0273127 -0.000559926 -9.11489e-06
0.0276453 -0.000350657 7.90727e-06
0.0278152 -0.000219785 9.06478e-06
0.0279015 -0.000137741 6.37586e-06
0.0279447 -8.6346e-05 3.7692e-06
0.027966 -5.42418e-05 2.01771e-06
0.0279761 -3.42215e-05 9.97663e-07
0.0279807 -2.17245e-05 4.50747e-07
0.0279825 -1.38941e-05 1.75683e-07
0.0279831 -8.95791e-06 4.63177e-08
0.0279831 -5.8224e-06 -8.96627e-09
0.0279829 -3.81378e-06 -2.84899e-08
0.0279827 -2.51579e-06 -3.18753e-08
0.0279824 -1.66992e-06 -2.87629e-08
0.0279822 -1.11432e-06 -2.36595e-08
0.0279821 -7.46814e-07 -1.85181e-08
0.0279819 -5.02239e-07 -1.40691e-08
0.0279818 -3.38641e-07 -1.04879e-08
0.0279818 -2.28757e-07 -7.7202e-09
0.0279817 -1.54716e-07 -5.634e-09
0.0279817 -1.0471e-07 -4.08699e-09
0.0279817 -7.08881e-08 -2.95264e-09
0.0279817 -4.79978e-08 -2.128e-09
0.0279816 -3.25088e-08 -1.53367e-09
0.0279816 -2.2036e-08 -1.11111e-09
0.0279816 -1.49584e-08 -8.19288e-10
0.0279816 -1.01646e-08 -6.31169e-10
0.0279816 -6.87825e-09 -5.30234e-10
0.0279816 -4.53692e-09 -5.20592e-10
0.0279816 -2.69719e-09 -6.44223e-10
0.0279816 -9.09961e-10 -8.11858e-10
0.0279816 1.31582e-09 -1.67358e-09
0.0279816 4.2045e-09 -5.94962e-09
0.0279816 5.80931e-09 -9.42851e-09
0.018 -1.22492e-08 -5.32546e-08
0.018 -0.00148376 -0.00305697
0.0185273 -0.00245973 -0.00649104
0.0190011 -0.000861829 -0.00609957
0.0185685 0.00208441 -0.00468449
0.0185449 0.00769848 -0.00337378
0.0190221 0.0127428 -0.00192449
0.0117323 0.00701456 -0.000857591
1.22938e-06 -7.93693e-07 -0.00028784
-4.58844e-07 -9.10747e-07 8.03107e-09
1.24259e-07 -0.000194643 0.000886642
0.00945484 -0.00288529 0.00137162
0.0171373 -0.00629746 0.000555145
0.0221018 -0.00667711 -0.000102188
0.0250701 -0.00507257 -0.000353806
0.0266353 -0.00314101 -0.000285299
0.0273409 -0.00176357 -0.00014821
0.0276175 -0.000970775 -6.04565e-05
0.0277104 -0.000541104 -2.14044e-05
0.0277326 -0.000306456 -7.00264e-06
0.0277307 -0.000175729 -2.25011e-06
0.0277224 -0.000101821 -7.94017e-07
0.0277139 -5.96107e-05 -3.6533e-07
0.027707 -3.5288e-05 -2.30598e-07
0.0277018 -2.11378e-05 -1.72567e-07
0.027698 -1.28175e-05 -1.34021e-07
0.0276954 -7.86803e-06 -1.02711e-07
0.0276935 -4.8876e-06 -7.69459e-08
0.0276922 -3.07045e-06 -5.65162e-08
0.0276913 -1.94885e-06 -4.09183e-08
0.0276907 -1.24836e-06 -2.93463e-08
0.0276902 -8.06027e-07 -2.09281e-08
0.0276899 -5.23896e-07 -1.4881e-08
0.0276897 -3.42345e-07 -1.05695e-08
0.0276896 -2.24627e-07 -7.50765e-09
0.0276894 -1.47816e-07 -5.33682e-09
0.0276894 -9.74464e-08 -3.798e-09
0.0276893 -6.42936e-08 -2.70661e-09
0.0276893 -4.24182e-08 -1.93216e-09
0.0276893 -2.79641e-08 -1.38294e-09
0.0276893 -1.84076e-08 -9.94966e-10
0.0276892 -1.20845e-08 -7.24203e-10
0.0276892 -7.88613e-09 -5.41487e-10
0.0276892 -5.06166e-09 -4.29122e-10
0.0276892 -3.08449e-09 -3.77003e-10
0.0276892 -1.55958e-09 -3.9277e-10
0.0276892 -1.54706e-10 -5.23739e-10
0.0276892 1.53876e-09 -6.7246e-10
0.0276892 4.26105e-09 -1.41296e-09
0.0276892 8.44567e-09 -5.62386e-09
0.0276892 1.08895e-08 -9.13974e-09
0.0148 -7.49479e-09 -4.61328e-08
0.0148 -0.000580136 -0.00286313
0.0165993 -0.000406184 -0.00583023
0.0189303 0.00150556 -0.0051152
0.0211004 0.00430463 -0.00368249
0.0232167 0.0075889 -0.00273614
0.0266905 0.012671 -0.00184972
0.0297563 0.0199732 -0.00100234
0.0241525 0.011918 -0.00013312
0.024606 1.45758e-14 0.000521202
0.0284835 -0.00704038 0.00156853
0.033409 -0.0140549 0.00247361
0.0342183 -0.0125728 0.00189279
0.0323196 -0.00939801 0.000733355
0.0299821 -0.00610673 -0.000175569
0.0283033 -0.00345431 -0.000410144
0.0273167 -0.001781 -0.000289873
0.0267706 -0.000892476 -0.000145668
0.0264693 -0.000453058 -6.30108e-05
0.0263009 -0.000236207 -2.55002e-05
0.0262056 -0.000126488 -1.00455e-05
0.0261507 -6.93271e-05 -3.93356e-06
0.0261187 -3.87525e-05 -1.55067e-06
0.0260998 -2.20285e-05 -6.1999e-07
0.0260884 -1.27056e-05 -2.51513e-07
0.0260815 -7.42348e-06 -1.02352e-07
0.0260772 -4.38772e-06 -4.04327e-08
0.0260745 -2.62049e-06 -1.42527e-08
0.0260728 -1.57955e-06 -3.22407e-09
0.0260717 -9.59734e-07 1.18532e-09
0.026071 -5.86981e-07 2.66356e-09
0.0260705 -3.60794e-07 2.86864e-09
0.0260702 -2.2247e-07 2.56483e-09
0.02607 -1.37331e-07 2.10427e-09
0.0260699 -8.467e-08 1.64273e-09
0.0260698 -5.19952e-08 1.24133e-09
0.0260697 -3.16982e-08 9.16418e-10
0.0260697 -1.9104e-08 6.64486e-10
0.0260696 -1.13178e-08 4.74416e-10
0.0260696 -6.53403e-09 3.33292e-10
0.0260696 -3.61932e-09 2.28816e-10
0.0260696 -1.85586e-09 1.49961e-10
0.0260696 -7.82206e-10 8.66104e-11
0.0260696 -9.19192e-11 2.87887e-11
0.0260696 4.34605e-10 -3.25391e-11
0.0260696 9.84757e-10 -1.14344e-10
0.0260696 1.75227e-09 -2.62898e-10
0.0260696 3.02442e-09 -3.9727e-10
0.0260696 5.70686e-09 -9.9808e-10
0.0260696 1.05696e-08 -4.99184e-09
0.0260696 1.35585e-08 -8.4199e-09
0.01 -1.44795e-08 -4.11777e-08
0.01 -0.000352323 -0.00240486
0.0119524 -1.41902e-05 -0.0045907
0.0149052 0.00131395 -0.00361543