# vtk DataFile Version 2.0
Tobias Weinzierl: CPU, Manycore and Cluster Computing
ASCII

DATASET STRUCTURED_POINTS
DIMENSIONS  51 11 6

ORIGIN 0 0 0 

SPACING 0.1 0.1 0.1 

POINT_DATA 3366

VECTORS velocity float
0 0 0
-6.13345e-15 0 0
-5.43353e-09 0 0
-7.90517e-09 0 0
-6.79192e-09 0 0
-1.88238e-09 0 0
-1.4692e-09 0 0
-2.98061e-09 0 0
-4.79248e-09 0 0
-5.99865e-09 0 0
-6.29301e-09 0 0
-6.17052e-09 0 0
-6.00915e-09 0 0
-5.92307e-09 0 0
-5.91477e-09 0 0
-5.95435e-09 0 0
-6.01108e-09 0 0
-6.06604e-09 0 0
-6.11131e-09 0 0
-6.14545e-09 0 0
-6.16987e-09 0 0
-6.18676e-09 0 0
-6.19822e-09 0 0
-6.20589e-09 0 0
-6.21101e-09 0 0
-6.21441e-09 0 0
-6.21668e-09 0 0
-6.21821e-09 0 0
-6.21923e-09 0 0
-6.21993e-09 0 0
-6.22041e-09 0 0
-6.22073e-09 0 0
-6.22096e-09 0 0
-6.22112e-09 0 0
-6.22122e-09 0 0
-6.2213e-09 0 0
-6.22135e-09 0 0
-6.22139e-09 0 0
-6.22141e-09 0 0
-6.22143e-09 0 0
-6.22144e-09 0 0
-6.22145e-09 0 0
-6.22146e-09 0 0
-6.22146e-09 0 0
-6.22146e-09 0 0
-6.22147e-09 0 0
-6.22147e-09 0 0
-6.22147e-09 0 0
-6.22147e-09 0 0
-6.22148e-09 0 0
0.00328285 0 0
0 7.74019e-09 0
1.21518e-14 3.25641e-09 0
-1.07128e-08 4.89147e-09 0
-1.55452e-08 2.49558e-09 0
-1.23632e-08 7.03928e-10 0
-3.58553e-09 1.12162e-09 0
-2.11341e-09 2.9584e-09 0
-3.85687e-09 2.97736e-09 0
-5.8431e-09 2.17423e-09 0
-7.90159e-09 1.19251e-09 0
-8.64375e-09 3.60741e-10 0
-8.8434e-09 3.64093e-11 0
-9.07616e-09 -4.52902e-12 0
-9.38796e-09 3.50031e-11 0
-9.72994e-09 7.97112e-11 0
-1.00523e-08 1.0273e-10 0
-1.0321e-08 1.0226e-10 0
-1.05259e-08 8.80645e-11 0
-1.06728e-08 6.94306e-11 0
-1.07739e-08 5.17232e-11 0
-1.08415e-08 3.71164e-11 0
-1.08859e-08 2.59836e-11 0
-1.09148e-08 1.79043e-11 0
-1.09336e-08 1.22229e-11 0
-1.09458e-08 8.3071e-12 0
-1.09537e-08 5.64056e-12 0
-1.0959e-08 3.8358e-12 0
-1.09625e-08 2.61652e-12 0
-1.09648e-08 1.79177e-12 0
-1.09664e-08 1.23207e-12 0
-1.09675e-08 8.50549e-13 0
-1.09682e-08 5.89219e-13 0
-1.09688e-08 4.09347e-13 0
-1.09691e-08 2.84995e-13 0
-1.09694e-08 1.98699e-13 0
-1.09696e-08 1.38631e-13 0
-1.09697e-08 9.67268e-14 0
-1.09698e-08 6.74505e-14 0
-1.09698e-08 4.69827e-14 0
-1.09699e-08 3.26732e-14 0
-1.09699e-08 2.26759e-14 0
-1.09699e-08 1.57004e-14 0
-1.097e-08 1.08428e-14 0
-1.097e-08 7.47351e-15 0
-1.097e-08 5.16118e-15 0
-1.097e-08 3.60944e-15 0
-1.097e-08 2.62793e-15 0
-1.097e-08 2.5462e-15 0
-1.097e-08 6.83175e-15 0
-1.097e-08 2.39782e-14 0
0.00831752 -6.76379e-09 0
0 1.0838e-09 0
7.05333e-14 4.18971e-09 0
-9.12161e-09 5.3603e-09 0
-1.33073e-08 1.59243e-09 0
-7.31419e-09 9.10472e-10 0
-2.69201e-09 1.71958e-09 0
-3.80183e-09 2.43645e-09 0
-5.49698e-09 8.24869e-10 0
-4.94063e-09 -4.47925e-11 0
-5.03609e-09 9.23464e-10 0
-5.10682e-09 1.47098e-09 0
-5.20805e-09 1.8633e-09 0
-5.66048e-09 1.79999e-09 0
-6.18769e-09 1.43261e-09 0
-6.69859e-09 1.05455e-09 0
-7.14182e-09 7.53989e-10 0
-7.4867e-09 5.27663e-10 0
-7.73379e-09 3.61868e-10 0
-7.9011e-09 2.43796e-10 0
-8.01028e-09 1.61955e-10 0
-8.07997e-09 1.06534e-10 0
-8.12394e-09 6.96878e-11 0
-8.15162e-09 4.55142e-11 0
-8.16911e-09 2.97849e-11 0
-8.18027e-09 1.95868e-11 0
-8.18748e-09 1.29716e-11 0
-8.19221e-09 8.66335e-12 0
-8.19536e-09 5.8387e-12 0
-8.19749e-09 3.97077e-12 0
-8.19894e-09 2.72352e-12 0
-8.19996e-09 1.88233e-12 0
-8.20066e-09 1.30949e-12 0
-8.20116e-09 9.15902e-13 0
-8.20152e-09 6.43343e-13 0
-8.20177e-09 4.53345e-13 0
-8.20195e-09 3.20184e-13 0
-8.20208e-09 2.26466e-13 0
-8.20217e-09 1.60302e-13 0
-8.20224e-09 1.1349e-13 0
-8.20229e-09 8.03249e-14 0
-8.20232e-09 5.68162e-14 0
-8.20235e-09 4.0159e-14 0
-8.20237e-09 2.83806e-14 0
-8.20238e-09 2.01024e-14 0
-8.20239e-09 1.44102e-14 0
-8.2024e-09 1.08594e-14 0
-8.2024e-09 9.60164e-15 0
-8.20241e-09 1.12861e-14 0
-8.20241e-09 1.56136e-14 0
-8.20242e-09 2.25343e-14 0
0.0103552 -7.20761e-09 0
0 -8.61072e-09 0
1.10928e-13 2.51968e-09 0
-7.5092e-09 1.25083e-09 0
-1.20402e-08 -3.65503e-09 0
-5.57466e-09 -2.21789e-09 0
-9.88866e-10 1.68265e-10 0
-3.15764e-09 -2.09102e-14 0
-4.62073e-09 -3.92975e-09 0
-9.32684e-09 -6.8009e-09 0
-8.46127e-09 -3.42422e-09 0
-7.51956e-09 4.68345e-10 0
-6.85705e-09 2.63684e-09 0
-6.50126e-09 2.9904e-09 0
-6.23598e-09 2.37881e-09 0
-6.16423e-09 1.70668e-09 0
-6.23145e-09 1.18167e-09 0
-6.3388e-09 7.97447e-10 0
-6.43369e-09 5.26833e-10 0
-6.50234e-09 3.42678e-10 0
-6.54757e-09 2.20767e-10 0
-6.57609e-09 1.41653e-10 0
-6.59384e-09 9.09652e-11 0
-6.60497e-09 5.86998e-11 0
-6.6121e-09 3.81825e-11 0
-6.6168e-09 2.50893e-11 0
-6.61998e-09 1.66732e-11 0
-6.62219e-09 1.12094e-11 0
-6.62375e-09 7.62068e-12 0
-6.62487e-09 5.23406e-12 0
-6.62568e-09 3.62714e-12 0
-6.62626e-09 2.53253e-12 0
-6.62669e-09 1.77908e-12 0
-6.627e-09 1.25576e-12 0
-6.62723e-09 8.89561e-13 0
-6.6274e-09 6.31764e-13 0
-6.62752e-09 4.49436e-13 0
-6.62761e-09 3.20038e-13 0
-6.62767e-09 2.27979e-13 0
-6.62772e-09 1.62382e-13 0
-6.62775e-09 1.15602e-13 0
-6.62777e-09 8.2237e-14 0
-6.62779e-09 5.84585e-14 0
-6.6278e-09 4.15565e-14 0
-6.62781e-09 2.96289e-14 0
-6.62782e-09 2.13454e-14 0
-6.62782e-09 1.5752e-14 0
-6.62783e-09 1.21773e-14 0
-6.62783e-09 1.03446e-14 0
-6.62783e-09 1.06735e-14 0
-6.62783e-09 1.33975e-14 0
0.010674 -4.90229e-09 0
0 -1.65796e-08 0
1.04356e-13 3.70406e-10 0
-7.74932e-09 -1.87746e-09 0
-1.32024e-08 -4.56624e-09 0
-9.19568e-09 -2.71912e-09 0
-2.98993e-14 -4.00788e-10 0
-3.87792e-13 -4.23929e-13 0
3.6101e-13 -4.20378e-13 0
-5.43683e-09 -3.92748e-09 0
-9.657e-09 -5.67451e-09 0
-8.82829e-09 -1.27736e-09 0
-8.75758e-09 1.81847e-09 0
-8.43722e-09 2.51806e-09 0
-7.6647e-09 2.05376e-09 0
-7.04308e-09 1.53088e-09 0
-6.69157e-09 1.09552e-09 0
-6.51338e-09 7.47682e-10 0
-6.42239e-09 4.9162e-10 0
-6.37336e-09 3.16379e-10 0
-6.34553e-09 2.01992e-10 0
-6.32935e-09 1.29224e-10 0
-6.32001e-09 8.33986e-11 0
-6.31478e-09 5.4517e-11 0
-6.31203e-09 3.61611e-11 0
-6.31072e-09 2.43408e-11 0
-6.31022e-09 1.66094e-11 0
-6.31015e-09 1.14699e-11 0
-6.31027e-09 8.0001e-12 0
-6.31046e-09 5.62477e-12 0
-6.31066e-09 3.9793e-12 0
-6.31085e-09 2.82828e-12 0
-6.31101e-09 2.0169e-12 0
-6.31114e-09 1.44155e-12 0
-6.31124e-09 1.03179e-12 0
-6.31131e-09 7.39039e-13 0
-6.31137e-09 5.29455e-13 0
-6.31141e-09 3.79215e-13 0
-6.31144e-09 2.71447e-13 0
-6.31147e-09 1.94134e-13 0
-6.31148e-09 1.38684e-13 0
-6.3115e-09 9.89375e-14 0
-6.31151e-09 7.04718e-14 0
-6.31151e-09 5.01017e-14 0
-6.31152e-09 3.5524e-14 0
-6.31152e-09 2.50877e-14 0
-6.31152e-09 1.76543e-14 0
-6.31152e-09 1.2479e-14 0
-6.31152e-09 9.1054e-15 0
-6.31152e-09 7.46295e-15 0
-6.31152e-09 7.30691e-15 0
0.0107097 -2.28167e-09 0
0 -1.47452e-08 0
9.53327e-14 -8.29227e-10 0
-7.86425e-09 -2.57106e-09 0
-1.37306e-08 -3.82746e-09 0
-1.15533e-08 -3.82502e-09 0
-3.63341e-09 -1.7394e-09 0
-3.79291e-13 3.65959e-13 0
-4.94972e-15 4.94972e-15 0
3.3737e-13 -3.8465e-13 0
-4.32889e-09 -2.2587e-09 0
-6.42645e-09 -1.52928e-09 0
-8.82589e-09 2.35868e-09 0
-9.98346e-09 2.66789e-09 0
-9.16675e-09 1.67762e-09 0
-8.04084e-09 1.06635e-09 0
-7.27145e-09 7.09945e-10 0
-6.83126e-09 4.63938e-10 0
-6.58819e-09 2.96483e-10 0
-6.45285e-09 1.89049e-10 0
-6.37643e-09 1.22399e-10 0
-6.3329e-09 8.11985e-11 0
-6.30802e-09 5.52718e-11 0
-6.29381e-09 3.8473e-11 0
-6.28571e-09 2.7238e-11 0
-6.2811e-09 1.95096e-11 0
-6.2785e-09 1.40764e-11 0
-6.27703e-09 1.01983e-11 0
-6.27621e-09 7.40331e-12 0
-6.27575e-09 5.37745e-12 0
-6.27549e-09 3.9048e-12 0
-6.27535e-09 2.8331e-12 0
-6.27527e-09 2.05318e-12 0
-6.27523e-09 1.48599e-12 0
-6.2752e-09 1.07394e-12 0
-6.27519e-09 7.74971e-13 0
-6.27518e-09 5.58363e-13 0
-6.27518e-09 4.01655e-13 0
-6.27517e-09 2.88451e-13 0
-6.27517e-09 2.06795e-13 0
-6.27517e-09 1.47979e-13 0
-6.27517e-09 1.05671e-13 0
-6.27517e-09 7.52656e-14 0
-6.27517e-09 5.3424e-14 0
-6.27517e-09 3.77297e-14 0
-6.27517e-09 2.64262e-14 0
-6.27517e-09 1.82167e-14 0
-6.27517e-09 1.21453e-14 0
-6.27517e-09 7.57322e-15 0
-6.27516e-09 4.20475e-15 0
-6.27517e-09 1.76035e-15 0
0.0107126 2.71745e-10 0
0 -1.0503e-08 0
8.93563e-14 -1.5501e-09 0
-7.43569e-09 -3.36346e-09 0
-1.35002e-08 -2.92182e-09 0
-1.2139e-08 -2.1065e-09 0
-7.981e-09 -2.69589e-09 0
-3.3623e-09 -1.69784e-09 0
-3.81897e-13 3.50021e-13 0
-1.26518e-14 1.26518e-14 0
3.16699e-13 -3.5804e-13 0
-2.36164e-09 2.58266e-09 0
-8.07619e-09 5.40027e-09 0
-1.1988e-08 3.77007e-09 0
-1.10892e-08 1.14067e-09 0
-8.98812e-09 2.26964e-10 0
-7.62697e-09 5.49384e-11 0
-6.95516e-09 2.82707e-11 0
-6.63872e-09 2.43755e-11 0
-6.48539e-09 2.56308e-11 0
-6.40791e-09 2.70696e-11 0
-6.36715e-09 2.67297e-11 0
-6.34486e-09 2.45596e-11 0
-6.3322e-09 2.12774e-11 0
-6.32474e-09 1.76303e-11 0
-6.3202e-09 1.41314e-11 0
-6.31734e-09 1.10501e-11 0
-6.3155e-09 8.4814e-12 0
-6.31428e-09 6.41824e-12 0
-6.31345e-09 4.80415e-12 0
-6.31289e-09 3.5653e-12 0
-6.3125e-09 2.62794e-12 0
-6.31222e-09 1.92636e-12 0
-6.31203e-09 1.40567e-12 0
-6.31189e-09 1.0218e-12 0
-6.31179e-09 7.40322e-13 0
-6.31172e-09 5.34829e-13 0
-6.31166e-09 3.85364e-13 0
-6.31163e-09 2.76992e-13 0
-6.3116e-09 1.98628e-13 0
-6.31158e-09 1.42095e-13 0
-6.31157e-09 1.01389e-13 0
-6.31156e-09 7.21226e-14 0
-6.31155e-09 5.10914e-14 0
-6.31154e-09 3.59544e-14 0
-6.31154e-09 2.4985e-14 0
-6.31154e-09 1.68713e-14 0
-6.31153e-09 1.05619e-14 0
-6.31153e-09 5.23337e-15 0
-6.31153e-09 3.7863e-16 0
-6.31153e-09 -4.09405e-15 0
0.0107097 2.78845e-09 0
0 -7.61776e-09 0
7.25654e-14 -2.08968e-09 0
-7.26305e-09 -3.78991e-09 0
-1.27991e-08 -2.53228e-09 0
-1.18531e-08 -1.27413e-09 0
-8.76294e-09 -1.42357e-09 0
-7.03503e-09 -3.65774e-09 0
-4.60031e-09 -2.67626e-09 0
-3.98861e-13 3.01182e-13 0
2.89752e-13 2.58718e-13 0
2.40079e-14 5.28724e-09 0
-5.43982e-09 1.0211e-08 0
-1.10791e-08 5.6539e-09 0
-1.13673e-08 1.1484e-10 0
-9.23554e-09 -1.08871e-09 0
-7.7182e-09 -7.17045e-10 0
-7.04059e-09 -3.62244e-10 0
-6.78682e-09 -1.729e-10 0
-6.69798e-09 -7.52348e-11 0
-6.66679e-09 -2.49448e-11 0
-6.65452e-09 -5.69647e-13 0
-6.64822e-09 9.74213e-12 0
-6.64392e-09 1.28425e-11 0
-6.6405e-09 1.25607e-11 0
-6.63769e-09 1.09205e-11 0
-6.6354e-09 8.92412e-12 0
-6.63357e-09 7.025e-12 0
-6.63214e-09 5.39613e-12 0
-6.63105e-09 4.07505e-12 0
-6.63022e-09 3.03973e-12 0
-6.62959e-09 2.24662e-12 0
-6.62913e-09 1.64865e-12 0
-6.62878e-09 1.20301e-12 0
-6.62853e-09 8.73773e-13 0
-6.62834e-09 6.32186e-13 0
-6.6282e-09 4.55865e-13 0
-6.6281e-09 3.27743e-13 0
-6.62803e-09 2.34986e-13 0
-6.62797e-09 1.68039e-13 0
-6.62794e-09 1.19849e-13 0
-6.62791e-09 8.52344e-14 0
-6.62789e-09 6.04073e-14 0
-6.62787e-09 4.26017e-14 0
-6.62786e-09 2.97922e-14 0
-6.62786e-09 2.04763e-14 0
-6.62785e-09 1.34879e-14 0
-6.62785e-09 7.7964e-15 0
-6.62784e-09 2.34075e-15 0
-6.62784e-09 -3.88428e-15 0
-6.62784e-09 -1.09077e-14 0
0.0106739 5.28046e-09 0
0 -7.09972e-09 0
5.09063e-14 -2.25448e-09 0
-7.56333e-09 -3.86426e-09 0
-1.23996e-08 -2.20238e-09 0
-1.20377e-08 -8.61749e-10 0
-9.85952e-09 -7.89371e-10 0
-7.84403e-09 -1.97083e-09 0
-8.36235e-09 -5.30029e-09 0
-6.86458e-09 -3.84968e-09 0
-9.4796e-09 -6.80174e-19 0
-9.83906e-09 5.19943e-09 0
-6.26821e-09 1.10407e-08 0
-5.82218e-09 6.84672e-09 0
-7.71407e-09 1.46298e-12 0
-8.24084e-09 -1.77044e-09 0
-8.15334e-09 -1.11061e-09 0
-8.11456e-09 -4.72828e-10 0
-8.14332e-09 -1.69342e-10 0
-8.18085e-09 -4.79462e-11 0
-8.206e-09 -2.95447e-12 0
-8.21829e-09 1.18695e-11 0
-8.22217e-09 1.50948e-11 0
-8.2216e-09 1.41035e-11 0
-8.21913e-09 1.1827e-11 0
-8.21612e-09 9.4078e-12 0
-8.21325e-09 7.25828e-12 0
-8.21077e-09 5.49069e-12 0
-8.20875e-09 4.09714e-12 0
-8.20716e-09 3.0268e-12 0
-8.20594e-09 2.21902e-12 0
-8.20501e-09 1.61699e-12 0
-8.20432e-09 1.17248e-12 0
-8.20381e-09 8.46638e-13 0
-8.20343e-09 6.09153e-13 0
-8.20315e-09 4.3688e-13 0
-8.20294e-09 3.12407e-13 0
-8.2028e-09 2.22779e-13 0
-8.20269e-09 1.58436e-13 0
-8.20261e-09 1.1237e-13 0
-8.20256e-09 7.94693e-14 0
-8.20251e-09 5.60184e-14 0
-8.20249e-09 3.93243e-14 0
-8.20246e-09 2.74322e-14 0
-8.20245e-09 1.8915e-14 0
-8.20244e-09 1.27114e-14 0
-8.20243e-09 7.98577e-15 0
-8.20243e-09 3.92379e-15 0
-8.20242e-09 -7.08471e-16 0
-8.20242e-09 -8.19665e-15 0
-8.20243e-09 -2.00189e-14 0
0.0103552 7.30423e-09 0
0 -7.83772e-09 0
3.02813e-14 -1.51247e-09 0
-7.91557e-09 -2.54685e-09 0
-1.22624e-08 -1.43988e-09 0
-1.27615e-08 -7.3629e-10 0
-1.21831e-08 -1.07669e-09 0
-1.09744e-08 -1.83466e-09 0
-1.01133e-08 -1.73048e-09 0
-1.22887e-08 2.17189e-09 0
-1.27211e-08 4.31725e-09 0
-1.27305e-08 -4.49483e-10 0
-9.65355e-09 -3.97669e-09 0
-8.72301e-09 -2.344e-09 0
-1.0586e-08 2.76385e-10 0
-1.14394e-08 1.22762e-09 0
-1.13761e-08 1.02248e-09 0
-1.1201e-08 5.91933e-10 0
-1.10992e-08 2.96394e-10 0
-1.10514e-08 1.42867e-10 0
-1.10278e-08 7.07359e-11 0
-1.10137e-08 3.73529e-11 0
-1.10037e-08 2.13018e-11 0
-1.09959e-08 1.30213e-11 0
-1.09897e-08 8.3877e-12 0
-1.09849e-08 5.59676e-12 0
-1.09811e-08 3.81797e-12 0
-1.09782e-08 2.63937e-12 0
-1.0976e-08 1.83866e-12 0
-1.09744e-08 1.28617e-12 0
-1.09732e-08 9.01346e-13 0
-1.09723e-08 6.31856e-13 0
-1.09716e-08 4.4259e-13 0
-1.09712e-08 3.09517e-13 0
-1.09708e-08 2.15962e-13 0
-1.09706e-08 1.50253e-13 0
-1.09704e-08 1.04179e-13 0
-1.09703e-08 7.19432e-14 0
-1.09702e-08 4.94506e-14 0
-1.09701e-08 3.38052e-14 0
-1.09701e-08 2.29599e-14 0
-1.09701e-08 1.54672e-14 0
-1.097e-08 1.03042e-14 0
-1.097e-08 6.74443e-15 0
-1.097e-08 4.2626e-15 0
-1.097e-08 2.4616e-15 0
-1.097e-08 1.00658e-15 0
-1.097e-08 -4.89319e-16 0
-1.097e-08 -2.96668e-15 0
-1.097e-08 -9.86941e-15 0
-1.097e-08 -2.6463e-14 0
0.00831751 6.48067e-09 0
0 0 0
1.22409e-14 0 0
-3.96138e-09 0 0
-6.06281e-09 0 0
-6.62725e-09 0 0
-6.7389e-09 0 0
-6.80306e-09 0 0
-6.35125e-09 0 0
-5.42417e-09 0 0
-3.24152e-09 0 0
-2.89141e-09 0 0
-5.13916e-09 0 0
-7.44594e-09 0 0
-8.16531e-09 0 0
-7.72455e-09 0 0
-7.08139e-09 0 0
-6.65171e-09 0 0
-6.42953e-09 0 0
-6.32541e-09 0 0
-6.2773e-09 0 0
-6.25411e-09 0 0
-6.24199e-09 0 0
-6.23505e-09 0 0
-6.23074e-09 0 0
-6.22791e-09 0 0
-6.22598e-09 0 0
-6.22464e-09 0 0
-6.2237e-09 0 0
-6.22304e-09 0 0
-6.22257e-09 0 0
-6.22224e-09 0 0
-6.222e-09 0 0
-6.22184e-09 0 0
-6.22173e-09 0 0
-6.22165e-09 0 0
-6.22159e-09 0 0
-6.22155e-09 0 0
-6.22152e-09 0 0
-6.22151e-09 0 0
-6.22149e-09 0 0
-6.22149e-09 0 0
-6.22148e-09 0 0
-6.22148e-09 0 0
-6.22147e-09 0 0
-6.22147e-09 0 0
-6.22147e-09 0 0
-6.22147e-09 0 0
-6.22147e-09 0 0
-6.22148e-09 0 0
-6.22149e-09 0 0
0.00328285 0 0
0 0 7.80823e-09
3.22324e-14 0 2.17712e-09
-1.14892e-08 0 3.0137e-09
-1.78229e-08 0 -1.13719e-09
-1.68052e-08 0 -6.72672e-09
-8.3285e-10 0 -6.44434e-09
2.28153e-09 0 -1.86017e-09
4.49423e-10 0 3.45923e-10
-2.60151e-09 0 8.43807e-10
-5.17476e-09 0 3.08014e-10
-6.65939e-09 0 -1.88869e-10
-7.63048e-09 0 -3.20261e-10
-8.41146e-09 0 -2.42922e-10
-9.04419e-09 0 -1.29391e-10
-9.55323e-09 0 -4.8437e-11
-9.96068e-09 0 -6.41179e-12
-1.02753e-08 0 9.43841e-12
-1.05072e-08 0 1.2162e-11
-1.06712e-08 0 9.97549e-12
-1.07836e-08 0 6.83471e-12
-1.08589e-08 0 4.19714e-12
-1.09086e-08 0 2.36517e-12
-1.09411e-08 0 1.22298e-12
-1.09623e-08 0 5.64741e-13
-1.09762e-08 0 2.11532e-13
-1.09853e-08 0 3.68735e-14
-1.09913e-08 0 -3.95727e-14
-1.09953e-08 0 -6.5363e-14
-1.0998e-08 0 -6.71137e-14
-1.09998e-08 0 -5.89451e-14
-1.10011e-08 0 -4.7894e-14
-1.1002e-08 0 -3.71654e-14
-1.10026e-08 0 -2.79913e-14
-1.1003e-08 0 -2.06519e-14
-1.10033e-08 0 -1.50124e-14
-1.10035e-08 0 -1.07921e-14
-1.10036e-08 0 -7.69146e-15
-1.10037e-08 0 -5.44408e-15
-1.10038e-08 0 -3.83009e-15
-1.10039e-08 0 -2.67758e-15
-1.10039e-08 0 -1.85701e-15
-1.10039e-08 0 -1.27002e-15
-1.1004e-08 0 -8.4151e-16
-1.1004e-08 0 -5.12854e-16
-1.1004e-08 0 -2.38511e-16
-1.1004e-08 0 -1.32313e-17
-1.1004e-08 0 9.4074e-17
-1.1004e-08 0 3.57852e-16
-1.1004e-08 0 4.14541e-15
-1.1004e-08 0 2.03069e-14
0.00831474 0 -5.67925e-09
0.0036 4.89308e-09 4.2889e-09
0.00359999 -0.00239658 -0.000865464
0.00895174 -0.00633839 -0.00236509
0.0181551 -0.00904274 -0.00336858
0.0298251 -0.0117108 -0.00370349
0.0465505 -0.00736757 -0.00216656
0.0481332 3.97475e-05 -0.000176606
0.0474255 0.00305743 0.000452134
0.0420559 0.00461111 0.000343152
0.0365776 0.00435893 -7.28427e-05
0.0318192 0.00355446 -0.000262534
0.0280871 0.00264076 -0.000248269
0.025464 0.00181929 -0.000165768
0.0237614 0.00118698 -9.06689e-05
0.0227046 0.000747691 -4.27978e-05
0.0220675 0.000458652 -1.77292e-05
0.021693 0.000274711 -6.35106e-06
0.0214783 0.000160875 -1.81738e-06
0.0213583 9.21977e-05 -2.80864e-07
0.0212931 5.1718e-05 1.01055e-07
0.0212588 2.83669e-05 1.10502e-07
0.0212415 1.5172e-05 4.00476e-08
0.0212333 7.87072e-06 -2.0032e-08
0.0212299 3.92152e-06 -5.31925e-08
0.0212288 1.84159e-06 -6.47282e-08
0.0212287 7.82652e-07 -6.32972e-08
0.0212291 2.68408e-07 -5.56542e-08
0.0212295 3.6518e-08 -4.5987e-08
0.02123 -5.45213e-08 -3.65185e-08
0.0212304 -7.91671e-08 -2.82329e-08
0.0212307 -7.53744e-08 -2.14236e-08
0.0212309 -6.16506e-08 -1.60422e-08
0.0212311 -4.6414e-08 -1.18981e-08
0.0212312 -3.30322e-08 -8.76307e-09
0.0212313 -2.24735e-08 -6.42118e-09
0.0212313 -1.46619e-08 -4.68749e-09
0.0212314 -9.14271e-09 -3.41251e-09
0.0212314 -5.38863e-09 -2.47956e-09
0.0212314 -2.92565e-09 -1.7997e-09
0.0212314 -1.37253e-09 -1.30641e-09
0.0212314 -4.41756e-10 -9.50849e-10
0.0212314 7.39303e-11 -6.98088e-10
0.0212314 3.18329e-10 -5.24328e-10
0.0212314 3.86786e-10 -4.14976e-10
0.0212314 3.35357e-10 -3.64351e-10
0.0212314 1.79973e-10 -3.74753e-10
0.0212315 -7.79018e-11 -3.99943e-10
0.0212315 -4.85015e-10 -2.96565e-10
0.0212315 -2.76169e-09 -1.40974e-09
0.0212315 -1.19784e-08 -8.68142e-09
0.0212315 -1.91721e-08 -1.47325e-08
0.01 4.97951e-09 -7.27005e-09
0.01 -0.00460788 -0.00154496
0.0155373 -0.0127271 -0.00378785
0.0246905 -0.018645 -0.00466255
0.0363901 -0.0260479 -0.0039638
0.0549437 -0.0167459 -0.000987
0.0541072 -0.000438266 0.00130451
0.0547264 0.00615117 0.00151612
0.0484674 0.0108945 0.00101105
0.0419339 0.0103688 8.81792e-05
0.0366669 0.00864539 -0.000379586
0.0326744 0.00647814 -0.000393936
0.0300529 0.00440325 -0.000266148
0.0284959 0.0028007 -0.000145252
0.0276054 0.00171306 -6.75043e-05
0.027109 0.00101929 -2.69369e-05
0.0268405 0.000591726 -8.69807e-06
0.0267004 0.000335256 -1.57777e-06
0.0266306 0.000185161 6.86705e-07
0.0265982 9.93659e-05 1.09068e-06
0.0265848 5.14694e-05 9.1131e-07
0.0265806 2.5398e-05 6.30013e-07
0.0265806 1.16186e-05 3.95674e-07
0.0265823 4.60661e-06 2.33648e-07
0.0265843 1.22747e-06 1.3161e-07
0.0265862 -2.60377e-07 7.10117e-08
0.0265878 -8.03438e-07 3.65517e-08
0.0265891 -9.03104e-07 1.7675e-08
0.02659 -8.16459e-07 7.72026e-09
0.0265907 -6.69402e-07 2.70597e-09
0.0265913 -5.19242e-07 3.41245e-10
0.0265916 -3.88668e-07 -6.52368e-10
0.0265919 -2.83783e-07 -9.68834e-10
0.0265921 -2.03406e-07 -9.74055e-10
0.0265922 -1.43696e-07 -8.5429e-10
0.0265923 -1.0031e-07 -6.99809e-10
0.0265924 -6.93058e-08 -5.51022e-10
0.0265925 -4.74435e-08 -4.23386e-10
0.0265925 -3.22003e-08 -3.20601e-10
0.0265925 -2.16809e-08 -2.41443e-10
0.0265925 -1.44963e-08 -1.83288e-10
0.0265925 -9.64874e-09 -1.43936e-10
0.0265925 -6.43593e-09 -1.22619e-10
0.0265925 -4.37841e-09 -1.20226e-10
0.0265925 -3.17064e-09 -1.38086e-10
0.0265926 -2.69041e-09 -1.77761e-10
0.0265926 -3.237e-09 -2.10794e-10
0.0265926 -5.78055e-09 -1.19402e-10
0.0265926 -1.06917e-08 -1.63442e-09
0.0265926 -1.75223e-08 -1.07574e-08
0.0265926 -2.13784e-08 -1.82665e-08
0.0148 -1.3247e-08 -9.38213e-09
0.0148 -0.00632488 -0.00210664
0.0192019 -0.0171834 -0.00522021
0.0250165 -0.0254798 -0.00609896
0.0288155 -0.0380646 -0.00440078
0.0275764 -0.0234436 -0.00074002
0.026075 -1.59498e-07 0.0012727
0.026651 0.00838108 0.00137098
0.0318071 0.017282 0.00116488
0.0312528 0.0162803 0.000414964
0.0294482 0.0130209 -0.000102065
0.0280826 0.00942816 -0.000247442
0.0273702 0.00610918 -0.000198529
0.0271397 0.00369454 -0.00011257
0.0271106 0.00216228 -4.73052e-05
0.0271549 0.0012344 -1.26449e-05
0.0272183 0.000686663 1.37789e-06
0.027278 0.000371172 5.18599e-06
0.0273259 0.000193982 5.00212e-06
0.0273615 9.70344e-05 3.73092e-06
0.0273867 4.54915e-05 2.47516e-06
0.027404 1.9026e-05 1.5339e-06
0.0274156 6.0686e-06 9.08534e-07
0.0274234 1.82257e-07 5.2053e-07
0.0274287 -2.13557e-06 2.9027e-07
0.0274321 -2.74544e-06 1.57913e-07
0.0274345 -2.60731e-06 8.37221e-08
0.027436 -2.19727e-06 4.3043e-08
0.0274371 -1.73756e-06 2.12201e-08
0.0274378 -1.32129e-06 9.79706e-09
0.0274383 -9.78688e-07 4.00232e-09
0.0274386 -7.11442e-07 1.19249e-09
0.0274389 -5.09947e-07 -7.2452e-11
0.027439 -3.61519e-07 -5.6371e-10
0.0274391 -2.54009e-07 -6.86281e-10
0.0274392 -1.77125e-07 -6.47613e-10
0.0274392 -1.22695e-07 -5.50306e-10
0.0274393 -8.44846e-08 -4.42414e-10
0.0274393 -5.78558e-08 -3.44415e-10
0.0274393 -3.94266e-08 -2.63468e-10
0.0274393 -2.67657e-08 -2.00885e-10
0.0274393 -1.81487e-08 -1.55966e-10
0.0274393 -1.23724e-08 -1.27874e-10
0.0274394 -8.62734e-09 -1.16832e-10
0.0274394 -6.43196e-09 -1.27571e-10
0.0274394 -5.58437e-09 -1.76092e-10
0.0274394 -5.947e-09 -2.64446e-10
0.0274394 -7.30732e-09 -3.33217e-10
0.0274394 -9.76033e-09 -2.09066e-09
0.0274394 -1.32927e-08 -1.10064e-08
0.0274394 -1.52732e-08 -1.81817e-08
0.018 -3.07135e-08 -1.56978e-08
0.018 -0.00671606 -0.00286506
0.0196024 -0.0171279 -0.0071174
0.0198616 -0.0211703 -0.00747574
0.0161844 -0.0224923 -0.00528427
-1.26848e-08 -0.011734 -0.00206089
1.67717e-06 6.21284e-07 6.28183e-09
-6.89327e-07 7.34133e-07 0.000239849
0.00829647 0.00601981 0.000474961
0.0171364 0.0126976 0.000378462
0.0201459 0.0119106 0.000142903
0.0216316 0.0086701 -6.96372e-05
0.0232644 0.00543061 -0.000125109
0.0246946 0.0031078 -7.96205e-05
0.0257287 0.00171821 -2.6686e-05
0.0264171 0.000917332 2.14421e-06
0.0268562 0.000468358 1.15286e-05
0.0271285 0.000225625 1.15974e-05
0.0272938 9.95975e-05 8.75913e-06
0.0273927 3.71354e-05 5.80273e-06
0.0274512 8.05296e-06 3.56161e-06
0.0274856 -4.1542e-06 2.07785e-06
0.0275058 -8.21995e-06 1.16727e-06
0.0275176 -8.62322e-06 6.35112e-07
0.0275245 -7.57946e-06 3.34847e-07
0.0275286 -6.13109e-06 1.7018e-07
0.027531 -4.72972e-06 8.22385e-08
0.0275325 -3.54018e-06 3.6613e-08
0.0275333 -2.59576e-06 1.37986e-08
0.0275339 -1.87526e-06 2.99469e-09
0.0275342 -1.33972e-06 -1.66115e-09
0.0275344 -9.48819e-07 -3.28903e-09
0.0275345 -6.67232e-07 -3.51306e-09
0.0275346 -4.66421e-07 -3.15471e-09
0.0275347 -3.24347e-07 -2.61248e-09
0.0275347 -2.24481e-07 -2.06691e-09
0.0275347 -1.54676e-07 -1.58957e-09
0.0275347 -1.06125e-07 -1.2e-09
0.0275348 -7.25185e-08 -8.94936e-10
0.0275348 -4.93704e-08 -6.62737e-10
0.0275348 -3.35176e-08 -4.90366e-10
0.0275348 -2.27472e-08 -3.66693e-10
0.0275348 -1.55282e-08 -2.84357e-10
0.0275348 -1.08158e-08 -2.41675e-10
0.0275348 -7.89026e-09 -2.48003e-10
0.0275348 -6.23117e-09 -3.33217e-10
0.0275348 -5.47571e-09 -4.92404e-10
0.0275348 -5.37114e-09 -6.0006e-10
0.0275348 -5.90256e-09 -2.32634e-09
0.0275348 -6.99649e-09 -1.09168e-08
0.0275348 -7.64142e-09 -1.77972e-08
0.0196 -3.64495e-08 -3.24164e-08
0.0196 -0.00495068 -0.00351168
0.0190601 -0.0111976 -0.00825568
0.0168634 -0.0128105 -0.00790495
0.0126409 -0.0107874 -0.00531765
0.00305507 -0.00422389 -0.00265614
1.28759e-06 -1.19175e-06 -0.000499411
5.02428e-07 -5.02428e-07 -8.79547e-10
-6.66086e-07 7.12569e-07 4.76101e-05
0.00600556 0.00434433 0.000114671
0.012669 0.00851169 9.11363e-05
0.0157279 0.00635327 -5.64388e-05
0.0194537 0.00310363 -0.000160266
0.0225707 0.00126707 -0.000118381
0.0246498 0.000453848 -4.67842e-05
0.025903 0.000108035 -3.82356e-06
0.0266267 -2.83784e-05 1.10005e-05
0.0270361 -7.0641e-05 1.20855e-05
0.0272648 -7.35304e-05 9.01768e-06
0.0273913 -6.25723e-05 5.76177e-06
0.0274608 -4.8781e-05 3.37873e-06
0.0274988 -3.63165e-05 1.87111e-06
0.0275193 -2.63305e-05 9.89647e-07
0.0275304 -1.8788e-05 4.99915e-07
0.0275363 -1.32734e-05 2.38265e-07
0.0275394 -9.31748e-06 1.03501e-07
0.0275411 -6.51241e-06 3.69867e-08
0.0275419 -4.5378e-06 6.10153e-09
0.0275423 -3.15434e-06 -6.77889e-09
0.0275425 -2.18819e-06 -1.09434e-08
0.0275425 -1.51507e-06 -1.11643e-08
0.0275426 -1.04702e-06 -9.8172e-09
0.0275426 -7.22112e-07 -8.03154e-09
0.0275426 -4.96956e-07 -6.30427e-09
0.0275425 -3.41196e-07 -4.82162e-09
0.0275425 -2.33647e-07 -3.62475e-09
0.0275425 -1.5954e-07 -2.69309e-09
0.0275425 -1.08599e-07 -1.98471e-09
0.0275425 -7.36794e-08 -1.45495e-09
0.0275425 -4.98236e-08 -1.06412e-09
0.0275425 -3.35978e-08 -7.80257e-10
0.0275425 -2.26285e-08 -5.79824e-10
0.0275425 -1.52753e-08 -4.48071e-10
0.0275425 -1.04003e-08 -3.79588e-10
0.0275425 -7.20626e-09 -3.79181e-10
0.0275425 -5.11586e-09 -4.65117e-10
0.0275425 -3.67871e-09 -6.22272e-10
0.0275425 -2.51531e-09 -7.14705e-10
0.0275425 -1.43426e-09 -2.40296e-09
0.0275425 -3.92388e-10 -1.08543e-08
0.0275425 1.2581e-10 -1.76205e-08
0.0196 -1.952e-08 -4.63911e-08
0.0196 -0.00270278 -0.00374216
0.0191782 -0.00554419 -0.00825731
0.0183598 -0.00496441 -0.00761695
0.0154705 -0.00151482 -0.00491859
0.0116085 0.00427719 -0.00278487
0.00706085 0.00366903 -0.00120129
1.28922e-06 -1.09429e-06 -0.000233257
4.28203e-07 -4.28203e-07 -1.90456e-09
-6.38157e-07 6.94015e-07 1.25358e-05
0.00434036 0.00217167 0.00022836
0.00962272 0.0019211 0.000173419
0.0163065 -0.00133811 -0.00019083
0.0214994 -0.00203329 -0.000249139
0.0245021 -0.00158962 -0.000139585
0.0260277 -0.00105433 -4.73601e-05
0.0267845 -0.000667176 -7.51412e-06
0.0271628 -0.000416372 3.46276e-06
0.0273529 -0.000258851 4.41914e-06
0.0274482 -0.000161073 3.10257e-06
0.0274955 -0.000100671 1.80122e-06
0.0275185 -6.33603e-05 9.36159e-07
0.0275294 -4.02255e-05 4.40455e-07
0.0275342 -2.57826e-05 1.80306e-07
0.0275361 -1.66858e-05 5.35774e-08
0.0275366 -1.08986e-05 -2.77792e-09
0.0275366 -7.17858e-06 -2.41008e-08
0.0275363 -4.76292e-06 -2.90739e-08
0.027536 -3.17944e-06 -2.71296e-08
0.0275357 -2.1327e-06 -2.28072e-08
0.0275355 -1.43578e-06 -1.81532e-08
0.0275353 -9.69005e-07 -1.39887e-08
0.0275352 -6.54918e-07 -1.05602e-08
0.027535 -4.42841e-07 -7.864e-09
0.027535 -2.99308e-07 -5.80172e-09
0.0275349 -2.0204e-07 -4.25247e-09
0.0275349 -1.36101e-07 -3.10279e-09
0.0275348 -9.14263e-08 -2.25708e-09
0.0275348 -6.12043e-08 -1.63941e-09
0.0275348 -4.08092e-08 -1.1917e-09
0.0275348 -2.70933e-08 -8.71175e-10
0.0275348 -1.79087e-08 -6.47829e-10
0.0275348 -1.17841e-08 -5.02608e-10
0.0275348 -7.70146e-09 -4.26309e-10
0.0275348 -4.93939e-09 -4.21142e-10
0.0275348 -2.95663e-09 -5.05098e-10
0.0275348 -1.28832e-09 -6.61689e-10
0.0275348 5.5756e-10 -7.40565e-10
0.0275348 3.03583e-09 -2.3933e-09
0.0275348 6.17795e-09 -1.0844e-08
0.0275348 7.87544e-09 -1.76319e-08
0.018 -1.19213e-08 -4.65155e-08
0.018 -0.00089259 -0.00365951
0.0187679 -0.00121563 -0.00779472
0.0198326 0.000208266 -0.00687608
0.0197897 0.00267334 -0.00431533
0.0196547 0.00790417 -0.00245868
0.0199523 0.0130984 -0.00126593
0.0123292 0.00733626 -0.00057979
1.32004e-06 -8.68536e-07 -0.000198031
-5.20551e-07 -9.81308e-07 8.48654e-09
1.26487e-07 -0.00117922 0.000759578
0.00970186 -0.00564092 0.000910036
0.0180346 -0.00867028 -7.74308e-07
0.0233347 -0.00681759 -0.000297285
0.0258999 -0.00401145 -0.000216813
0.0269241 -0.0021502 -9.65584e-05
0.0272983 -0.00115742 -3.38875e-05
0.0274275 -0.00063897 -1.03782e-05
0.0274666 -0.000360092 -2.86099e-06
0.0274736 -0.000206168 -7.14097e-07
0.02747 -0.000119739 -1.82335e-07
0.0274638 -7.054e-05 -8.19945e-08
0.0274579 -4.21625e-05 -7.31826e-08
0.027453 -2.55697e-05 -7.21405e-08
0.0274492 -1.57291e-05 -6.5331e-08
0.0274464 -9.80772e-06 -5.46655e-08
0.0274444 -6.19252e-06 -4.33223e-08
0.0274429 -3.95392e-06 -3.31398e-08
0.0274419 -2.54908e-06 -2.47823e-08
0.0274411 -1.65658e-06 -1.82674e-08
0.0274406 -1.08338e-06 -1.33442e-08
0.0274402 -7.11779e-07 -9.69374e-09
0.02744 -4.69025e-07 -7.01838e-09
0.0274398 -3.09485e-07 -5.07157e-09
0.0274397 -2.04176e-07 -3.66096e-09
0.0274396 -1.34473e-07 -2.64151e-09
0.0274395 -8.82793e-08 -1.90596e-09
0.0274395 -5.76742e-08 -1.37605e-09
0.0274394 -3.74325e-08 -9.95235e-10
0.0274394 -2.40873e-08 -7.23154e-10
0.0274394 -1.53273e-08 -5.31667e-10
0.0274394 -9.60292e-09 -4.02193e-10
0.0274394 -5.86635e-09 -3.24189e-10
0.0274394 -3.39525e-09 -2.94578e-10
0.0274394 -1.66934e-09 -3.19666e-10
0.0274394 -2.77754e-10 -4.21381e-10
0.0274394 1.17645e-09 -5.88512e-10
0.0274394 3.26178e-09 -6.5909e-10
0.0274394 6.88928e-09 -2.25869e-09
0.0274394 1.23375e-08 -1.08262e-08
0.0274394 1.54487e-08 -1.77716e-08
0.0148 -8.45025e-09 -4.07092e-08
0.0148 7.17865e-05 -0.00343316
0.0171539 0.000876858 -0.00698148
0.0202457 0.00241199 -0.00578585
0.0227045 0.00456981 -0.00353311
0.0246359 0.00749133 -0.00217759
0.0277521 0.0126635 -0.00136732
0.0308601 0.0205801 -0.000746361
0.0251451 0.012445 -8.42203e-05
0.0264169 1.50742e-14 0.000589903
0.0312634 -0.00778732 0.00169851
0.0352387 -0.0163931 0.00190253
0.0336798 -0.0149179 0.000597214
0.0308408 -0.00975724 -0.000209042
0.0289019 -0.00507949 -0.000312249
0.0278522 -0.00240559 -0.000177328
0.0273004 -0.00115238 -7.48288e-05
0.0270019 -0.000578477 -2.80028e-05
0.0268348 -0.000303025 -9.93168e-06
0.0267389 -0.000163845 -3.40743e-06
0.0266825 -9.07236e-05 -1.12325e-06
0.0266488 -5.1205e-05 -3.39353e-07
0.0266282 -2.93797e-05 -7.70109e-08
0.0266155 -1.7109e-05 5.97297e-09
0.0266075 -1.01004e-05 2.80662e-08
0.0266024 -6.03853e-06 3.01243e-08
0.0265991 -3.65152e-06 2.62061e-08
0.0265969 -2.23016e-06 2.11004e-08
0.0265955 -1.37328e-06 1.63649e-08
0.0265946 -8.50855e-07 1.24221e-08
0.0265939 -5.29186e-07 9.29841e-09
0.0265935 -3.295e-07 6.89188e-09
0.0265932 -2.04769e-07 5.07076e-09
0.026593 -1.26548e-07 3.70978e-09
0.0265928 -7.74223e-08 2.702e-09
0.0265928 -4.66111e-08 1.9609e-09
0.0265927 -2.73758e-08 1.4187e-09
0.0265926 -1.54697e-08 1.02337e-09
0.0265926 -8.19903e-09 7.35439e-10
0.0265926 -3.84679e-09 5.25053e-10
0.0265926 -1.31348e-09 3.69357e-10
0.0265926 1.09496e-10 2.50178e-10
0.0265926 8.85873e-10 1.51879e-10
0.0265926 1.33185e-09 5.92875e-11
0.0265926 1.68633e-09 -4.56425e-11
0.0265926 2.16847e-09 -1.90969e-10
0.0265926 3.03779e-09 -3.74667e-10
0.0265926 4.81649e-09 -4.51286e-10
0.0265926 9.00087e-09 -1.96155e-09
0.0265926 1.67085e-08 -1.05484e-08
0.0265926 2.1442e-08 -1.76052e-08
0.01 -1.51704e-08 -3.75876e-08
0.01 0.000111046 -0.00290941
0.0130355 0.000813279 -0.00548871
0.0169615 0.0018226 -0.00409146
0.0206929 0.00316555 -0.00237513
0.0249103 0.00574635 -0.00162562
0.0302425 0.00843024 -0.00155398
0.038881 0.010583 -0.00119035
0.0514612 0.00445952 -5.03606e-05
0.0512588 -0.00644828 0.0009463
0.0509671 -0.0106584 0.00145942