# vtk DataFile Version 2.0
Tobias Weinzierl: CPU, Manycore and Cluster Computing
ASCII

DATASET STRUCTURED_POINTS
DIMENSIONS  51 11 6

ORIGIN 0 0 0 

SPACING 0.1 0.1 0.1 

POINT_DATA 3366

VECTORS velocity float
0 0 0
4.319e-15 0 0
-1.42627e-09 0 0
-3.64483e-09 0 0
-4.8973e-09 0 0
-1.63435e-09 0 0
-3.28957e-10 0 0
1.48206e-10 0 0
-1.21693e-10 0 0
-1.06113e-09 0 0
-1.97577e-09 0 0
-2.45734e-09 0 0
-2.55029e-09 0 0
-2.46725e-09 0 0
-2.36865e-09 0 0
-2.3176e-09 0 0
-2.31263e-09 0 0
-2.33223e-09 0 0
-2.35847e-09 0 0
-2.38197e-09 0 0
-2.39961e-09 0 0
-2.41146e-09 0 0
-2.41874e-09 0 0
-2.42284e-09 0 0
-2.4249e-09 0 0
-2.42575e-09 0 0
-2.42593e-09 0 0
-2.42578e-09 0 0
-2.42549e-09 0 0
-2.42518e-09 0 0
-2.42488e-09 0 0
-2.42463e-09 0 0
-2.42442e-09 0 0
-2.42426e-09 0 0
-2.42413e-09 0 0
-2.42404e-09 0 0
-2.42396e-09 0 0
-2.42391e-09 0 0
-2.42387e-09 0 0
-2.42384e-09 0 0
-2.42382e-09 0 0
-2.4238e-09 0 0
-2.42379e-09 0 0
-2.42378e-09 0 0
-2.42377e-09 0 0
-2.42377e-09 0 0
-2.42377e-09 0 0
-2.42377e-09 0 0
-2.42376e-09 0 0
-2.42377e-09 0 0
0.00253857 0 0
0 6.9577e-09 0
1.94939e-14 6.1344e-10 0
-2.51763e-09 1.34064e-09 0
-6.82216e-09 1.37885e-09 0
-8.57107e-09 9.63364e-10 0
-3.26112e-09 1.20132e-09 0
-1.54738e-09 1.83539e-09 0
-8.34517e-10 1.62232e-09 0
-5.82877e-10 1.42213e-09 0
-1.62154e-09 1.41471e-09 0
-3.04056e-09 1.09115e-09 0
-3.93832e-09 5.91316e-10 0
-4.2272e-09 1.86971e-10 0
-4.23325e-09 -1.16582e-11 0
-4.23263e-09 -4.89014e-11 0
-4.31495e-09 -1.82839e-11 0
-4.45246e-09 1.52858e-11 0
-4.59664e-09 3.13697e-11 0
-4.71823e-09 3.27257e-11 0
-4.80837e-09 2.68492e-11 0
-4.86958e-09 1.91459e-11 0
-4.9084e-09 1.22704e-11 0
-4.93158e-09 7.08642e-12 0
-4.94456e-09 3.57799e-12 0
-4.9513e-09 1.40411e-12 0
-4.95439e-09 1.73687e-13 0
-4.95549e-09 -4.44464e-13 0
-4.95557e-09 -6.94156e-13 0
-4.95519e-09 -7.39414e-13 0
-4.95466e-09 -6.83031e-13 0
-4.95411e-09 -5.85279e-13 0
-4.95363e-09 -4.78949e-13 0
-4.95323e-09 -3.80123e-13 0
-4.95291e-09 -2.95315e-13 0
-4.95266e-09 -2.25929e-13 0
-4.95247e-09 -1.70906e-13 0
-4.95232e-09 -1.28201e-13 0
-4.95221e-09 -9.55569e-14 0
-4.95213e-09 -7.0876e-14 0
-4.95207e-09 -5.23639e-14 0
-4.95203e-09 -3.85565e-14 0
-4.952e-09 -2.82959e-14 0
-4.95197e-09 -2.06851e-14 0
-4.95196e-09 -1.50396e-14 0
-4.95194e-09 -1.08358e-14 0
-4.95194e-09 -7.66373e-15 0
-4.95193e-09 -5.22395e-15 0
-4.95193e-09 -3.2474e-15 0
-4.95193e-09 -4.52573e-16 0
-4.95193e-09 6.34753e-15 0
0.0069105 -2.78928e-09 0
0 2.77638e-10 0
3.61203e-14 6.96758e-10 0
-1.17616e-09 6.37914e-10 0
-4.65668e-09 -1.17618e-09 0
-4.66613e-09 -1.61178e-09 0
-9.52038e-10 8.00645e-10 0
-1.93407e-09 2.76261e-09 0
-2.2238e-09 1.77987e-09 0
-1.72101e-09 3.53966e-10 0
-1.77472e-09 8.73259e-11 0
-2.62107e-09 2.50325e-10 0
-3.24873e-09 6.22264e-10 0
-3.45971e-09 9.14746e-10 0
-3.43199e-09 9.44993e-10 0
-3.4213e-09 8.05668e-10 0
-3.52452e-09 6.26705e-10 0
-3.69912e-09 4.6188e-10 0
-3.87851e-09 3.25346e-10 0
-4.02502e-09 2.19511e-10 0
-4.12953e-09 1.42017e-10 0
-4.19751e-09 8.8066e-11 0
-4.23866e-09 5.21706e-11 0
-4.262e-09 2.92833e-11 0
-4.27432e-09 1.52945e-11 0
-4.28023e-09 7.12298e-12 0
-4.28262e-09 2.59743e-12 0
-4.2832e-09 2.6395e-13 0
-4.28294e-09 -8.0891e-13 0
-4.28236e-09 -1.19397e-12 0
-4.28171e-09 -1.22959e-12 0
-4.28112e-09 -1.10719e-12 0
-4.28061e-09 -9.29583e-13 0
-4.2802e-09 -7.4816e-13 0
-4.27989e-09 -5.85707e-13 0
-4.27964e-09 -4.49889e-13 0
-4.27946e-09 -3.40934e-13 0
-4.27933e-09 -2.55853e-13 0
-4.27923e-09 -1.90623e-13 0
-4.27915e-09 -1.41255e-13 0
-4.2791e-09 -1.04228e-13 0
-4.27906e-09 -7.66285e-14 0
-4.27903e-09 -5.61371e-14 0
-4.27901e-09 -4.09445e-14 0
-4.27899e-09 -2.96599e-14 0
-4.27898e-09 -2.12192e-14 0
-4.27897e-09 -1.4756e-14 0
-4.27897e-09 -9.32942e-15 0
-4.27897e-09 -3.82877e-15 0
-4.27897e-09 2.06114e-15 0
-4.27897e-09 7.99712e-15 0
0.00922182 -3.96641e-09 0
0 -9.34228e-09 0
4.12492e-14 7.42808e-11 0
6.03271e-11 -1.20654e-09 0
-2.95894e-09 -4.1522e-09 0
-3.05749e-09 -5.11462e-09 0
6.74734e-10 -2.24327e-09 0
-7.15654e-10 -3.25209e-14 0
-1.24108e-09 -8.84764e-10 0
-2.86542e-09 -2.30366e-09 0
-3.25721e-09 -2.44842e-09 0
-3.84804e-09 -1.34849e-09 0
-4.27878e-09 1.11406e-10 0
-4.27929e-09 1.15773e-09 0
-3.91431e-09 1.4119e-09 0
-3.48478e-09 1.22913e-09 0
-3.21007e-09 9.47849e-10 0
-3.10578e-09 6.85806e-10 0
-3.09836e-09 4.70271e-10 0
-3.12339e-09 3.06238e-10 0
-3.14905e-09 1.89657e-10 0
-3.16587e-09 1.11599e-10 0
-3.17411e-09 6.19897e-11 0
-3.17662e-09 3.1949e-11 0
-3.17607e-09 1.46283e-11 0
-3.17422e-09 5.18618e-12 0
-3.17206e-09 4.08336e-13 0
-3.17007e-09 -1.73415e-12 0
-3.1684e-09 -2.46697e-12 0
-3.16709e-09 -2.50013e-12 0
-3.1661e-09 -2.22705e-12 0
-3.16535e-09 -1.85425e-12 0
-3.16481e-09 -1.48223e-12 0
-3.16441e-09 -1.15378e-12 0
-3.16412e-09 -8.81936e-13 0
-3.16391e-09 -6.65565e-13 0
-3.16376e-09 -4.97678e-13 0
-3.16365e-09 -3.69652e-13 0
-3.16357e-09 -2.73202e-13 0
-3.16352e-09 -2.0116e-13 0
-3.16347e-09 -1.47672e-13 0
-3.16344e-09 -1.08115e-13 0
-3.16342e-09 -7.89208e-14 0
-3.16341e-09 -5.73679e-14 0
-3.1634e-09 -4.13833e-14 0
-3.16339e-09 -2.93562e-14 0
-3.16338e-09 -2.00478e-14 0
-3.16338e-09 -1.26566e-14 0
-3.16338e-09 -6.68488e-15 0
-3.16337e-09 -1.43856e-15 0
-3.16337e-09 3.85238e-15 0
0.00979297 -3.04515e-09 0
0 -1.80415e-08 0
2.15761e-14 -7.95001e-10 0
-2.01161e-10 -2.52949e-09 0
-3.34581e-09 -3.78684e-09 0
-4.70839e-09 -3.12232e-09 0
-1.91205e-14 -1.07e-09 0
-1.6858e-13 -1.94235e-13 0
1.63355e-13 -1.83976e-13 0
-1.6056e-09 -1.62449e-09 0
-4.05238e-09 -3.06084e-09 0
-4.59774e-09 -1.89053e-09 0
-4.95365e-09 -4.57292e-11 0
-5.1116e-09 1.07532e-09 0
-4.79171e-09 1.23047e-09 0
-4.17287e-09 9.84997e-10 0
-3.60429e-09 7.29182e-10 0
-3.23432e-09 5.21633e-10 0
-3.03123e-09 3.51461e-10 0
-2.92362e-09 2.18838e-10 0
-2.86268e-09 1.24711e-10 0
-2.82452e-09 6.3868e-11 0
-2.79888e-09 2.7748e-11 0
-2.78118e-09 8.05134e-12 0
-2.76899e-09 -1.63254e-12 0
-2.7607e-09 -5.65114e-12 0
-2.75514e-09 -6.70406e-12 0
-2.75147e-09 -6.35525e-12 0
-2.74906e-09 -5.45426e-12 0
-2.74748e-09 -4.43009e-12 0
-2.74646e-09 -3.47794e-12 0
-2.74578e-09 -2.67017e-12 0
-2.74534e-09 -2.01907e-12 0
-2.74505e-09 -1.51063e-12 0
-2.74485e-09 -1.12177e-12 0
-2.74472e-09 -8.28564e-13 0
-2.74462e-09 -6.09649e-13 0
-2.74456e-09 -4.47335e-13 0
-2.74452e-09 -3.27573e-13 0
-2.74449e-09 -2.39504e-13 0
-2.74447e-09 -1.74882e-13 0
-2.74445e-09 -1.27514e-13 0
-2.74444e-09 -9.27869e-14 0
-2.74443e-09 -6.72784e-14 0
-2.74443e-09 -4.8467e-14 0
-2.74442e-09 -3.45229e-14 0
-2.74442e-09 -2.41153e-14 0
-2.74442e-09 -1.62205e-14 0
-2.74441e-09 -1.00001e-14 0
-2.74441e-09 -4.65058e-15 0
-2.74441e-09 5.3775e-16 0
0.00990026 -1.39724e-09 0
0 -1.61105e-08 0
6.67653e-15 -9.86773e-10 0
-6.84791e-10 -2.25902e-09 0
-3.68216e-09 -3.0643e-09 0
-5.78631e-09 -3.3958e-09 0
-2.22514e-09 -1.60376e-09 0
-1.62987e-13 1.58679e-13 0
4.67141e-15 -4.67141e-15 0
1.4971e-13 -1.76999e-13 0
-2.00947e-09 -1.37905e-09 0
-3.81253e-09 -1.87901e-09 0
-4.17076e-09 1.26493e-10 0
-5.0284e-09 1.433e-09 0
-5.39622e-09 1.31428e-09 0
-4.92447e-09 7.70879e-10 0
-4.15138e-09 4.02037e-10 0
-3.53768e-09 2.09668e-10 0
-3.16318e-09 9.81521e-11 0
-2.95331e-09 2.85651e-11 0
-2.83498e-09 -1.07101e-11 0
-2.76595e-09 -2.82443e-11 0
-2.72466e-09 -3.25156e-11 0
-2.69977e-09 -3.01184e-11 0
-2.6848e-09 -2.51843e-11 0
-2.6759e-09 -1.98875e-11 0
-2.67066e-09 -1.51751e-11 0
-2.66761e-09 -1.13372e-11 0
-2.66586e-09 -8.36025e-12 0
-2.66487e-09 -6.11641e-12 0
-2.66432e-09 -4.4541e-12 0
-2.66401e-09 -3.23533e-12 0
-2.66385e-09 -2.3472e-12 0
-2.66376e-09 -1.7022e-12 0
-2.66371e-09 -1.23457e-12 0
-2.66369e-09 -8.95754e-13 0
-2.66368e-09 -6.50269e-13 0
-2.66368e-09 -4.72332e-13 0
-2.66368e-09 -3.43272e-13 0
-2.66368e-09 -2.49584e-13 0
-2.66368e-09 -1.81503e-13 0
-2.66368e-09 -1.31967e-13 0
-2.66368e-09 -9.5865e-14 0
-2.66368e-09 -6.94992e-14 0
-2.66368e-09 -5.01833e-14 0
-2.66368e-09 -3.59539e-14 0
-2.66368e-09 -2.53791e-14 0
-2.66368e-09 -1.74342e-14 0
-2.66368e-09 -1.13526e-14 0
-2.66368e-09 -6.38927e-15 0
-2.66368e-09 -1.8069e-15 0
0.00991437 3.5691e-10 0
0 -1.13713e-08 0
9.12163e-15 -9.28606e-10 0
-7.4265e-10 -2.18337e-09 0
-3.62994e-09 -2.30743e-09 0
-6.10231e-09 -1.83873e-09 0
-4.95752e-09 -1.19884e-09 0
-1.44779e-09 -4.12773e-10 0
-1.61042e-13 1.56314e-13 0
-6.60949e-15 6.60949e-15 0
1.29942e-13 -1.69475e-13 0
-1.50655e-09 -3.29973e-10 0
-1.99975e-09 9.77696e-10 0
-3.82951e-09 2.62871e-09 0
-5.52869e-09 1.88706e-09 0
-5.59579e-09 6.39233e-10 0
-4.67676e-09 -1.58301e-11 0
-3.79816e-09 -2.0654e-10 0
-3.26449e-09 -2.2635e-10 0
-2.99222e-09 -1.99199e-10 0
-2.86076e-09 -1.60209e-10 0
-2.7977e-09 -1.21295e-10 0
-2.76742e-09 -8.79267e-11 0
-2.75305e-09 -6.19156e-11 0
-2.74646e-09 -4.2858e-11 0
-2.74366e-09 -2.94252e-11 0
-2.74266e-09 -2.01661e-11 0
-2.74249e-09 -1.38533e-11 0
-2.74266e-09 -9.56327e-12 0
-2.74295e-09 -6.64239e-12 0
-2.74324e-09 -4.64395e-12 0
-2.7435e-09 -3.26762e-12 0
-2.74372e-09 -2.31289e-12 0
-2.74389e-09 -1.64583e-12 0
-2.74402e-09 -1.1766e-12 0
-2.74412e-09 -8.44485e-13 0
-2.7442e-09 -6.08146e-13 0
-2.74426e-09 -4.39168e-13 0
-2.7443e-09 -3.17858e-13 0
-2.74433e-09 -2.30464e-13 0
-2.74435e-09 -1.67311e-13 0
-2.74437e-09 -1.21548e-13 0
-2.74438e-09 -8.8296e-14 0
-2.74439e-09 -6.40591e-14 0
-2.74439e-09 -4.63261e-14 0
-2.7444e-09 -3.32867e-14 0
-2.7444e-09 -2.36386e-14 0
-2.7444e-09 -1.64759e-14 0
-2.7444e-09 -1.11962e-14 0
-2.7444e-09 -7.26574e-15 0
-2.74441e-09 -3.95923e-15 0
0.00990026 2.0522e-09 0
0 -8.0848e-09 0
9.87607e-15 -8.78672e-10 0
-9.42906e-10 -1.94022e-09 0
-3.74293e-09 -1.81134e-09 0
-5.88297e-09 -9.60507e-10 0
-5.34642e-09 -3.96996e-10 0
-3.40446e-09 -8.43974e-10 0
-1.71293e-09 -6.57697e-10 0
-1.69033e-13 1.43594e-13 0
1.2036e-13 1.47673e-13 0
-1.40687e-14 4.61401e-11 0
-4.55371e-10 2.23023e-09 0
-1.47689e-09 4.25557e-09 0
-3.69871e-09 2.75811e-09 0
-4.92166e-09 5.51002e-10 0
-4.64089e-09 -4.52966e-10 0
-3.93685e-09 -5.96442e-10 0
-3.44923e-09 -4.86274e-10 0
-3.22104e-09 -3.51468e-10 0
-3.13976e-09 -2.41001e-10 0
-3.12126e-09 -1.59948e-10 0
-3.12452e-09 -1.04082e-10 0
-3.13305e-09 -6.71555e-11 0
-3.14124e-09 -4.33494e-11 0
-3.14767e-09 -2.81704e-11 0
-3.15235e-09 -1.84992e-11 0
-3.15565e-09 -1.22988e-11 0
-3.15795e-09 -8.2818e-12 0
-3.15955e-09 -5.64604e-12 0
-3.16066e-09 -3.89315e-12 0
-3.16144e-09 -2.71184e-12 0
-3.16199e-09 -1.90572e-12 0
-3.16238e-09 -1.34937e-12 0
-3.16266e-09 -9.61525e-13 0
-3.16285e-09 -6.88788e-13 0
-3.163e-09 -4.95565e-13 0
-3.1631e-09 -3.5781e-13 0
-3.16317e-09 -2.59082e-13 0
-3.16322e-09 -1.8801e-13 0
-3.16326e-09 -1.36652e-13 0
-3.16329e-09 -9.94167e-14 0
-3.16331e-09 -7.23362e-14 0
-3.16332e-09 -5.25801e-14 0
-3.16334e-09 -3.81192e-14 0
-3.16334e-09 -2.74978e-14 0
-3.16335e-09 -1.96724e-14 0
-3.16335e-09 -1.39265e-14 0
-3.16336e-09 -9.90914e-15 0
-3.16336e-09 -7.57868e-15 0
-3.16336e-09 -6.50461e-15 0
0.00979297 3.49475e-09 0
0 -7.20479e-09 0
1.19546e-14 -7.28064e-10 0
-1.40625e-09 -1.61887e-09 0
-4.22079e-09 -1.45614e-09 0
-6.08156e-09 -6.7858e-10 0
-5.74091e-09 -1.79816e-11 0
-4.19872e-09 -3.41615e-10 0
-3.35683e-09 -1.78094e-09 0
-1.82434e-09 -1.34406e-09 0
-2.59992e-09 -1.10836e-17 0
-4.83498e-09 7.33158e-10 0
-4.72126e-09 2.55725e-09 0
-1.85387e-09 3.72572e-09 0
-1.6525e-09 2.71115e-09 0
-3.4746e-09 7.82879e-10 0
-4.38648e-09 -3.06786e-10 0
-4.35266e-09 -5.34158e-10 0
-4.18216e-09 -4.26905e-10 0
-4.12048e-09 -2.80587e-10 0
-4.13321e-09 -1.73307e-10 0
-4.16817e-09 -1.0577e-10 0
-4.20143e-09 -6.51532e-11 0
-4.22663e-09 -4.0876e-11 0
-4.24409e-09 -2.61901e-11 0
-4.25572e-09 -1.71257e-11 0
-4.26337e-09 -1.14044e-11 0
-4.26839e-09 -7.71489e-12 0
-4.27172e-09 -5.28966e-12 0
-4.27395e-09 -3.66857e-12 0
-4.27545e-09 -2.56919e-12 0
-4.27649e-09 -1.81418e-12 0
-4.2772e-09 -1.29001e-12 0
-4.2777e-09 -9.22665e-13 0
-4.27805e-09 -6.63141e-13 0
-4.2783e-09 -4.78532e-13 0
-4.27848e-09 -3.46451e-13 0
-4.27861e-09 -2.51493e-13 0
-4.2787e-09 -1.82946e-13 0
-4.27877e-09 -1.33294e-13 0
-4.27882e-09 -9.72237e-14 0
-4.27885e-09 -7.09524e-14 0
-4.27888e-09 -5.17726e-14 0
-4.2789e-09 -3.77383e-14 0
-4.27891e-09 -2.74468e-14 0
-4.27892e-09 -1.98937e-14 0
-4.27893e-09 -1.43645e-14 0
-4.27893e-09 -1.0366e-14 0
-4.27894e-09 -7.76747e-15 0
-4.27894e-09 -7.22743e-15 0
-4.27894e-09 -9.24385e-15 0
0.00922182 4.02523e-09 0
0 -7.65394e-09 0
1.26281e-14 -4.01012e-10 0
-1.81041e-09 -9.06422e-10 0
-4.39227e-09 -7.90209e-10 0
-5.88874e-09 -4.04533e-10 0
-6.00491e-09 -3.78999e-10 0
-5.08939e-09 -8.32051e-10 0
-4.50716e-09 -1.64194e-09 0
-4.96678e-09 -7.00792e-10 0
-4.90587e-09 2.18507e-09 0
-5.68015e-09 3.22507e-09 0
-4.6108e-09 1.15712e-09 0
-2.30026e-09 -1.24742e-09 0
-2.29998e-09 -1.72411e-09 0
-4.144e-09 -8.95007e-10 0
-5.17262e-09 -3.41678e-11 0
-5.20285e-09 2.92002e-10 0
-5.01281e-09 2.57274e-10 0
-4.90195e-09 1.43397e-10 0
-4.87109e-09 6.11154e-11 0
-4.87682e-09 1.87662e-11 0
-4.8929e-09 1.00593e-12 0
-4.90871e-09 -4.88632e-12 0
-4.92126e-09 -5.88739e-12 0
-4.93042e-09 -5.20113e-12 0
-4.93688e-09 -4.12693e-12 0
-4.94137e-09 -3.12281e-12 0
-4.94448e-09 -2.3104e-12 0
-4.94664e-09 -1.69123e-12 0
-4.94815e-09 -1.23218e-12 0
-4.94922e-09 -8.96235e-13 0
-4.94997e-09 -6.51773e-13 0
-4.95051e-09 -4.74252e-13 0
-4.9509e-09 -3.45371e-13 0
-4.95117e-09 -2.51743e-13 0
-4.95137e-09 -1.83655e-13 0
-4.95152e-09 -1.34082e-13 0
-4.95162e-09 -9.79478e-14 0
-4.9517e-09 -7.15802e-14 0
-4.95176e-09 -5.23183e-14 0
-4.9518e-09 -3.82327e-14 0
-4.95183e-09 -2.79213e-14 0
-4.95185e-09 -2.03652e-14 0
-4.95186e-09 -1.48245e-14 0
-4.95188e-09 -1.07672e-14 0
-4.95188e-09 -7.82389e-15 0
-4.95189e-09 -5.74584e-15 0
-4.95189e-09 -4.49923e-15 0
-4.9519e-09 -4.87955e-15 0
-4.9519e-09 -8.21294e-15 0
0.0069105 2.50124e-09 0
0 0 0
6.83225e-15 0 0
-9.42917e-10 0 0
-2.10039e-09 0 0
-2.7309e-09 0 0
-2.87803e-09 0 0
-2.84733e-09 0 0
-2.86325e-09 0 0
-3.14245e-09 0 0
-2.30596e-09 0 0
-8.4519e-10 0 0
-7.32854e-11 0 0
-5.07067e-10 0 0
-1.67034e-09 0 0
-2.67433e-09 0 0
-2.98025e-09 0 0
-2.83874e-09 0 0
-2.63161e-09 0 0
-2.49811e-09 0 0
-2.43509e-09 0 0
-2.41197e-09 0 0
-2.40675e-09 0 0
-2.40812e-09 0 0
-2.41124e-09 0 0
-2.4143e-09 0 0
-2.4168e-09 0 0
-2.4187e-09 0 0
-2.4201e-09 0 0
-2.42111e-09 0 0
-2.42184e-09 0 0
-2.42237e-09 0 0
-2.42275e-09 0 0
-2.42303e-09 0 0
-2.42323e-09 0 0
-2.42337e-09 0 0
-2.42347e-09 0 0
-2.42355e-09 0 0
-2.42361e-09 0 0
-2.42365e-09 0 0
-2.42368e-09 0 0
-2.4237e-09 0 0
-2.42371e-09 0 0
-2.42372e-09 0 0
-2.42373e-09 0 0
-2.42374e-09 0 0
-2.42374e-09 0 0
-2.42375e-09 0 0
-2.42375e-09 0 0
-2.42375e-09 0 0
-2.42376e-09 0 0
0.00253857 0 0
0 0 8.51457e-09
2.81021e-14 0 8.12831e-10
-2.46486e-09 0 2.3042e-09
-7.59037e-09 0 2.09217e-09
-1.34578e-08 0 -2.97384e-09
-4.03516e-09 0 -5.76967e-09
2.84296e-10 0 -3.61795e-09
2.28747e-09 0 -1.82958e-09
2.4294e-09 0 -2.12791e-10
9.9356e-10 0 4.39375e-10
-8.74277e-10 0 3.05065e-10
-2.35388e-09 0 -1.67959e-11
-3.26448e-09 0 -1.77069e-10
-3.76344e-09 0 -1.6999e-10
-4.05325e-09 0 -1.0075e-10
-4.27198e-09 0 -3.7738e-11
-4.46616e-09 0 -6.55867e-13
-4.63376e-09 0 1.44707e-11
-4.76617e-09 0 1.70136e-11
-4.86232e-09 0 1.42917e-11
-4.92741e-09 0 1.0345e-11
-4.96896e-09 0 6.86484e-12
-4.99408e-09 0 4.29983e-12
-5.00844e-09 0 2.58357e-12
-5.01612e-09 0 1.50373e-12
-5.01983e-09 0 8.53014e-13
-5.02131e-09 0 4.73449e-13
-5.02163e-09 0 2.57762e-13
-5.0214e-09 0 1.37897e-13
-5.02094e-09 0 7.26045e-14
-5.02044e-09 0 3.77044e-14
-5.01998e-09 0 1.93908e-14
-5.01958e-09 0 9.95533e-15
-5.01926e-09 0 5.17952e-15
-5.01901e-09 0 2.79941e-15
-5.01881e-09 0 1.62417e-15
-5.01867e-09 0 1.04019e-15
-5.01856e-09 0 7.38708e-16
-5.01847e-09 0 5.69383e-16
-5.01841e-09 0 4.62322e-16
-5.01837e-09 0 3.86626e-16
-5.01833e-09 0 3.30081e-16
-5.01831e-09 0 2.90908e-16
-5.01829e-09 0 2.72226e-16
-5.01828e-09 0 2.83859e-16
-5.01827e-09 0 3.48857e-16
-5.01826e-09 0 4.42861e-16
-5.01826e-09 0 4.9024e-16
-5.01826e-09 0 1.41231e-15
-5.01827e-09 0 6.36709e-15
0.00689792 0 -2.05828e-09
0.0036 -9.40765e-10 1.50522e-09
0.0036 -0.00139073 -0.000118556
0.0070893 -0.00442771 -0.000743006
0.014676 -0.00788089 -0.00249509
0.0261249 -0.0137424 -0.00513511
0.0463529 -0.0103388 -0.00424324
0.0490553 -0.000665651 -0.00104256
0.0484905 0.00330866 0.000417744
0.0432194 0.0053057 0.000859329
0.0375774 0.00513952 0.000451171
0.032567 0.00416828 -7.16956e-05
0.0284259 0.00306438 -0.000353207
0.0252669 0.00210064 -0.000376645
0.023047 0.001375 -0.00027076
0.0215743 0.000882166 -0.000152775
0.0206292 0.000562384 -7.11985e-05
0.0200371 0.000355565 -2.72187e-05
0.0196743 0.000221564 -7.45567e-06
0.0194569 0.00013553 -1.02413e-07
0.0193295 8.12581e-05 1.86045e-06
0.0192566 4.77286e-05 1.86412e-06
0.0192159 2.74467e-05 1.35605e-06
0.0191938 1.54289e-05 8.51981e-07
0.0191823 8.45233e-06 4.84088e-07
0.0191766 4.48721e-06 2.50212e-07
0.0191739 2.28508e-06 1.14331e-07
0.0191729 1.09448e-06 4.12534e-08
0.0191726 4.72071e-07 5.22642e-09
0.0191727 1.6138e-07 -1.03513e-08
0.0191729 1.6939e-08 -1.53801e-08
0.0191732 -4.20133e-08 -1.54234e-08
0.0191734 -5.9233e-08 -1.34376e-08
0.0191735 -5.77271e-08 -1.08951e-08
0.0191737 -4.91176e-08 -8.46283e-09
0.0191738 -3.89361e-08 -6.39329e-09
0.0191739 -2.95589e-08 -4.73898e-09
0.0191739 -2.17997e-08 -3.46586e-09
0.019174 -1.57499e-08 -2.51026e-09
0.019174 -1.12075e-08 -1.80528e-09
0.019174 -7.88449e-09 -1.29181e-09
0.019174 -5.5001e-09 -9.21815e-10
0.019174 -3.81545e-09 -6.58437e-10
0.019174 -2.64175e-09 -4.74845e-10
0.019174 -1.83646e-09 -3.52682e-10
0.019174 -1.29432e-09 -2.79013e-10
0.019174 -9.46799e-10 -2.49926e-10
0.019174 -7.63425e-10 -2.61013e-10
0.019174 -6.91381e-10 -1.85771e-10
0.019174 -1.34235e-09 -3.83733e-10
0.0191741 -5.41048e-09 -3.30425e-09
0.0191741 -8.80788e-09 -5.93751e-09
0.01 -5.39702e-10 -1.76812e-08
0.01 -0.00325747 -0.000575866
0.0150212 -0.0105771 -0.00148849
0.0240248 -0.0183977 -0.00312724
0.0370828 -0.0296921 -0.00434469
0.0565227 -0.0206834 -0.00122662
0.0547257 -0.0013889 0.00201439
0.0549372 0.00581226 0.0023991
0.0494182 0.0107057 0.00218625
0.0437928 0.010655 0.00116025
0.038972 0.00936192 9.66953e-05
0.0348368 0.00757333 -0.000474117
0.0316338 0.00560439 -0.000575914
0.0294451 0.00383498 -0.000434719
0.0280442 0.00249033 -0.000251977
0.0271766 0.00156695 -0.000119966
0.0266535 0.000963691 -4.70622e-05
0.0263472 0.000580671 -1.35381e-05
0.0261735 0.000342893 -6.2201e-07
0.0260783 0.000198331 3.11979e-06
0.0260282 0.0001122 3.38201e-06
0.0260032 6.19023e-05 2.63166e-06
0.0259916 3.31319e-05 1.79266e-06
0.0259869 1.70403e-05 1.13474e-06
0.0259857 8.26988e-06 6.85057e-07
0.0259859 3.64047e-06 3.99769e-07
0.0259867 1.30061e-06 2.2717e-07
0.0259876 1.931e-07 1.262e-07
0.0259884 -2.73373e-07 6.86421e-08
0.025989 -4.21954e-07 3.65332e-08
0.0259896 -4.24352e-07 1.8969e-08
0.02599 -3.68508e-07 9.54672e-09
0.0259903 -2.97126e-07 4.59887e-09
0.0259905 -2.29185e-07 2.06681e-09
0.0259907 -1.71715e-07 8.14809e-10
0.0259908 -1.26078e-07 2.26506e-10
0.0259908 -9.12222e-08 -2.70871e-11
0.0259909 -6.5285e-08 -1.18331e-10
0.0259909 -4.63373e-08 -1.35545e-10
0.025991 -3.2684e-08 -1.22753e-10
0.025991 -2.29504e-08 -1.01223e-10
0.025991 -1.60735e-08 -8.09693e-11
0.025991 -1.1258e-08 -6.69576e-11
0.025991 -7.92555e-09 -6.27419e-11
0.025991 -5.67025e-09 -6.80737e-11
0.025991 -4.21807e-09 -7.43289e-11
0.025991 -3.54267e-09 -8.70643e-11
0.025991 -4.1651e-09 -3.2047e-11
0.025991 -6.51223e-09 -4.71225e-10
0.025991 -1.03964e-08 -4.63928e-09
0.0259911 -1.26788e-08 -8.30213e-09
0.0148 -1.46337e-08 -2.26705e-08
0.0148 -0.00540873 -0.00110064
0.0198254 -0.0163129 -0.00291729
0.025958 -0.0273292 -0.00494906
0.030369 -0.0423775 -0.00519535
0.0288608 -0.0259528 -0.00080978
0.0261315 -1.70144e-07 0.00226431
0.0262451 0.00754991 0.00234629
0.0307873 0.0157336 0.00227245
0.0310318 0.0154463 0.00133769
0.0297613 0.0133972 0.000367308
0.0285488 0.0107986 -0.000232762
0.0277508 0.00782917 -0.000396407
0.0274666 0.00518317 -0.000321095
0.0274242 0.00326544 -0.000181131
0.0274547 0.00200214 -7.30794e-05
0.0275001 0.0012008 -1.4623e-05
0.0275454 0.000703726 8.80277e-06
0.0275861 0.000402241 1.42638e-05
0.0276202 0.000223746 1.26572e-05
0.027647 0.000120648 9.27867e-06
0.027667 6.25884e-05 6.16998e-06
0.0276815 3.07716e-05 3.86442e-06
0.0276917 1.38815e-05 2.32351e-06
0.0276987 5.27559e-06 1.3556e-06
0.0277035 1.1441e-06 7.72309e-07
0.0277067 -6.48677e-07 4.31189e-07
0.0277088 -1.2719e-06 2.3627e-07
0.0277103 -1.34834e-06 1.27016e-07
0.0277113 -1.19847e-06 6.68243e-08
0.0277119 -9.7939e-07 3.422e-08
0.0277124 -7.62378e-07 1.68794e-08
0.0277127 -5.75209e-07 7.85604e-09
0.0277129 -4.24806e-07 3.29366e-09
0.027713 -3.0896e-07 1.08094e-09
0.0277131 -2.22175e-07 7.80144e-11
0.0277132 -1.58404e-07 -3.2112e-10
0.0277132 -1.12196e-07 -4.32767e-10
0.0277132 -7.90654e-08 -4.18097e-10
0.0277132 -5.55056e-08 -3.56527e-10
0.0277133 -3.88661e-08 -2.85312e-10
0.0277133 -2.71894e-08 -2.20639e-10
0.0277133 -1.90568e-08 -1.68289e-10
0.0277133 -1.34605e-08 -1.28235e-10
0.0277133 -9.73115e-09 -9.77499e-11
0.0277133 -7.52239e-09 -8.18039e-11
0.0277133 -6.64358e-09 -1.22735e-10
0.0277133 -6.80767e-09 -2.25341e-10
0.0277133 -7.81526e-09 -1.01937e-09
0.0277133 -9.33747e-09 -5.32519e-09
0.0277133 -1.01479e-08 -8.89597e-09
0.018 -3.09864e-08 -2.58105e-08
0.018 -0.0066016 -0.00192829
0.0201898 -0.0176152 -0.00524817
0.0199644 -0.0229863 -0.00684101
0.015903 -0.0249713 -0.00682289
-1.94372e-08 -0.0129988 -0.00330177
1.57381e-06 5.05246e-07 1.07086e-08
-5.95732e-07 6.26641e-07 0.000446921
0.00733721 0.00506782 0.000916358
0.0153781 0.0114138 0.000784959
0.0187695 0.0119656 0.000386847
0.0203776 0.00985291 -3.67967e-05
0.0221088 0.00693748 -0.00024961
0.0238571 0.00433027 -0.000235486
0.0252831 0.00258767 -0.000131176
0.0262918 0.00152094 -3.84713e-05
0.0269525 0.000875432 1.18132e-05
0.0273707 0.00048738 2.81823e-05
0.0276316 0.000259589 2.72828e-05
0.0277928 0.000130609 2.07117e-05
0.0278915 6.05799e-05 1.39383e-05
0.0279513 2.43375e-05 8.72279e-06
0.0279873 6.6886e-06 5.19859e-06
0.0280087 -1.147e-06 2.98939e-06
0.0280214 -4.04703e-06 1.67063e-06
0.0280289 -4.62214e-06 9.10343e-07
0.0280334 -4.21519e-06 4.83676e-07
0.028036 -3.48362e-06 2.49659e-07
0.0280376 -2.72659e-06 1.24082e-07
0.0280385 -2.06308e-06 5.82719e-08
0.028039 -1.52612e-06 2.47761e-08
0.0280394 -1.11114e-06 8.40687e-09
0.0280396 -7.9972e-07 9.06449e-10
0.0280397 -5.70636e-07 -2.1396e-09
0.0280398 -4.04495e-07 -3.04667e-09
0.0280398 -2.85255e-07 -3.00073e-09
0.0280399 -2.00348e-07 -2.58956e-09
0.0280399 -1.40259e-07 -2.09006e-09
0.0280399 -9.79421e-08 -1.62161e-09
0.0280399 -6.82655e-08 -1.22662e-09
0.0280399 -4.7534e-08 -9.12106e-10
0.0280399 -3.31144e-08 -6.70546e-10
0.0280399 -2.31518e-08 -4.90589e-10
0.0280399 -1.63637e-08 -3.62887e-10
0.0280399 -1.18616e-08 -2.83594e-10
0.0280399 -8.9861e-09 -2.72975e-10
0.0280399 -7.22968e-09 -3.89673e-10
0.0280399 -6.18541e-09 -5.8809e-10
0.0280399 -5.63621e-09 -1.4771e-09
0.0280399 -5.35471e-09 -5.57917e-09
0.0280399 -5.23055e-09 -8.89094e-09
0.0196 -3.97674e-08 -4.08017e-08
0.0196 -0.0052616 -0.00275114
0.0191013 -0.0119022 -0.00668371
0.0162351 -0.0143903 -0.00720641
0.01151 -0.012976 -0.00652237
0.00232988 -0.00522627 -0.0041215
1.19256e-06 -1.09838e-06 -0.000872934
5.02646e-07 -5.02646e-07 -7.08021e-10
-5.79722e-07 6.11741e-07 0.000126281
0.00503087 0.00382125 0.000261531
0.0113529 0.00837346 0.000208431
0.0141231 0.00756457 -3.59445e-05
0.0174825 0.00450947 -0.000277757
0.0208275 0.00213914 -0.000304191
0.0235182 0.000900174 -0.00020336
0.0253586 0.00035266 -8.30797e-05
0.0264991 0.000115786 -6.31948e-06
0.0271742 1.032e-05 2.33859e-05
0.0275666 -3.34539e-05 2.6645e-05
0.0277924 -4.62424e-05 2.06289e-05
0.0279212 -4.4481e-05 1.36198e-05
0.0279938 -3.72082e-05 8.23221e-06
0.0280344 -2.89348e-05 4.69916e-06
0.0280569 -2.15599e-05 2.57107e-06
0.0280692 -1.5647e-05 1.3562e-06
0.0280759 -1.11685e-05 6.8886e-07
0.0280794 -7.88775e-06 3.33748e-07
0.0280813 -5.533e-06 1.50539e-07
0.0280823 -3.86432e-06 5.9366e-08
0.0280828 -2.69126e-06 1.62121e-08
0.028083 -1.87078e-06 -2.59025e-09
0.0280831 -1.29875e-06 -9.4903e-09
0.0280831 -9.00776e-07 -1.08885e-08
0.0280831 -6.24272e-07 -9.98413e-09
0.0280831 -4.32354e-07 -8.31436e-09
0.0280831 -2.9925e-07 -6.57159e-09
0.0280831 -2.06998e-07 -5.03153e-09
0.0280831 -1.43104e-07 -3.77324e-09
0.0280831 -9.88851e-08 -2.78985e-09
0.0280831 -6.83133e-08 -2.04253e-09
0.0280831 -4.72073e-08 -1.48573e-09
0.0280831 -3.26713e-08 -1.07819e-09
0.0280831 -2.26982e-08 -7.87826e-10
0.0280831 -1.58868e-08 -5.94719e-10
0.0280831 -1.12485e-08 -4.88746e-10
0.028083 -8.07498e-09 -4.74025e-10
0.028083 -5.83509e-09 -5.91094e-10
0.028083 -4.07172e-09 -7.78611e-10
0.028083 -2.43686e-09 -1.64618e-09
0.028083 -7.10847e-10 -5.60139e-09
0.028083 1.98891e-10 -8.77685e-09
0.0196 -1.97501e-08 -5.46492e-08
0.0196 -0.00319007 -0.00308978
0.0190268 -0.00671964 -0.00674575
0.017765 -0.00632124 -0.00676048
0.0141041 -0.00266219 -0.00569638
0.0102832 0.00349589 -0.00425358
0.00654168 0.00336644 -0.00203725
1.19317e-06 -1.00358e-06 -0.000375604
4.23859e-07 -4.23859e-07 -2.01696e-09
-5.61215e-07 5.98229e-07 3.47409e-05
0.00381177 0.00284124 0.000337381
0.00842525 0.00379082 0.000374592
0.0139806 0.000410801 -6.63657e-05
0.0190466 -0.00152351 -0.000346693
0.0228702 -0.00182289 -0.000356878
0.0252808 -0.00140815 -0.000213646
0.0266169 -0.000932009 -8.11464e-05
0.027315 -0.000589599 -1.39655e-05
0.0276742 -0.000370893 7.5331e-06
0.0278584 -0.000233637 9.9559e-06
0.0279522 -0.000147194 7.27516e-06
0.0279994 -9.27203e-05 4.38787e-06
0.0280226 -5.84869e-05 2.38347e-06
0.0280337 -3.7026e-05 1.19598e-06
0.0280387 -2.35724e-05 5.51605e-07
0.0280408 -1.51142e-05 2.2391e-07
0.0280415 -9.76794e-06 6.76292e-08
0.0280415 -6.36439e-06 -7.42882e-10
0.0280413 -4.17968e-06 -2.62602e-08
0.028041 -2.76513e-06 -3.21488e-08
0.0280408 -1.84137e-06 -2.99017e-08
0.0280406 -1.23323e-06 -2.49443e-08
0.0280404 -8.29919e-07 -1.96684e-08
0.0280403 -5.60717e-07 -1.50037e-08
0.0280402 -3.80036e-07 -1.12093e-08
0.0280401 -2.58209e-07 -8.26016e-09
0.02804 -1.75761e-07 -6.03039e-09
0.02804 -1.19803e-07 -4.37419e-09
0.02804 -8.17449e-08 -3.15879e-09
0.02804 -5.58259e-08 -2.27484e-09
0.0280399 -3.81628e-08 -1.63742e-09
0.0280399 -2.61236e-08 -1.18355e-09
0.0280399 -1.79132e-08 -8.68743e-10
0.0280399 -1.22968e-08 -6.63317e-10
0.0280399 -8.41054e-09 -5.48108e-10
0.0280399 -5.63045e-09 -5.22683e-10
0.0280399 -3.47218e-09 -6.30132e-10
0.0280399 -1.46235e-09 -8.00169e-10
0.0280399 9.14088e-10 -1.60577e-09
0.0280399 3.92751e-09 -5.48197e-09
0.0280399 5.59589e-09 -8.62669e-09
0.018 -1.2329e-08 -5.36097e-08
0.018 -0.001538 -0.00303517
0.0185117 -0.00258993 -0.00640595
0.0189385 -0.000996866 -0.00599749
0.0184466 0.00200096 -0.0046784
0.0184148 0.00767418 -0.00346706
0.0189232 0.0127237 -0.00201518
0.0116742 0.00699538 -0.000896845
1.2209e-06 -7.86261e-07 -0.000296982
-4.52804e-07 -9.02895e-07 8.19722e-09
1.23233e-07 -0.000182069 0.000873089
0.00943298 -0.00271269 0.00137442
0.0171195 -0.00597962 0.000612628
0.0220374 -0.00649207 -3.99641e-05
0.024985 -0.00510261 -0.000339171
0.0265829 -0.00325934 -0.000304472
0.0273294 -0.00186497 -0.000169095
0.0276308 -0.0010349 -7.23297e-05
0.0277344 -0.000578803 -2.65186e-05
0.0277599 -0.000328645 -8.9141e-06
0.0277583 -0.000188946 -2.92221e-06
0.0277494 -0.00010976 -1.03323e-06
0.0277402 -6.44137e-05 -4.5981e-07
0.0277326 -3.82199e-05 -2.75877e-07
0.0277269 -2.29487e-05 -1.99141e-07
0.0277228 -1.39519e-05 -1.51722e-07
0.0277199 -8.58979e-06 -1.1509e-07
0.0277179 -5.35428e-06 -8.5667e-08
0.0277165 -3.37702e-06 -6.26149e-08
0.0277155 -2.15332e-06 -4.51401e-08
0.0277149 -1.38664e-06 -3.22441e-08
0.0277144 -9.00733e-07 -2.29063e-08
0.027714 -5.8948e-07 -1.62278e-08
0.0277138 -3.88201e-07 -1.14863e-08
0.0277137 -2.56954e-07 -8.13275e-09
0.0277136 -1.70765e-07 -5.76421e-09
0.0277135 -1.13832e-07 -4.09121e-09
0.0277134 -7.60499e-08 -2.90849e-09
0.0277134 -5.0886e-08 -2.07158e-09
0.0277134 -3.4082e-08 -1.4794e-09
0.0277133 -2.28378e-08 -1.06163e-09
0.0277133 -1.5297e-08 -7.69887e-10
0.0277133 -1.02166e-08 -5.71919e-10
0.0277133 -6.75098e-09 -4.47828e-10
0.0277133 -4.30733e-09 -3.85372e-10
0.0277133 -2.44414e-09 -3.87866e-10
0.0277133 -7.99374e-10 -5.03505e-10
0.0277133 1.04417e-09 -6.54733e-10
0.0277133 3.81909e-09 -1.3358e-09
0.0277133 7.98315e-09 -5.13074e-09
0.0277133 1.04059e-08 -8.29977e-09
0.0148 -7.44238e-09 -4.65089e-08
0.0148 -0.000634028 -0.00283704
0.0165578 -0.000532196 -0.00574631
0.0188104 0.00138773 -0.00502456
0.0209201 0.00425183 -0.00366243
0.0230361 0.00759772 -0.00278563
0.0265539 0.0126853 -0.00190896
0.0296371 0.0199234 -0.0010359
0.0240786 0.0118699 -0.000133731
0.0244963 1.44091e-14 0.000539561
0.0282531 -0.00701087 0.00153883
0.0330986 -0.0139314 0.00243304
0.0340807 -0.0123493 0.00196714
0.0323852 -0.00922354 0.000887443
0.0301024 -0.00610149 -8.08078e-05
0.0283796 -0.00354758 -0.000405878
0.027337 -0.00187096 -0.000318363
0.026751 -0.000949029 -0.000168953
0.0264252 -0.000483962 -7.55526e-05
0.0262425 -0.000252625 -3.12621e-05
0.0261388 -0.000135341 -1.25205e-05
0.0260791 -7.42445e-05 -4.97068e-06
0.0260443 -4.15782e-05 -1.98519e-06
0.0260238 -2.37071e-05 -8.05428e-07
0.0260114 -1.37337e-05 -3.33407e-07
0.0260039 -8.07024e-06 -1.40234e-07
0.0259993 -4.80415e-06 -5.88971e-08
0.0259964 -2.89406e-06 -2.3723e-08
0.0259945 -1.76246e-06 -8.29937e-09
0.0259933 -1.08391e-06 -1.63064e-09
0.0259926 -6.72406e-07 1.05921e-09
0.0259921 -4.20244e-07 1.93513e-09
0.0259917 -2.64251e-07 2.01143e-09
0.0259915 -1.66941e-07 1.76999e-09
0.0259914 -1.05802e-07 1.43661e-09
0.0259913 -6.71643e-08 1.11125e-09
0.0259912 -4.26396e-08 8.32237e-10
0.0259911 -2.7027e-08 6.08581e-10
0.0259911 -1.70728e-08 4.36382e-10
0.0259911 -1.07244e-08 3.06926e-10
0.0259911 -6.67549e-09 2.1041e-10
0.0259911 -4.08696e-09 1.3737e-10
0.0259911 -2.41138e-09 7.87746e-11
0.025991 -1.28138e-09 2.54293e-11
0.025991 -4.3472e-10 -3.07194e-11
0.025991 3.44837e-10 -1.03539e-10
0.025991 1.26974e-09 -2.39711e-10
0.025991 2.62529e-09 -3.76244e-10
0.025991 5.26226e-09 -9.1724e-10
0.025991 9.90981e-09 -4.48952e-09
0.025991 1.275e-08 -7.5644e-09
0.01 -1.4426e-08 -4.14946e-08
0.01 -0.000388354 -0.00237563
0.0118702 -8.97729e-05 -0.00451879
0.0147156 0.00125339 -0.00355085
0.0180877 0.00299225 -0.00234748