# vtk DataFile Version 2.0
Tobias Weinzierl: CPU, Manycore and Cluster Computing
ASCII

DATASET STRUCTURED_POINTS
DIMENSIONS  51 11 6

ORIGIN 0 0 0 

SPACING 0.1 0.1 0.1 

POINT_DATA 3366

VECTORS velocity float
0 0 0
-2.23087e-15 0 0
-4.21943e-09 0 0
-6.84734e-09 0 0
-6.30171e-09 0 0
-1.51744e-09 0 0
-4.84076e-10 0 0
-1.37176e-09 0 0
-2.9621e-09 0 0
-4.36371e-09 0 0
-4.93548e-09 0 0
-4.94863e-09 0 0
-4.80226e-09 0 0
-4.68413e-09 0 0
-4.63762e-09 0 0
-4.64756e-09 0 0
-4.68461e-09 0 0
-4.72694e-09 0 0
-4.76382e-09 0 0
-4.792e-09 0 0
-4.81192e-09 0 0
-4.82528e-09 0 0
-4.83393e-09 0 0
-4.83936e-09 0 0
-4.84271e-09 0 0
-4.84473e-09 0 0
-4.84593e-09 0 0
-4.84663e-09 0 0
-4.84703e-09 0 0
-4.84726e-09 0 0
-4.84738e-09 0 0
-4.84745e-09 0 0
-4.84748e-09 0 0
-4.84749e-09 0 0
-4.84749e-09 0 0
-4.84749e-09 0 0
-4.84749e-09 0 0
-4.84748e-09 0 0
-4.84748e-09 0 0
-4.84747e-09 0 0
-4.84747e-09 0 0
-4.84747e-09 0 0
-4.84746e-09 0 0
-4.84746e-09 0 0
-4.84746e-09 0 0
-4.84746e-09 0 0
-4.84746e-09 0 0
-4.84746e-09 0 0
-4.84746e-09 0 0
-4.84746e-09 0 0
0.00303178 0 0
0 7.60936e-09 0
1.75967e-14 2.39114e-09 0
-8.1764e-09 3.78538e-09 0
-1.35158e-08 2.20235e-09 0
-1.16271e-08 9.37518e-10 0
-3.35205e-09 1.2038e-09 0
-1.26915e-09 2.5176e-09 0
-2.07154e-09 2.66158e-09 0
-3.66943e-09 2.22521e-09 0
-5.90059e-09 1.51274e-09 0
-7.04509e-09 6.54707e-10 0
-7.35052e-09 1.5898e-10 0
-7.47191e-09 -5.33794e-12 0
-7.63892e-09 -1.43286e-11 0
-7.87091e-09 2.42869e-11 0
-8.12532e-09 5.73226e-11 0
-8.35589e-09 6.88926e-11 0
-8.53944e-09 6.40988e-11 0
-8.6734e-09 5.19674e-11 0
-8.7655e-09 3.8688e-11 0
-8.82618e-09 2.71876e-11 0
-8.86493e-09 1.8329e-11 0
-8.88911e-09 1.1977e-11 0
-8.90395e-09 7.63841e-12 0
-8.91295e-09 4.77722e-12 0
-8.91836e-09 2.93932e-12 0
-8.92159e-09 1.78237e-12 0
-8.92351e-09 1.06559e-12 0
-8.92466e-09 6.27258e-13 0
-8.92534e-09 3.62217e-13 0
-8.92574e-09 2.03685e-13 0
-8.92598e-09 1.09975e-13 0
-8.92612e-09 5.53937e-14 0
-8.9262e-09 2.42488e-14 0
-8.92625e-09 7.02432e-15 0
-8.92628e-09 -2.02077e-15 0
-8.9263e-09 -6.33229e-15 0
-8.9263e-09 -7.96714e-15 0
-8.92631e-09 -8.14433e-15 0
-8.92631e-09 -7.57777e-15 0
-8.92631e-09 -6.67837e-15 0
-8.9263e-09 -5.67512e-15 0
-8.9263e-09 -4.68911e-15 0
-8.9263e-09 -3.77578e-15 0
-8.9263e-09 -2.94508e-15 0
-8.9263e-09 -2.18105e-15 0
-8.9263e-09 -1.47195e-15 0
-8.9263e-09 -5.06495e-16 0
-8.92631e-09 3.41056e-15 0
-8.92632e-09 1.68535e-14 0
0.00786526 -5.31416e-09 0
0 9.47189e-10 0
6.47086e-14 2.98787e-09 0
-6.39592e-09 3.73602e-09 0
-1.1276e-08 6.24783e-10 0
-7.04397e-09 5.36263e-10 0
-1.94836e-09 2.02861e-09 0
-2.76527e-09 2.60213e-09 0
-3.78327e-09 9.79407e-10 0
-3.70514e-09 -5.64833e-11 0
-4.26864e-09 6.46922e-10 0
-4.75381e-09 1.16702e-09 0
-4.84796e-09 1.56975e-09 0
-5.0529e-09 1.59976e-09 0
-5.34299e-09 1.3158e-09 0
-5.69256e-09 9.80745e-10 0
-6.04702e-09 7.03268e-10 0
-6.34946e-09 4.9097e-10 0
-6.57724e-09 3.34002e-10 0
-6.73497e-09 2.21716e-10 0
-6.83816e-09 1.43966e-10 0
-6.90308e-09 9.17142e-11 0
-6.94285e-09 5.75022e-11 0
-6.96677e-09 3.55923e-11 0
-6.98101e-09 2.18142e-11 0
-6.98944e-09 1.32744e-11 0
-6.99443e-09 8.03977e-12 0
-6.9974e-09 4.85636e-12 0
-6.99917e-09 2.93027e-12 0
-7.00025e-09 1.76799e-12 0
-7.00091e-09 1.06705e-12 0
-7.00132e-09 6.43897e-13 0
-7.00158e-09 3.8793e-13 0
-7.00174e-09 2.32719e-13 0
-7.00185e-09 1.3841e-13 0
-7.00192e-09 8.10617e-14 0
-7.00196e-09 4.62439e-14 0
-7.00199e-09 2.52163e-14 0
-7.00201e-09 1.26546e-14 0
-7.00203e-09 5.29728e-15 0
-7.00204e-09 1.13538e-15 0
-7.00204e-09 -1.07374e-15 0
-7.00205e-09 -2.09711e-15 0
-7.00205e-09 -2.4013e-15 0
-7.00205e-09 -2.25842e-15 0
-7.00205e-09 -1.78874e-15 0
-7.00205e-09 -8.89022e-16 0
-7.00205e-09 9.70455e-16 0
-7.00205e-09 4.68128e-15 0
-7.00206e-09 1.01056e-14 0
-7.00206e-09 1.70112e-14 0
0.0100088 -6.12483e-09 0
0 -8.7731e-09 0
9.23062e-14 1.60323e-09 0
-4.57744e-09 1.65108e-10 0
-9.58084e-09 -4.33375e-09 0
-5.21356e-09 -3.65578e-09 0
-1.13754e-10 -7.60179e-10 0
-1.98021e-09 -2.56467e-14 0
-3.0835e-09 -2.64576e-09 0
-6.96589e-09 -5.13313e-09 0
-6.9964e-09 -3.3302e-09 0
-6.7315e-09 -2.84917e-10 0
-6.31214e-09 1.8489e-09 0
-5.92423e-09 2.50552e-09 0
-5.52478e-09 2.1342e-09 0
-5.30398e-09 1.57401e-09 0
-5.26953e-09 1.10303e-09 0
-5.32342e-09 7.46363e-10 0
-5.39287e-09 4.8964e-10 0
-5.44873e-09 3.12958e-10 0
-5.48616e-09 1.95903e-10 0
-5.50889e-09 1.20679e-10 0
-5.52191e-09 7.34718e-11 0
-5.52913e-09 4.43779e-11 0
-5.53307e-09 2.66834e-11 0
-5.53523e-09 1.6019e-11 0
-5.53645e-09 9.62616e-12 0
-5.53715e-09 5.80223e-12 0
-5.53759e-09 3.51338e-12 0
-5.53786e-09 2.13914e-12 0
-5.53804e-09 1.30989e-12 0
-5.53817e-09 8.06254e-13 0
-5.53826e-09 4.98147e-13 0
-5.53832e-09 3.08257e-13 0
-5.53836e-09 1.90425e-13 0
-5.5384e-09 1.16909e-13 0
-5.53842e-09 7.08902e-14 0
-5.53843e-09 4.20754e-14 0
-5.53844e-09 2.41019e-14 0
-5.53845e-09 1.29947e-14 0
-5.53846e-09 6.24979e-15 0
-5.53846e-09 2.2814e-15 0
-5.53846e-09 8.3344e-17 0
-5.53846e-09 -9.71964e-16 0
-5.53846e-09 -1.24748e-15 0
-5.53846e-09 -9.26699e-16 0
-5.53846e-09 -1.18931e-16 0
-5.53847e-09 1.0606e-15 0
-5.53846e-09 2.65739e-15 0
-5.53846e-09 5.26632e-15 0
-5.53846e-09 9.40418e-15 0
0.010397 -4.28669e-09 0
0 -1.69728e-08 0
7.78703e-14 -1.58795e-10 0
-4.64627e-09 -2.37151e-09 0
-1.02294e-08 -4.75383e-09 0
-8.23185e-09 -3.35982e-09 0
-2.74712e-14 -8.1875e-10 0
-3.17564e-13 -3.47388e-13 0
2.94657e-13 -3.39912e-13 0
-3.96808e-09 -3.1065e-09 0
-7.79913e-09 -4.79067e-09 0
-7.60832e-09 -1.5153e-09 0
-7.70475e-09 1.25942e-09 0
-7.53964e-09 2.10433e-09 0
-6.82164e-09 1.78107e-09 0
-6.12624e-09 1.33175e-09 0
-5.69186e-09 9.60496e-10 0
-5.46261e-09 6.58556e-10 0
-5.34453e-09 4.28827e-10 0
-5.28029e-09 2.68329e-10 0
-5.24267e-09 1.63459e-10 0
-5.21948e-09 9.79959e-11 0
-5.20491e-09 5.83123e-11 0
-5.19579e-09 3.46697e-11 0
-5.19016e-09 2.07014e-11 0
-5.18677e-09 1.24611e-11 0
-5.18477e-09 7.58098e-12 0
-5.18363e-09 4.66771e-12 0
-5.18298e-09 2.90943e-12 0
-5.18264e-09 1.83451e-12 0
-5.18246e-09 1.16832e-12 0
-5.18237e-09 7.49838e-13 0
-5.18233e-09 4.83661e-13 0
-5.18231e-09 3.12542e-13 0
-5.18231e-09 2.01613e-13 0
-5.18231e-09 1.29297e-13 0
-5.18232e-09 8.20316e-14 0
-5.18232e-09 5.11609e-14 0
-5.18232e-09 3.10872e-14 0
-5.18233e-09 1.815e-14 0
-5.18233e-09 9.93534e-15 0
-5.18233e-09 4.84209e-15 0
-5.18233e-09 1.80836e-15 0
-5.18233e-09 1.25226e-16 0
-5.18233e-09 -6.89376e-16 0
-5.18233e-09 -9.56969e-16 0
-5.18233e-09 -8.54482e-16 0
-5.18233e-09 -4.22034e-16 0
-5.18233e-09 4.05553e-16 0
-5.18233e-09 1.92726e-15 0
-5.18233e-09 4.29979e-15 0
0.0104481 -1.98321e-09 0
0 -1.51569e-08 0
6.27536e-14 -1.02277e-09 0
-4.80292e-09 -2.74559e-09 0
-1.05142e-08 -3.88107e-09 0
-1.01764e-08 -3.97731e-09 0
-3.23555e-09 -1.81905e-09 0
-3.06658e-13 2.98081e-13 0
-3.42704e-15 3.42704e-15 0
2.73094e-13 -3.16219e-13 0
-3.53448e-09 -1.94303e-09 0
-5.57585e-09 -1.58549e-09 0
-7.3092e-09 1.77059e-09 0
-8.62075e-09 2.37926e-09 0
-8.15412e-09 1.51616e-09 0
-7.08355e-09 8.94524e-10 0
-6.25464e-09 5.64518e-10 0
-5.76273e-09 3.53692e-10 0
-5.49014e-09 2.11167e-10 0
-5.33834e-09 1.21076e-10 0
-5.25205e-09 6.81622e-11 0
-5.20229e-09 3.85479e-11 0
-5.17343e-09 2.23258e-11 0
-5.15669e-09 1.34154e-11 0
-5.14703e-09 8.404e-12 0
-5.14147e-09 5.47222e-12 0
-5.13829e-09 3.67431e-12 0
-5.13648e-09 2.51985e-12 0
-5.13546e-09 1.74979e-12 0
-5.13488e-09 1.22189e-12 0
-5.13456e-09 8.53739e-13 0
-5.13438e-09 5.94698e-13 0
-5.13428e-09 4.11884e-13 0
-5.13422e-09 2.83008e-13 0
-5.13419e-09 1.92509e-13 0
-5.13417e-09 1.29339e-13 0
-5.13416e-09 8.55797e-14 0
-5.13416e-09 5.55462e-14 0
-5.13416e-09 3.51605e-14 0
-5.13416e-09 2.15089e-14 0
-5.13415e-09 1.25184e-14 0
-5.13415e-09 6.72314e-15 0
-5.13415e-09 3.09232e-15 0
-5.13415e-09 9.08394e-16 0
-5.13415e-09 -3.19471e-16 0
-5.13415e-09 -9.26364e-16 0
-5.13415e-09 -1.15774e-15 0
-5.13415e-09 -1.19776e-15 0
-5.13415e-09 -1.11823e-15 0
-5.13415e-09 -7.65831e-16 0
-5.13415e-09 5.18589e-18 0
0.0104529 2.98939e-10 0
0 -1.07923e-08 0
5.76744e-14 -1.42401e-09 0
-4.56007e-09 -3.17547e-09 0
-1.02848e-08 -2.91506e-09 0
-1.06219e-08 -2.12921e-09 0
-7.15699e-09 -2.16625e-09 0
-2.63586e-09 -1.20064e-09 0
-3.07579e-13 2.88582e-13 0
-1.54911e-14 1.54911e-14 0
2.49337e-13 -2.96849e-13 0
-2.05481e-09 1.62344e-09 0
-5.71963e-09 4.24355e-09 0
-9.61416e-09 3.73749e-09 0
-9.80177e-09 1.32636e-09 0
-8.08706e-09 1.90083e-10 0
-6.67109e-09 -6.84655e-11 0
-5.90563e-09 -9.54773e-11 0
-5.5382e-09 -8.16942e-11 0
-5.36267e-09 -6.06269e-11 0
-5.2764e-09 -4.03335e-11 0
-5.2327e-09 -2.43097e-11 0
-5.20998e-09 -1.32763e-11 0
-5.19787e-09 -6.42259e-12 0
-5.19127e-09 -2.52144e-12 0
-5.18759e-09 -4.92727e-13 0
-5.18548e-09 4.40649e-13 0
-5.18426e-09 7.78567e-13 0
-5.18354e-09 8.19016e-13 0
-5.1831e-09 7.28839e-13 0
-5.18283e-09 5.95658e-13 0
-5.18265e-09 4.61811e-13 0
-5.18255e-09 3.45054e-13 0
-5.18248e-09 2.50572e-13 0
-5.18243e-09 1.77653e-13 0
-5.1824e-09 1.23227e-13 0
-5.18238e-09 8.36377e-14 0
-5.18236e-09 5.54563e-14 0
-5.18235e-09 3.57842e-14 0
-5.18235e-09 2.23101e-14 0
-5.18234e-09 1.32647e-14 0
-5.18234e-09 7.32945e-15 0
-5.18234e-09 3.54067e-15 0
-5.18233e-09 1.20693e-15 0
-5.18233e-09 -1.65774e-16 0
-5.18233e-09 -9.38742e-16 0
-5.18233e-09 -1.40468e-15 0
-5.18233e-09 -1.84558e-15 0
-5.18233e-09 -2.50933e-15 0
-5.18233e-09 -3.45059e-15 0
-5.18233e-09 -4.39033e-15 0
0.0104481 2.53879e-09 0
0 -7.79414e-09 0
4.82011e-14 -1.71388e-09 0
-4.6163e-09 -3.30002e-09 0
-9.85714e-09 -2.42673e-09 0
-1.0292e-08 -1.17381e-09 0
-7.79792e-09 -1.05214e-09 0
-5.73822e-09 -2.62653e-09 0
-3.5297e-09 -1.90761e-09 0
-3.22749e-13 2.54416e-13 0
2.23471e-13 2.33633e-13 0
2.55517e-15 3.23429e-09 0
-2.90389e-09 7.78481e-09 0
-7.75842e-09 5.92933e-09 0
-9.53694e-09 1.01602e-09 0
-8.27982e-09 -8.61331e-10 0
-6.81651e-09 -8.19995e-10 0
-6.02439e-09 -5.10826e-10 0
-5.69954e-09 -2.99377e-10 0
-5.58485e-09 -1.72301e-10 0
-5.54936e-09 -9.62444e-11 0
-5.54043e-09 -5.17052e-11 0
-5.53921e-09 -2.65476e-11 0
-5.53963e-09 -1.28634e-11 0
-5.54003e-09 -5.69711e-12 0
-5.54013e-09 -2.10522e-12 0
-5.54002e-09 -4.12813e-13 0
-5.53979e-09 3.0353e-13 0
-5.53954e-09 5.39948e-13 0
-5.53931e-09 5.56211e-13 0
-5.53911e-09 4.84027e-13 0
-5.53894e-09 3.87086e-13 0
-5.53882e-09 2.93788e-13 0
-5.53872e-09 2.14835e-13 0
-5.53865e-09 1.52513e-13 0
-5.5386e-09 1.05469e-13 0
-5.53856e-09 7.10923e-14 0
-5.53853e-09 4.66158e-14 0
-5.53851e-09 2.95826e-14 0
-5.5385e-09 1.79875e-14 0
-5.53849e-09 1.02742e-14 0
-5.53848e-09 5.27644e-15 0
-5.53847e-09 2.13993e-15 0
-5.53847e-09 2.46754e-16 0
-5.53847e-09 -8.49584e-16 0
-5.53847e-09 -1.47965e-15 0
-5.53847e-09 -1.92088e-15 0
-5.53846e-09 -2.50234e-15 0
-5.53846e-09 -3.7275e-15 0
-5.53846e-09 -6.1682e-15 0
-5.53846e-09 -9.58953e-15 0
0.010397 4.69246e-09 0
0 -7.17248e-09 0
3.6588e-14 -1.73309e-09 0
-5.14732e-09 -3.18172e-09 0
-9.82598e-09 -2.06104e-09 0
-1.04327e-08 -8.13323e-10 0
-8.65434e-09 -4.95715e-10 0
-6.60165e-09 -1.41768e-09 0
-6.42462e-09 -4.02814e-09 0
-4.8276e-09 -2.90527e-09 0
-7.2782e-09 2.82218e-19 0
-8.50359e-09 3.06478e-09 0
-5.35367e-09 7.96256e-09 0
-4.08699e-09 6.74497e-09 0
-6.20016e-09 1.40339e-09 0
-7.1872e-09 -1.14224e-09 0
-7.07472e-09 -1.1138e-09 0
-6.91477e-09 -6.16189e-10 0
-6.88773e-09 -2.92862e-10 0
-6.91678e-09 -1.33718e-10 0
-6.95099e-09 -6.04158e-11 0
-6.97563e-09 -2.69438e-11 0
-6.9904e-09 -1.15904e-11 0
-6.9983e-09 -4.54592e-12 0
-7.0021e-09 -1.36881e-12 0
-7.00366e-09 -1.10837e-14 0
-7.00409e-09 4.94069e-13 0
-7.004e-09 6.11665e-13 0
-7.00372e-09 5.6656e-13 0
-7.00339e-09 4.65778e-13 0
-7.00308e-09 3.57866e-13 0
-7.00283e-09 2.62546e-13 0
-7.00262e-09 1.8575e-13 0
-7.00247e-09 1.27231e-13 0
-7.00235e-09 8.43564e-14 0
-7.00226e-09 5.39077e-14 0
-7.0022e-09 3.28722e-14 0
-7.00215e-09 1.87293e-14 0
-7.00212e-09 9.49669e-15 0
-7.0021e-09 3.68072e-15 0
-7.00208e-09 1.86839e-16 0
-7.00207e-09 -1.7686e-15 0
-7.00206e-09 -2.73658e-15 0
-7.00206e-09 -3.1025e-15 0
-7.00206e-09 -3.1393e-15 0
-7.00205e-09 -3.05436e-15 0
-7.00205e-09 -3.02716e-15 0
-7.00205e-09 -3.31566e-15 0
-7.00205e-09 -4.62024e-15 0
-7.00205e-09 -8.64262e-15 0
-7.00206e-09 -1.64328e-14 0
0.0100088 6.20923e-09 0
0 -7.80624e-09 0
2.45371e-14 -1.10931e-09 0
-5.62801e-09 -2.00617e-09 0
-9.71081e-09 -1.27021e-09 0
-1.06288e-08 -6.48415e-10 0
-1.01954e-08 -9.47547e-10 0
-9.01203e-09 -1.75366e-09 0
-8.22636e-09 -2.04732e-09 0
-9.64846e-09 1.35094e-09 0
-9.99425e-09 4.71884e-09 0
-9.93728e-09 1.66332e-09 0
-7.28741e-09 -2.74851e-09 0
-6.07758e-09 -2.96629e-09 0
-8.06894e-09 -8.17595e-10 0
-9.33222e-09 6.1207e-10 0
-9.33685e-09 8.37226e-10 0
-9.10993e-09 5.61729e-10 0
-8.98071e-09 2.90567e-10 0
-8.93382e-09 1.33049e-10 0
-8.92261e-09 5.76428e-11 0
-8.92261e-09 2.45705e-11 0
-8.92471e-09 1.0575e-11 0
-8.92636e-09 4.67224e-12 0
-8.92721e-09 2.13123e-12 0
-8.92748e-09 9.95235e-13 0
-8.92743e-09 4.62949e-13 0
-8.92725e-09 2.01968e-13 0
-8.92703e-09 6.98462e-14 0
-8.92683e-09 2.49457e-15 0
-8.92667e-09 -3.06893e-14 0
-8.92655e-09 -4.52617e-14 0
-8.92645e-09 -4.9594e-14 0
-8.92639e-09 -4.83944e-14 0
-8.92635e-09 -4.4386e-14 0
-8.92632e-09 -3.91601e-14 0
-8.9263e-09 -3.36352e-14 0
-8.92629e-09 -2.83228e-14 0
-8.92628e-09 -2.34853e-14 0
-8.92628e-09 -1.92337e-14 0
-8.92628e-09 -1.55901e-14 0
-8.92628e-09 -1.25275e-14 0
-8.92628e-09 -9.99458e-15 0
-8.92628e-09 -7.93255e-15 0
-8.92628e-09 -6.28913e-15 0
-8.92629e-09 -5.03293e-15 0
-8.92629e-09 -4.16754e-15 0
-8.92629e-09 -3.7809e-15 0
-8.92629e-09 -4.41565e-15 0
-8.92629e-09 -8.50424e-15 0
-8.92631e-09 -1.96168e-14 0
0.00786526 5.00791e-09 0
0 0 0
1.07845e-14 0 0
-2.83206e-09 0 0
-4.71541e-09 0 0
-5.30582e-09 0 0
-5.41751e-09 0 0
-5.51274e-09 0 0
-5.33143e-09 0 0
-4.82089e-09 0 0
-2.71608e-09 0 0
-1.43369e-09 0 0
-2.58852e-09 0 0
-4.75695e-09 0 0
-6.073e-09 0 0
-6.13979e-09 0 0
-5.6706e-09 0 0
-5.25929e-09 0 0
-5.02807e-09 0 0
-4.92062e-09 0 0
-4.87546e-09 0 0
-4.85758e-09 0 0
-4.85078e-09 0 0
-4.84827e-09 0 0
-4.84739e-09 0 0
-4.8471e-09 0 0
-4.84704e-09 0 0
-4.84705e-09 0 0
-4.84709e-09 0 0
-4.84714e-09 0 0
-4.84719e-09 0 0
-4.84723e-09 0 0
-4.84727e-09 0 0
-4.8473e-09 0 0
-4.84733e-09 0 0
-4.84735e-09 0 0
-4.84737e-09 0 0
-4.84739e-09 0 0
-4.8474e-09 0 0
-4.84741e-09 0 0
-4.84742e-09 0 0
-4.84743e-09 0 0
-4.84743e-09 0 0
-4.84744e-09 0 0
-4.84744e-09 0 0
-4.84744e-09 0 0
-4.84745e-09 0 0
-4.84745e-09 0 0
-4.84745e-09 0 0
-4.84745e-09 0 0
-4.84746e-09 0 0
0.00303178 0 0
0 0 8.12604e-09
3.43625e-14 0 1.8283e-09
-8.68869e-09 0 3.06196e-09
-1.55262e-08 0 -1.20066e-10
-1.67138e-08 0 -6.26742e-09
-1.64886e-09 0 -7.02144e-09
2.72063e-09 0 -2.66328e-09
2.15436e-09 0 -1.83561e-10
-3.6717e-10 0 7.66736e-10
-3.13334e-09 0 4.60643e-10
-4.94006e-09 0 -6.97858e-11
-6.01449e-09 0 -2.92205e-10
-6.74641e-09 0 -2.59162e-10
-7.2885e-09 0 -1.50312e-10
-7.71241e-09 0 -6.0855e-11
-8.05755e-09 0 -1.03347e-11
-8.33236e-09 0 1.04886e-11
-8.5397e-09 0 1.5113e-11
-8.68792e-09 0 1.30897e-11
-8.7893e-09 0 9.4119e-12
-8.85629e-09 0 6.09858e-12
-8.89941e-09 0 3.68134e-12
-8.92662e-09 0 2.10135e-12
-8.94354e-09 0 1.13974e-12
-8.95394e-09 0 5.85178e-13
-8.9603e-09 0 2.79984e-13
-8.96416e-09 0 1.19789e-13
-8.96651e-09 0 4.03144e-14
-8.96793e-09 0 3.93847e-15
-8.9688e-09 0 -1.04763e-14
-8.96933e-09 0 -1.43675e-14
-8.96966e-09 0 -1.36825e-14
-8.96986e-09 0 -1.13664e-14
-8.96998e-09 0 -8.77861e-15
-8.97005e-09 0 -6.47426e-15
-8.9701e-09 0 -4.6199e-15
-8.97013e-09 0 -3.21236e-15
-8.97015e-09 0 -2.18432e-15
-8.97015e-09 0 -1.4528e-15
-8.97016e-09 0 -9.42617e-16
-8.97016e-09 0 -5.90389e-16
-8.97016e-09 0 -3.45961e-16
-8.97016e-09 0 -1.69605e-16
-8.97016e-09 0 -2.69208e-17
-8.97016e-09 0 1.14888e-16
-8.97016e-09 0 2.65902e-16
-8.97017e-09 0 3.49901e-16
-8.97017e-09 0 4.77288e-16
-8.97017e-09 0 3.11568e-15
-8.97018e-09 0 1.50355e-14
0.00786071 0 -4.38083e-09
0.0036 3.38644e-09 3.73485e-09
0.00359999 -0.00201517 -0.00059828
0.00823893 -0.00574139 -0.00190744
0.0170208 -0.00887347 -0.00330139
0.0288121 -0.0123934 -0.00424505
0.0465969 -0.00814343 -0.00272697
0.0484813 -4.20221e-05 -0.000316183
0.0477837 0.00323404 0.000552366
0.0424296 0.00484821 0.000527875
0.0368772 0.00455505 3.36763e-05
0.0320123 0.0036842 -0.000268578
0.0281263 0.00273151 -0.00030789
0.025331 0.00188751 -0.000224856
0.0234818 0.00123861 -0.000129519
0.0223159 0.000787356 -6.29889e-05
0.0216019 0.000489304 -2.64008e-05
0.021175 0.000297795 -9.31421e-06
0.0209254 0.000177587 -2.40772e-06
0.0207829 0.000103852 -7.82779e-08
0.0207033 5.96031e-05 4.58197e-07
0.02066 3.35813e-05 4.12953e-07
0.0206372 1.85644e-05 2.47911e-07
0.0206256 1.0054e-05 1.07921e-07
0.0206201 5.31812e-06 1.96958e-08
0.0206177 2.73324e-06 -2.59814e-08
0.0206168 1.3528e-06 -4.42529e-08
0.0206167 6.3462e-07 -4.73127e-08
0.0206168 2.73324e-07 -4.31041e-08
0.0206171 9.9874e-08 -3.61999e-08
0.0206174 2.2414e-08 -2.89637e-08
0.0206176 -7.92273e-09 -2.24592e-08
0.0206177 -1.64659e-08 -1.70489e-08
0.0206179 -1.59044e-08 -1.27506e-08
0.020618 -1.22911e-08 -9.43501e-09
0.020618 -8.29552e-09 -6.92795e-09
0.0206181 -4.92997e-09 -5.05846e-09
0.0206181 -2.44359e-09 -3.67822e-09
0.0206181 -7.69658e-10 -2.66661e-09
0.0206182 2.60798e-10 -1.9294e-09
0.0206182 8.24845e-10 -1.39491e-09
0.0206182 1.07196e-09 -1.00992e-09
0.0206182 1.11534e-09 -7.35888e-10
0.0206182 1.03438e-09 -5.4613e-10
0.0206182 8.80681e-10 -4.23437e-10
0.0206182 6.82126e-10 -3.59339e-10
0.0206182 4.36789e-10 -3.56779e-10
0.0206182 1.31646e-10 -3.82836e-10
0.0206182 -2.43432e-10 -2.72817e-10
0.0206182 -2.045e-09 -1.02272e-09
0.0206182 -9.63266e-09 -6.81062e-09
0.0206182 -1.56256e-08 -1.17279e-08
0.01 3.1971e-09 -1.03393e-08
0.01 -0.00410172 -0.00115746
0.015306 -0.0120337 -0.00305882
0.0244119 -0.0186935 -0.00439516
0.0365569 -0.0271695 -0.00424826
0.0553487 -0.0178732 -0.00110081
0.054293 -0.000705877 0.00153373
0.0548623 0.0060687 0.00184298
0.0489444 0.0108927 0.0013878
0.0426799 0.0105379 0.000334913
0.0374593 0.0089336 -0.000343176
0.0333288 0.00684195 -0.000473564
0.0304888 0.00475182 -0.000359031
0.0287433 0.00307414 -0.000209815
0.0277168 0.00190743 -0.000102213
0.0271283 0.00115181 -4.24244e-05
0.0267998 0.00067981 -1.43884e-05
0.026622 0.000392585 -3.03261e-06
0.0265292 0.000221796 7.66176e-07
0.0264829 0.000122423 1.56636e-06
0.0264614 6.58115e-05 1.37559e-06
0.0264525 3.42471e-05 9.76986e-07
0.0264497 1.70545e-05 6.26493e-07
0.0264497 7.94331e-06 3.77355e-07
0.0264508 3.2814e-06 2.17292e-07
0.0264521 1.01174e-06 1.20538e-07
0.0264533 -8.294e-09 6.45003e-08
0.0264544 -4.00294e-07 3.31355e-08
0.0264552 -4.94228e-07 1.6121e-08
0.0264558 -4.59919e-07 7.19186e-09
0.0264563 -3.81076e-07 2.69298e-09
0.0264566 -2.96275e-07 5.54785e-10
0.0264569 -2.21217e-07 -3.65191e-10
0.0264571 -1.60573e-07 -6.82573e-10
0.0264572 -1.14104e-07 -7.20511e-10
0.0264573 -7.97158e-08 -6.43243e-10
0.0264573 -5.48941e-08 -5.30567e-10
0.0264574 -3.73176e-08 -4.18581e-10
0.0264574 -2.50665e-08 -3.21573e-10
0.0264574 -1.66467e-08 -2.43598e-10
0.0264574 -1.09404e-08 -1.84511e-10
0.0264574 -7.1348e-09 -1.4312e-10
0.0264574 -4.65434e-09 -1.18894e-10
0.0264574 -3.10588e-09 -1.12485e-10
0.0264574 -2.23775e-09 -1.23815e-10
0.0264575 -1.94036e-09 -1.53574e-10
0.0264575 -2.46671e-09 -1.8778e-10
0.0264575 -4.71375e-09 -9.41484e-11
0.0264575 -9.10299e-09 -1.20155e-09
0.0264575 -1.52243e-08 -8.7243e-09
0.0264575 -1.86674e-08 -1.50317e-08
0.0148 -1.37418e-08 -1.37665e-08
0.0148 -0.00597619 -0.0016751
0.0193362 -0.0169025 -0.00442176
0.0252006 -0.0261145 -0.00586046
0.0292742 -0.0392947 -0.00469677
0.02788 -0.0241068 -0.00075632
0.0260312 -1.61564e-07 0.00153772
0.0264922 0.00806912 0.00166663
0.0315028 0.0167769 0.00150174
0.0312533 0.0161255 0.000645094
0.0296102 0.0132768 -2.97659e-05
0.0282721 0.00993012 -0.000281484
0.0275249 0.00662954 -0.000259075
0.0272739 0.00409847 -0.000159432
0.0272315 0.00244386 -7.21474e-05
0.0272636 0.00142279 -2.18543e-05
0.0273175 0.000809116 -1.01914e-08
0.0273713 0.000448777 6.66803e-06
0.0274163 0.000242163 7.01557e-06
0.0274507 0.000126497 5.42935e-06
0.0274756 6.33328e-05 3.68504e-06
0.0274929 2.9779e-05 2.32218e-06
0.0275047 1.2549e-05 1.39437e-06
0.0275126 4.10439e-06 8.08785e-07
0.0275178 2.57667e-07 4.56573e-07
0.0275214 -1.2681e-06 2.51767e-07
0.0275237 -1.68218e-06 1.35708e-07
0.0275252 -1.60842e-06 7.13437e-08
0.0275263 -1.35623e-06 3.63567e-08
0.027527 -1.07006e-06 1.77324e-08
0.0275275 -8.10453e-07 8.05938e-09
0.0275278 -5.97116e-07 3.19626e-09
0.027528 -4.31266e-07 8.66249e-10
0.0275281 -3.06801e-07 -1.62757e-10
0.0275282 -2.1564e-07 -5.46458e-10
0.0275283 -1.50051e-07 -6.26893e-10
0.0275284 -1.03505e-07 -5.77875e-10
0.0275284 -7.08414e-08 -4.84465e-10
0.0275284 -4.81384e-08 -3.85904e-10
0.0275284 -3.24992e-08 -2.98515e-10
0.0275284 -2.18255e-08 -2.27785e-10
0.0275284 -1.46241e-08 -1.7462e-10
0.0275284 -9.85211e-09 -1.38319e-10
0.0275284 -6.80845e-09 -1.18008e-10
0.0275284 -5.08414e-09 -1.16264e-10
0.0275285 -4.53372e-09 -1.4974e-10
0.0275285 -5.06543e-09 -2.38451e-10
0.0275285 -6.4702e-09 -3.17659e-10
0.0275285 -8.78151e-09 -1.72491e-09
0.0275285 -1.19502e-08 -9.16564e-09
0.0275285 -1.36958e-08 -1.52186e-08
0.018 -3.10616e-08 -1.95936e-08
0.018 -0.00662111 -0.00245021
0.0197304 -0.0172356 -0.00643029
0.0197828 -0.0217855 -0.00736347
0.0160811 -0.0232451 -0.00577569
-1.46675e-08 -0.0120742 -0.00239232
1.64431e-06 5.84551e-07 7.48614e-09
-6.59454e-07 6.99308e-07 0.000304697
0.00795418 0.00572857 0.000601505
0.0165831 0.0123557 0.000480957
0.0197601 0.0120216 0.000195514
0.0213012 0.00907488 -7.20831e-05
0.0229906 0.00586633 -0.000160152
0.0245305 0.00343601 -0.000113732
0.025667 0.00194813 -4.45628e-05
0.0264268 0.00107473 -1.9758e-06
0.0269123 0.000571731 1.40813e-05
0.0272146 0.000290634 1.58789e-05
0.0273991 0.000139189 1.25745e-05
0.0275101 6.0798e-05 8.57169e-06
0.0275762 2.20927e-05 5.36933e-06
0.0276151 4.19371e-06 3.18395e-06
0.0276379 -3.20844e-06 1.81503e-06
0.0276513 -5.5681e-06 1.00243e-06
0.0276591 -5.68055e-06 5.37813e-07
0.0276637 -4.92502e-06 2.79754e-07
0.0276664 -3.94651e-06 1.40004e-07
0.027668 -3.02066e-06 6.62281e-08
0.0276689 -2.24448e-06 2.84261e-08
0.0276695 -1.6338e-06 9.82134e-09
0.0276698 -1.17151e-06 1.21999e-09
0.02767 -8.30383e-07 -2.32379e-09
0.0276702 -5.8318e-07 -3.41919e-09
0.0276703 -4.06429e-07 -3.4108e-09
0.0276703 -2.8136e-07 -2.96989e-09
0.0276703 -1.93606e-07 -2.41588e-09
0.0276704 -1.32472e-07 -1.8887e-09
0.0276704 -9.01515e-08 -1.43984e-09
0.0276704 -6.10312e-08 -1.07957e-09
0.0276704 -4.1117e-08 -8.00815e-10
0.0276704 -2.75952e-08 -5.90969e-10
0.0276704 -1.85035e-08 -4.37508e-10
0.0276704 -1.24919e-08 -3.30985e-10
0.0276704 -8.64864e-09 -2.67217e-10
0.0276704 -6.35018e-09 -2.52766e-10
0.0276704 -5.13874e-09 -3.2068e-10
0.0276704 -4.68624e-09 -4.89969e-10
0.0276704 -4.75514e-09 -6.27459e-10
0.0276704 -5.31892e-09 -2.0368e-09
0.0276704 -6.31689e-09 -9.18361e-09
0.0276704 -6.88865e-09 -1.49504e-08
0.0196 -3.74818e-08 -3.60977e-08
0.0196 -0.00501152 -0.00315495
0.0190442 -0.0113839 -0.00765223
0.0165838 -0.0133007 -0.0077737
0.0122573 -0.0114296 -0.00575678
0.00283824 -0.0045013 -0.00307079
1.25686e-06 -1.16166e-06 -0.000590393
5.02208e-07 -5.02208e-07 -8.36657e-10
-6.38317e-07 6.80591e-07 6.66397e-05
0.00570961 0.00420851 0.00014985
0.0123193 0.00853975 0.000120257
0.0152348 0.00675475 -5.55018e-05
0.0188873 0.00347811 -0.000199251
0.0221451 0.00147572 -0.00016699
0.0244165 0.000569739 -7.77315e-05
0.0258151 0.000180105 -1.42849e-05
0.0266316 1.6335e-05 1.16674e-05
0.0270976 -4.42909e-05 1.61223e-05
0.0273601 -5.85411e-05 1.29091e-05
0.0275065 -5.40736e-05 8.56439e-06
0.0275875 -4.38314e-05 5.1515e-06
0.027632 -3.3292e-05 2.91252e-06
0.0276562 -2.43758e-05 1.57232e-06
0.0276693 -1.74584e-05 8.1413e-07
0.0276763 -1.23329e-05 4.02254e-07
0.0276801 -8.63506e-06 1.86135e-07
0.027682 -6.01003e-06 7.67736e-08
0.027683 -4.16541e-06 2.39523e-08
0.0276835 -2.87771e-06 2.21135e-10
0.0276837 -1.98281e-06 -9.05228e-09
0.0276838 -1.36289e-06 -1.14866e-08
0.0276839 -9.34557e-07 -1.09445e-08
0.0276839 -6.39253e-07 -9.31617e-09
0.0276839 -4.36092e-07 -7.47704e-09
0.0276839 -2.96622e-07 -5.79441e-09
0.0276838 -2.01099e-07 -4.39059e-09
0.0276838 -1.35842e-07 -3.27693e-09
0.0276838 -9.13921e-08 -2.42039e-09
0.0276838 -6.12207e-08 -1.77508e-09
0.0276838 -4.08287e-08 -1.29638e-09
0.0276838 -2.71241e-08 -9.46561e-10
0.0276838 -1.79868e-08 -6.96703e-10
0.0276838 -1.19643e-08 -5.27525e-10
0.0276838 -8.0561e-09 -4.30038e-10
0.0276838 -5.56632e-09 -4.0575e-10
0.0276838 -3.99506e-09 -4.74039e-10
0.0276838 -2.95116e-09 -6.41553e-10
0.0276838 -2.09063e-09 -7.64122e-10
0.0276838 -1.2258e-09 -2.13864e-09
0.0276838 -3.20142e-10 -9.14358e-09
0.0276838 1.46678e-10 -1.47904e-08
0.0196 -1.95814e-08 -4.99428e-08
0.0196 -0.00284654 -0.00342901
0.0191042 -0.00588099 -0.00767663
0.0180949 -0.00534494 -0.00743005
0.0150289 -0.00183022 -0.00523787
0.011226 0.0040358 -0.00319401
0.00688714 0.00355554 -0.00140406
1.25791e-06 -1.06541e-06 -0.000265547
4.27095e-07 -4.27095e-07 -1.97483e-09
-6.12578e-07 6.64055e-07 1.74465e-05
0.00420294 0.00247385 0.000277829
0.00912388 0.00255027 0.000250218
0.0154763 -0.000943552 -0.000177317
0.0208142 -0.00201136 -0.000306029
0.0241449 -0.00168168 -0.000201498
0.0259046 -0.00112979 -7.95113e-05
0.0267871 -0.000713292 -1.7267e-05
0.0272294 -0.000443497 2.77081e-06
0.0274525 -0.000274665 5.92496e-06
0.0275649 -0.000169994 4.55722e-06
0.0276211 -0.000105413 2.77186e-06
0.0276489 -6.56593e-05 1.49684e-06
0.0276622 -4.11666e-05 7.37957e-07
0.0276683 -2.60164e-05 3.27692e-07
0.0276709 -1.65844e-05 1.21186e-07
0.0276718 -1.06639e-05 2.47278e-08
0.0276719 -6.91355e-06 -1.56142e-08
0.0276718 -4.51539e-06 -2.89049e-08
0.0276715 -2.96782e-06 -3.00878e-08
0.0276713 -1.96071e-06 -2.6518e-08
0.0276711 -1.30043e-06 -2.16287e-08
0.0276709 -8.64809e-07 -1.68953e-08
0.0276708 -5.75961e-07 -1.28533e-08
0.0276707 -3.8371e-07 -9.6121e-09
0.0276706 -2.55425e-07 -7.10569e-09
0.0276705 -1.69706e-07 -5.21115e-09
0.0276705 -1.12418e-07 -3.80052e-09
0.0276705 -7.41674e-08 -2.76117e-09
0.0276704 -4.86823e-08 -2.00146e-09
0.0276704 -3.17618e-08 -1.45031e-09
0.0276704 -2.05839e-08 -1.05466e-09
0.0276704 -1.32477e-08 -7.76638e-10
0.0276704 -8.46753e-09 -5.91189e-10
0.0276704 -5.36526e-09 -4.84135e-10
0.0276704 -3.32561e-09 -4.53056e-10
0.0276704 -1.89221e-09 -5.16809e-10
0.0276704 -6.74318e-10 -6.82074e-10
0.0276704 7.60267e-10 -7.89533e-10
0.0276704 2.84281e-09 -2.11805e-09
0.0276704 5.62718e-09 -9.10142e-09
0.0276704 7.16075e-09 -1.47582e-08
0.018 -1.19577e-08 -4.94578e-08
0.018 -0.00110457 -0.00336976
0.018657 -0.0016292 -0.0072685
0.0195049 -0.000106975 -0.00667417
0.0193798 0.00250966 -0.0045121
0.019312 0.00783787 -0.00275539
0.0196392 0.0129471 -0.00144766
0.0121164 0.00720119 -0.000658422
1.28767e-06 -8.43151e-07 -0.000229421
-4.98319e-07 -9.59464e-07 7.77549e-09
1.28006e-07 -0.000674358 0.000856916
0.00954164 -0.00456801 0.00112815
0.017553 -0.00808935 0.00014979
0.022848 -0.00703858 -0.000303651
0.0256592 -0.00442292 -0.000287541
0.0268752 -0.00242105 -0.000148148
0.0273388 -0.00129703 -5.73182e-05
0.0275017 -0.000708888 -1.8928e-05
0.0275522 -0.000395753 -5.64644e-06
0.0275623 -0.000224401 -1.56239e-06
0.0275594 -0.000128869 -4.32819e-07
0.0275531 -7.49137e-05 -1.62139e-07
0.027547 -4.40934e-05 -1.0892e-07
0.027542 -2.6284e-05 -9.6472e-08
0.0275382 -1.58673e-05 -8.5223e-08
0.0275354 -9.69728e-06 -7.10371e-08
0.0275334 -5.99537e-06 -5.62972e-08
0.0275319 -3.74583e-06 -4.30481e-08
0.0275309 -2.36194e-06 -3.21407e-08
0.0275301 -1.50077e-06 -2.3629e-08
0.0275296 -9.59273e-07 -1.72032e-08
0.0275293 -6.15704e-07 -1.24508e-08
0.027529 -3.96081e-07 -8.98013e-09
0.0275289 -2.54872e-07 -6.46478e-09
0.0275287 -1.63715e-07 -4.64989e-09
0.0275286 -1.04739e-07 -3.34363e-09
0.0275286 -6.65713e-08 -2.40476e-09
0.0275285 -4.19123e-08 -1.73062e-09
0.0275285 -2.60424e-08 -1.24732e-09
0.0275285 -1.58927e-08 -9.02201e-10
0.0275285 -9.45782e-09 -6.58353e-10
0.0275285 -5.42042e-09 -4.90855e-10
0.0275285 -2.9073e-09 -3.84435e-10
0.0275285 -1.32784e-09 -3.32076e-10
0.0275285 -2.62661e-10 -3.35974e-10
0.0275285 6.16941e-10 -4.18734e-10
0.0275285 1.62716e-09 -5.92859e-10
0.0275285 3.24287e-09 -6.8691e-10
0.0275285 6.29907e-09 -1.9336e-09
0.0275285 1.11078e-08 -8.97097e-09
0.0275285 1.38967e-08 -1.47474e-08
0.0148 -8.05802e-09 -4.28976e-08
0.0148 -0.000172996 -0.00317336
0.0169306 0.000436383 -0.00653382
0.0197773 0.00215285 -0.0056118
0.0222012 0.00452091 -0.00364132
0.0242191 0.00752337 -0.00237137
0.0274344 0.0126456 -0.00151377
0.0304757 0.0203499 -0.000827057
0.024724 0.0122503 -0.000119443
0.0256623 1.49847e-14 0.000532297
0.0302902 -0.00738793 0.00174202
0.0349275 -0.0153811 0.00227645
0.0341722 -0.0142242 0.00104381
0.0314085 -0.00994106 -4.28846e-05
0.029214 -0.00556309 -0.000371566
0.0279531 -0.00273341 -0.000265601
0.027284 -0.00130884 -0.000125889
0.0269259 -0.000645956 -5.05767e-05
0.026729 -0.000331829 -1.89425e-05
0.026618 -0.000176194 -6.87059e-06
0.026554 -9.59272e-05 -2.44463e-06
0.0265165 -5.32445e-05 -8.50131e-07
0.0264941 -3.00171e-05 -2.80626e-07
0.0264806 -1.71459e-05 -7.90824e-08
0.0264722 -9.90558e-06 -9.57316e-09
0.026467 -5.77943e-06 1.24407e-08
0.0264637 -3.4003e-06 1.74453e-08
0.0264615 -2.01379e-06 1.65769e-08
0.0264602 -1.19797e-06 1.3958e-08
0.0264593 -7.13917e-07 1.11116e-08
0.0264587 -4.24754e-07 8.56909e-09
0.0264583 -2.51182e-07 6.47482e-09
0.026458 -1.46751e-07 4.82314e-09
0.0264578 -8.39696e-08 3.55522e-09
0.0264577 -4.64053e-08 2.59962e-09
0.0264576 -2.41532e-08 1.88886e-09
0.0264576 -1.1199e-08 1.36529e-09
0.0264575 -3.87025e-09 9.82265e-10
0.0264575 8.31434e-11 7.03143e-10
0.0264575 2.04233e-09 4.99611e-10
0.0264575 2.85541e-09 3.49729e-10
0.0264575 3.04439e-09 2.36e-10
0.0264575 2.93477e-09 1.43473e-10
0.0264575 2.73944e-09 5.80065e-11
0.0264575 2.61788e-09 -3.63631e-11
0.0264575 2.7245e-09 -1.6836e-10
0.0264575 3.25194e-09 -3.56574e-10
0.0264575 4.60559e-09 -4.48803e-10
0.0264575 8.07353e-09 -1.57905e-09
0.0264575 1.46589e-08 -8.52226e-09
0.0264575 1.87332e-08 -1.43196e-08
0.01 -1.49106e-08 -3.8906e-08
0.01 -6.83682e-05 -0.0026935
0.0126111 0.000516287 -0.00514945
0.0162318 0.00166608 -0.00396295
0.019916 0.00312864 -0.00240387
0.024208 0.00575335 -0.00173268
0.0296278 0.0084191 -0.00172329