# vtk DataFile Version 2.0
Tobias Weinzierl: CPU, Manycore and Cluster Computing
ASCII

DATASET STRUCTURED_POINTS
DIMENSIONS  51 11 6

ORIGIN 0 0 0 

SPACING 0.1 0.1 0.1 

POINT_DATA 3366

VECTORS velocity float
0 0 0
-5.11445e-15 0 0
-5.14392e-09 0 0
-7.65734e-09 0 0
-6.65685e-09 0 0
-1.75394e-09 0 0
-1.1734e-09 0 0
-2.54699e-09 0 0
-4.32806e-09 0 0
-5.59592e-09 0 0
-5.95692e-09 0 0
-5.86204e-09 0 0
-5.70103e-09 0 0
-5.60598e-09 0 0
-5.58811e-09 0 0
-5.62039e-09 0 0
-5.67218e-09 0 0
-5.72384e-09 0 0
-5.76681e-09 0 0
-5.79928e-09 0 0
-5.82241e-09 0 0
-5.8383e-09 0 0
-5.84896e-09 0 0
-5.85601e-09 0 0
-5.86063e-09 0 0
-5.86366e-09 0 0
-5.86564e-09 0 0
-5.86694e-09 0 0
-5.8678e-09 0 0
-5.86837e-09 0 0
-5.86875e-09 0 0
-5.86901e-09 0 0
-5.86918e-09 0 0
-5.8693e-09 0 0
-5.86938e-09 0 0
-5.86943e-09 0 0
-5.86947e-09 0 0
-5.86949e-09 0 0
-5.86951e-09 0 0
-5.86952e-09 0 0
-5.86953e-09 0 0
-5.86954e-09 0 0
-5.86954e-09 0 0
-5.86954e-09 0 0
-5.86954e-09 0 0
-5.86955e-09 0 0
-5.86955e-09 0 0
-5.86955e-09 0 0
-5.86955e-09 0 0
-5.86956e-09 0 0
0.00321992 0 0
0 7.71635e-09 0
1.37352e-14 3.045e-09 0
-1.01089e-08 4.62005e-09 0
-1.50932e-08 2.42124e-09 0
-1.21797e-08 7.64887e-10 0
-3.49239e-09 1.13846e-09 0
-1.83861e-09 2.84737e-09 0
-3.36343e-09 2.91809e-09 0
-5.29311e-09 2.21017e-09 0
-7.42284e-09 1.28317e-09 0
-8.26133e-09 4.31189e-10 0
-8.47387e-09 6.11358e-11 0
-8.67328e-09 -8.17763e-12 0
-8.94895e-09 2.13393e-11 0
-9.2647e-09 6.53768e-11 0
-9.57084e-09 9.10507e-11 0
-9.83016e-09 9.35407e-11 0
-1.00295e-08 8.16646e-11 0
-1.01728e-08 6.46812e-11 0
-1.02713e-08 4.81391e-11 0
-1.03369e-08 3.43762e-11 0
-1.03797e-08 2.38739e-11 0
-1.04072e-08 1.62776e-11 0
-1.04249e-08 1.09715e-11 0
-1.04362e-08 7.34886e-12 0
-1.04435e-08 4.91081e-12 0
-1.04482e-08 3.28325e-12 0
-1.04513e-08 2.20044e-12 0
-1.04533e-08 1.47999e-12 0
-1.04546e-08 9.99454e-13 0
-1.04555e-08 6.77638e-13 0
-1.04562e-08 4.61083e-13 0
-1.04566e-08 3.14636e-13 0
-1.04569e-08 2.15137e-13 0
-1.04571e-08 1.47262e-13 0
-1.04572e-08 1.00813e-13 0
-1.04573e-08 6.89553e-14 0
-1.04574e-08 4.70784e-14 0
-1.04574e-08 3.20528e-14 0
-1.04575e-08 2.17421e-14 0
-1.04575e-08 1.46808e-14 0
-1.04575e-08 9.86095e-15 0
-1.04575e-08 6.58682e-15 0
-1.04575e-08 4.38139e-15 0
-1.04575e-08 2.92658e-15 0
-1.04575e-08 2.00867e-15 0
-1.04575e-08 1.48968e-15 0
-1.04575e-08 1.69533e-15 0
-1.04575e-08 5.89652e-15 0
-1.04576e-08 2.2096e-14 0
0.00820598 -6.39123e-09 0
0 1.06134e-09 0
6.95966e-14 3.8936e-09 0
-8.45526e-09 4.957e-09 0
-1.28713e-08 1.35372e-09 0
-7.26344e-09 8.59167e-10 0
-2.46905e-09 1.82564e-09 0
-3.49671e-09 2.4598e-09 0
-5.0256e-09 8.50366e-10 0
-4.64798e-09 -4.58392e-11 0
-4.88795e-09 8.66918e-10 0
-5.0523e-09 1.40634e-09 0
-5.13146e-09 1.79746e-09 0
-5.51457e-09 1.7544e-09 0
-5.98314e-09 1.40478e-09 0
-6.45621e-09 1.03573e-09 0
-6.879e-09 7.40283e-10 0
-7.21395e-09 5.17326e-10 0
-7.45623e-09 3.53838e-10 0
-7.62091e-09 2.37401e-10 0
-7.72833e-09 1.56784e-10 0
-7.79659e-09 1.02332e-10 0
-7.83935e-09 6.62867e-11 0
-7.86598e-09 4.2786e-11 0
-7.88258e-09 2.76215e-11 0
-7.89301e-09 1.78917e-11 0
-7.89964e-09 1.16583e-11 0
-7.90391e-09 7.65604e-12 0
-7.90671e-09 5.07269e-12 0
-7.90857e-09 3.39245e-12 0
-7.90982e-09 2.28947e-12 0
-7.91068e-09 1.55814e-12 0
-7.91127e-09 1.0683e-12 0
-7.91169e-09 7.37015e-13 0
-7.91198e-09 5.11002e-13 0
-7.91219e-09 3.55637e-13 0
-7.91233e-09 2.48165e-13 0
-7.91244e-09 1.73453e-13 0
-7.91251e-09 1.21324e-13 0
-7.91256e-09 8.48602e-14 0
-7.9126e-09 5.93177e-14 0
-7.91263e-09 4.14197e-14 0
-7.91265e-09 2.88909e-14 0
-7.91266e-09 2.01501e-14 0
-7.91267e-09 1.4107e-14 0
-7.91268e-09 1.00553e-14 0
-7.91268e-09 7.69545e-15 0
-7.91269e-09 7.2807e-15 0
-7.91269e-09 9.52649e-15 0
-7.9127e-09 1.41694e-14 0
-7.91271e-09 2.11084e-14 0
0.0102713 -6.93642e-09 0
0 -8.64346e-09 0
1.0679e-13 2.28703e-09 0
-6.76482e-09 9.61138e-10 0
-1.14898e-08 -3.85811e-09 0
-5.50749e-09 -2.59699e-09 0
-7.30598e-10 -6.47841e-11 0
-2.83151e-09 -2.21719e-14 0
-4.20917e-09 -3.5836e-09 0
-8.73798e-09 -6.36872e-09 0
-8.12916e-09 -3.41797e-09 0
-7.35419e-09 2.75036e-10 0
-6.73743e-09 2.4484e-09 0
-6.36459e-09 2.87871e-09 0
-6.06184e-09 2.32194e-09 0
-5.95313e-09 1.67434e-09 0
-5.99649e-09 1.16129e-09 0
-6.09149e-09 7.83381e-10 0
-6.18037e-09 5.16206e-10 0
-6.24584e-09 3.34125e-10 0
-6.28901e-09 2.13694e-10 0
-6.31598e-09 1.35795e-10 0
-6.33248e-09 8.61678e-11 0
-6.34259e-09 5.48334e-11 0
-6.34889e-09 3.51168e-11 0
-6.35294e-09 2.26942e-11 0
-6.35563e-09 1.48254e-11 0
-6.35745e-09 9.7987e-12 0
-6.35873e-09 6.55268e-12 0
-6.35964e-09 4.43093e-12 0
-6.36029e-09 3.0264e-12 0
-6.36076e-09 2.08507e-12 0
-6.3611e-09 1.44689e-12 0
-6.36135e-09 1.0098e-12 0
-6.36153e-09 7.07817e-13 0
-6.36166e-09 4.97696e-13 0
-6.36176e-09 3.50669e-13 0
-6.36183e-09 2.47357e-13 0
-6.36188e-09 1.74547e-13 0
-6.36192e-09 1.23135e-13 0
-6.36194e-09 8.68001e-14 0
-6.36196e-09 6.11233e-14 0
-6.36197e-09 4.30023e-14 0
-6.36198e-09 3.02661e-14 0
-6.36199e-09 2.14115e-14 0
-6.36199e-09 1.5404e-14 0
-6.362e-09 1.15082e-14 0
-6.362e-09 9.19732e-15 0
-6.362e-09 8.27952e-15 0
-6.362e-09 9.22369e-15 0
-6.362e-09 1.23418e-14 0
0.0106063 -4.74762e-09 0
0 -1.66687e-08 0
9.80375e-14 2.31121e-10 0
-6.94473e-09 -2.02009e-09 0
-1.25086e-08 -4.6478e-09 0
-8.99403e-09 -2.91224e-09 0
-2.93969e-14 -5.15685e-10 0
-3.63515e-13 -4.00242e-13 0
3.39494e-13 -3.95117e-13 0
-5.05506e-09 -3.71538e-09 0
-9.19316e-09 -5.44805e-09 0
-8.5367e-09 -1.33621e-09 0
-8.51013e-09 1.68439e-09 0
-8.22709e-09 2.41843e-09 0
-7.46084e-09 1.98523e-09 0
-6.81784e-09 1.48034e-09 0
-6.44619e-09 1.06104e-09 0
-6.25616e-09 7.24382e-10 0
-6.15887e-09 4.74805e-10 0
-6.1062e-09 3.03395e-10 0
-6.07599e-09 1.91623e-10 0
-6.05809e-09 1.20903e-10 0
-6.04747e-09 7.67845e-11 0
-6.04129e-09 4.93308e-11 0
-6.03785e-09 3.21489e-11 0
-6.03604e-09 2.12724e-11 0
-6.03517e-09 1.42847e-11 0
-6.03483e-09 9.72146e-12 0
-6.03477e-09 6.69246e-12 0
-6.03483e-09 4.65104e-12 0
-6.03494e-09 3.2566e-12 0
-6.03505e-09 2.29325e-12 0
-6.03516e-09 1.62159e-12 0
-6.03525e-09 1.14992e-12 0
-6.03533e-09 8.16897e-13 0
-6.03539e-09 5.80854e-13 0
-6.03543e-09 4.13104e-13 0
-6.03546e-09 2.93694e-13 0
-6.03549e-09 2.08627e-13 0
-6.0355e-09 1.48018e-13 0
-6.03552e-09 1.04856e-13 0
-6.03553e-09 7.41469e-14 0
-6.03553e-09 5.23326e-14 0
-6.03554e-09 3.68633e-14 0
-6.03554e-09 2.59036e-14 0
-6.03554e-09 1.81488e-14 0
-6.03555e-09 1.27089e-14 0
-6.03555e-09 9.02204e-15 0
-6.03554e-09 6.76853e-15 0
-6.03554e-09 5.97567e-15 0
-6.03555e-09 6.50522e-15 0
0.0106454 -2.20597e-09 0
0 -1.4843e-08 0
8.72286e-14 -8.8744e-10 0
-7.05768e-09 -2.63546e-09 0
-1.29613e-08 -3.86272e-09 0
-1.1248e-08 -3.88062e-09 0
-3.53515e-09 -1.76593e-09 0
-3.54797e-13 3.43085e-13 0
-3.59255e-15 3.59255e-15 0
3.1631e-13 -3.62675e-13 0
-4.12502e-09 -2.17404e-09 0
-6.20956e-09 -1.5309e-09 0
-8.45584e-09 2.22576e-09 0
-9.66803e-09 2.60085e-09 0
-8.92723e-09 1.63206e-09 0
-7.8061e-09 1.01919e-09 0
-7.02091e-09 6.71477e-10 0
-6.56889e-09 4.34936e-10 0
-6.31922e-09 2.74044e-10 0
-6.18016e-09 1.71283e-10 0
-6.10149e-09 1.08357e-10 0
-6.05655e-09 7.02515e-11 0
-6.03077e-09 4.68689e-11 0
-6.016e-09 3.21068e-11 0
-6.00755e-09 2.24619e-11 0
-6.00273e-09 1.59511e-11 0
-6e-09 1.14375e-11 0
-5.99846e-09 8.24758e-12 0
-5.99759e-09 5.96424e-12 0
-5.9971e-09 4.31729e-12 0
-5.99683e-09 3.12452e-12 0
-5.99668e-09 2.25918e-12 0
-5.99659e-09 1.63124e-12 0
-5.99655e-09 1.1759e-12 0
-5.99652e-09 8.46111e-13 0
-5.99651e-09 6.07634e-13 0
-5.9965e-09 4.35487e-13 0
-5.99649e-09 3.11452e-13 0
-5.99649e-09 2.22254e-13 0
-5.99649e-09 1.58235e-13 0
-5.99649e-09 1.12378e-13 0
-5.99649e-09 7.95926e-14 0
-5.99649e-09 5.61898e-14 0
-5.99649e-09 3.95043e-14 0
-5.99649e-09 2.76169e-14 0
-5.99649e-09 1.91366e-14 0
-5.99649e-09 1.30388e-14 0
-5.99648e-09 8.56906e-15 0
-5.99648e-09 5.23676e-15 0
-5.99648e-09 2.86506e-15 0
-5.99648e-09 1.28685e-15 0
0.0106487 2.78871e-10 0
0 -1.05749e-08 0
8.12384e-14 -1.52591e-09 0
-6.67325e-09 -3.33394e-09 0
-1.2726e-08 -2.93384e-09 0
-1.17957e-08 -2.11866e-09 0
-7.782e-09 -2.56183e-09 0
-3.1735e-09 -1.56897e-09 0
-3.57102e-13 3.29066e-13 0
-1.2757e-14 1.2757e-14 0
2.94647e-13 -3.37971e-13 0
-2.27916e-09 2.3563e-09 0
-7.48107e-09 5.14546e-09 0
-1.14415e-08 3.77768e-09 0
-1.08017e-08 1.17409e-09 0
-8.77038e-09 2.06529e-10 0
-7.38902e-09 1.935e-11 0
-6.69535e-09 -4.6985e-12 0
-6.36797e-09 -3.10564e-12 0
-6.21007e-09 3.66479e-12 0
-6.13088e-09 1.01055e-11 0
-6.08962e-09 1.39706e-11 0
-6.06735e-09 1.51264e-11 0
-6.05488e-09 1.43696e-11 0
-6.04767e-09 1.25942e-11 0
-6.04335e-09 1.04651e-11 0
-6.04069e-09 8.38052e-12 0
-6.03901e-09 6.53568e-12 0
-6.03791e-09 4.99842e-12 0
-6.03718e-09 3.76686e-12 0
-6.03669e-09 2.80669e-12 0
-6.03636e-09 2.07266e-12 0
-6.03612e-09 1.51963e-12 0
-6.03596e-09 1.1076e-12 0
-6.03584e-09 8.03286e-13 0
-6.03576e-09 5.80088e-13 0
-6.0357e-09 4.1732e-13 0
-6.03566e-09 2.99187e-13 0
-6.03563e-09 2.138e-13 0
-6.03561e-09 1.52301e-13 0
-6.03559e-09 1.08147e-13 0
-6.03558e-09 7.65319e-14 0
-6.03557e-09 5.39462e-14 0
-6.03557e-09 3.78324e-14 0
-6.03556e-09 2.63267e-14 0
-6.03556e-09 1.80556e-14 0
-6.03556e-09 1.19727e-14 0
-6.03555e-09 7.22578e-15 0
-6.03555e-09 3.14252e-15 0
-6.03555e-09 -6.63632e-16 0
-6.03555e-09 -4.18623e-15 0
0.0106454 2.72566e-09 0
0 -7.66385e-09 0
6.63267e-14 -1.9999e-09 0
-6.56519e-09 -3.67966e-09 0
-1.20894e-08 -2.51524e-09 0
-1.14953e-08 -1.2481e-09 0
-8.52911e-09 -1.33117e-09 0
-6.70515e-09 -3.39634e-09 0
-4.32802e-09 -2.47779e-09 0
-3.73973e-13 2.84157e-13 0
2.67654e-13 2.46676e-13 0
1.86903e-14 4.76757e-09 0
-4.76261e-09 9.64125e-09 0
-1.02887e-08 5.76277e-09 0
-1.09684e-08 3.20486e-10 0
-9.01598e-09 -1.05512e-09 0
-7.49487e-09 -7.51463e-10 0
-6.78819e-09 -4.01589e-10 0
-6.519e-09 -2.04843e-10 0
-6.42522e-09 -9.93165e-11 0
-6.39364e-09 -4.25034e-11 0
-6.38246e-09 -1.31455e-11 0
-6.37751e-09 7.94954e-13 0
-6.3744e-09 6.47527e-12 0
-6.37193e-09 8.0132e-12 0
-6.36983e-09 7.65759e-12 0
-6.36808e-09 6.57232e-12 0
-6.36664e-09 5.32327e-12 0
-6.36551e-09 4.16079e-12 0
-6.36462e-09 3.17597e-12 0
-6.36395e-09 2.38408e-12 0
-6.36344e-09 1.76775e-12 0
-6.36306e-09 1.29848e-12 0
-6.36278e-09 9.46734e-13 0
-6.36257e-09 6.86105e-13 0
-6.36241e-09 4.94701e-13 0
-6.3623e-09 3.55119e-13 0
-6.36222e-09 2.5391e-13 0
-6.36216e-09 1.80878e-13 0
-6.36212e-09 1.28394e-13 0
-6.36209e-09 9.08126e-14 0
-6.36206e-09 6.39839e-14 0
-6.36205e-09 4.48761e-14 0
-6.36204e-09 3.12791e-14 0
-6.36203e-09 2.1577e-14 0
-6.36202e-09 1.45727e-14 0
-6.36202e-09 9.33246e-15 0
-6.36201e-09 5.00889e-15 0
-6.36201e-09 6.86778e-16 0
-6.36201e-09 -4.52471e-15 0
-6.36201e-09 -1.05823e-14 0
0.0106063 5.13357e-09 0
0 -7.12122e-09 0
4.72968e-14 -2.12553e-09 0
-6.93801e-09 -3.70147e-09 0
-1.17824e-08 -2.17444e-09 0
-1.16662e-08 -8.50391e-10 0
-9.56724e-09 -7.1506e-10 0
-7.5301e-09 -1.8334e-09 0
-7.85991e-09 -4.97603e-09 0
-6.33572e-09 -3.6058e-09 0
-8.94659e-09 -8.19386e-19 0
-9.50554e-09 4.61445e-09 0
-6.01422e-09 1.02698e-08 0
-5.41662e-09 6.89408e-09 0
-7.39444e-09 3.5658e-10 0
-7.99944e-09 -1.64428e-09 0
-7.88767e-09 -1.12763e-09 0
-7.81957e-09 -5.12751e-10 0
-7.83753e-09 -2.00534e-10 0
-7.8746e-09 -6.90566e-11 0
-7.9026e-09 -1.70564e-11 0
-7.91811e-09 2.29012e-12 0
-7.92471e-09 8.45557e-12 0
-7.92623e-09 9.42699e-12 0
-7.92529e-09 8.49509e-12 0
-7.9234e-09 7.01536e-12 0
-7.92134e-09 5.53116e-12 0
-7.91945e-09 4.23908e-12 0
-7.91786e-09 3.18757e-12 0
-7.91658e-09 2.36438e-12 0
-7.91559e-09 1.73582e-12 0
-7.91483e-09 1.26409e-12 0
-7.91426e-09 9.14506e-13 0
-7.91384e-09 6.57931e-13 0
-7.91353e-09 4.71051e-13 0
-7.9133e-09 3.35782e-13 0
-7.91313e-09 2.38385e-13 0
-7.91301e-09 1.68579e-13 0
-7.91292e-09 1.18754e-13 0
-7.91286e-09 8.33244e-14 0
-7.91281e-09 5.82178e-14 0
-7.91278e-09 4.04814e-14 0
-7.91275e-09 2.79804e-14 0
-7.91274e-09 1.91715e-14 0
-7.91272e-09 1.29303e-14 0
-7.91272e-09 8.41946e-15 0
-7.91271e-09 4.97697e-15 0
-7.91271e-09 1.93648e-15 0
-7.9127e-09 -1.79758e-15 0
-7.9127e-09 -8.36291e-15 0
-7.91271e-09 -1.91227e-14 0
0.0102713 7.03071e-09 0
0 -7.83237e-09 0
2.88864e-14 -1.41024e-09 0
-7.33054e-09 -2.41362e-09 0
-1.16379e-08 -1.40128e-09 0
-1.2241e-08 -7.17762e-10 0
-1.16923e-08 -1.05785e-09 0
-1.04848e-08 -1.83764e-09 0
-9.63947e-09 -1.82617e-09 0
-1.16121e-08 2.01223e-09 0
-1.20189e-08 4.52329e-09 0
-1.19523e-08 1.04047e-10 0
-9.01135e-09 -3.75648e-09 0
-8.0726e-09 -2.57046e-09 0
-9.99312e-09 -2.25304e-12 0
-1.09205e-08 1.09132e-09 0
-1.08586e-08 9.8565e-10 0
-1.06708e-08 5.85909e-10 0
-1.05648e-08 2.9404e-10 0
-1.0519e-08 1.39416e-10 0
-1.04992e-08 6.68092e-11 0
-1.0489e-08 3.37779e-11 0
-1.04822e-08 1.83989e-11 0
-1.04768e-08 1.07968e-11 0
-1.04724e-08 6.73169e-12 0
-1.04689e-08 4.38091e-12 0
-1.0466e-08 2.93072e-12 0
-1.04638e-08 1.99335e-12 0
-1.04622e-08 1.36848e-12 0
-1.04609e-08 9.43839e-13 0
-1.046e-08 6.51953e-13 0
-1.04593e-08 4.50052e-13 0
-1.04588e-08 3.09987e-13 0
-1.04584e-08 2.1276e-13 0
-1.04582e-08 1.45339e-13 0
-1.0458e-08 9.86972e-14 0
-1.04579e-08 6.65393e-14 0
-1.04578e-08 4.4465e-14 0
-1.04577e-08 2.93937e-14 0
-1.04576e-08 1.91693e-14 0
-1.04576e-08 1.22843e-14 0
-1.04576e-08 7.68693e-15 0
-1.04576e-08 4.64257e-15 0
-1.04576e-08 2.63539e-15 0
-1.04576e-08 1.29675e-15 0
-1.04576e-08 3.45684e-16 0
-1.04575e-08 -4.62851e-16 0
-1.04575e-08 -1.43389e-15 0
-1.04575e-08 -3.4043e-15 0
-1.04576e-08 -9.55663e-15 0
-1.04576e-08 -2.4695e-14 0
0.00820598 6.10134e-09 0
0 0 0
1.19121e-14 0 0
-3.67198e-09 0 0
-5.72597e-09 0 0
-6.29527e-09 0 0
-6.4073e-09 0 0
-6.48634e-09 0 0
-6.10756e-09 0 0
-5.27644e-09 0 0
-3.07238e-09 0 0
-2.44675e-09 0 0
-4.44217e-09 0 0
-6.76636e-09 0 0
-7.65342e-09 0 0
-7.32841e-09 0 0
-6.7194e-09 0 0
-6.2923e-09 0 0
-6.06851e-09 0 0
-5.96442e-09 0 0
-5.91763e-09 0 0
-5.89608e-09 0 0
-5.88546e-09 0 0
-5.87972e-09 0 0
-5.87633e-09 0 0
-5.87417e-09 0 0
-5.87274e-09 0 0
-5.87176e-09 0 0
-5.87108e-09 0 0
-5.8706e-09 0 0
-5.87027e-09 0 0
-5.87004e-09 0 0
-5.86988e-09 0 0
-5.86977e-09 0 0
-5.8697e-09 0 0
-5.86965e-09 0 0
-5.86961e-09 0 0
-5.86959e-09 0 0
-5.86957e-09 0 0
-5.86956e-09 0 0
-5.86955e-09 0 0
-5.86955e-09 0 0
-5.86955e-09 0 0
-5.86955e-09 0 0
-5.86955e-09 0 0
-5.86955e-09 0 0
-5.86955e-09 0 0
-5.86955e-09 0 0
-5.86955e-09 0 0
-5.86955e-09 0 0
-5.86956e-09 0 0
0.00321992 0 0
0 0 7.89075e-09
3.30378e-14 0 2.09892e-09
-1.08243e-08 0 3.03729e-09
-1.73223e-08 0 -9.0832e-10
-1.6803e-08 0 -6.66829e-09
-9.75606e-10 0 -6.62191e-09
2.48587e-09 0 -2.05432e-09
9.33746e-10 0 2.36564e-10
-2.03409e-09 0 8.38753e-10
-4.68266e-09 0 3.45692e-10
-6.24498e-09 0 -1.65061e-10
-7.23242e-09 0 -3.17029e-10
-7.99645e-09 0 -2.47883e-10
-8.60532e-09 0 -1.34256e-10
-9.09317e-09 0 -5.0973e-11
-9.48527e-09 0 -6.98682e-12
-9.78992e-09 0 9.90821e-12
-1.00154e-08 0 1.29737e-11
-1.01751e-08 0 1.0761e-11
-1.02844e-08 0 7.46095e-12
-1.03573e-08 0 4.6499e-12
-1.04051e-08 0 2.67493e-12
-1.04362e-08 0 1.42839e-12
-1.04562e-08 0 6.98866e-13
-1.04691e-08 0 2.98725e-13
-1.04775e-08 0 9.37641e-14
-1.04829e-08 0 -2.10637e-15
-1.04865e-08 0 -4.03693e-14
-1.04889e-08 0 -5.01955e-14
-1.04904e-08 0 -4.73221e-14
-1.04915e-08 0 -3.97974e-14
-1.04922e-08 0 -3.1456e-14
-1.04927e-08 0 -2.3924e-14
-1.04931e-08 0 -1.77302e-14
-1.04933e-08 0 -1.29e-14
-1.04935e-08 0 -9.25795e-15
-1.04936e-08 0 -6.57375e-15
-1.04937e-08 0 -4.62746e-15
-1.04937e-08 0 -3.23231e-15
-1.04938e-08 0 -2.24019e-15
-1.04938e-08 0 -1.53692e-15
-1.04938e-08 0 -1.03609e-15
-1.04938e-08 0 -6.7126e-16
-1.04938e-08 0 -3.88929e-16
-1.04939e-08 0 -1.47022e-16
-1.04939e-08 0 6.07562e-17
-1.04939e-08 0 1.61883e-16
-1.04939e-08 0 3.86535e-16
-1.04939e-08 0 3.87189e-15
-1.04939e-08 0 1.89334e-14
0.00820284 0 -5.34796e-09
0.0036 4.55226e-09 4.17674e-09
0.00359999 -0.00230042 -0.000799142
0.00877065 -0.00619567 -0.00225926
0.0178815 -0.00901362 -0.00336454
0.0295916 -0.0118766 -0.00383542
0.0465705 -0.00754352 -0.00229227
0.0482214 2.97419e-05 -0.000201368
0.0475135 0.00310403 0.000480841
0.042146 0.00466633 0.00038585
0.036648 0.00440164 -5.21167e-05
0.0318623 0.00358237 -0.000267148
0.0280918 0.00266119 -0.000262944
0.0254272 0.00183533 -0.00017897
0.0236903 0.00119941 -9.89599e-05
0.0226083 0.000757314 -4.6984e-05
0.0219536 0.00046606 -1.94874e-05
0.0215671 0.000280251 -6.93759e-06
0.0213444 0.000164866 -1.92735e-06
0.0212193 9.49779e-05 -2.35906e-07
0.0211508 5.36048e-05 1.73705e-07
0.0211145 2.96236e-05 1.70383e-07
0.0210959 1.59987e-05 8.02426e-08
0.0210869 8.41087e-06 4.02301e-09
0.021083 4.27361e-06 -4.00203e-08
0.0210815 2.07146e-06 -5.81513e-08
0.0210813 9.33417e-07 -6.0417e-08
0.0210815 3.67976e-07 -5.46986e-08
0.0210819 1.02828e-07 -4.59465e-08
0.0210823 -9.95678e-09 -3.68528e-08
0.0210826 -4.89421e-08 -2.86719e-08
0.0210829 -5.46967e-08 -2.1845e-08
0.0210831 -4.73939e-08 -1.63996e-08
0.0210833 -3.65184e-08 -1.21819e-08
0.0210834 -2.61255e-08 -8.97965e-09
0.0210835 -1.76317e-08 -6.58202e-09
0.0210835 -1.12565e-08 -4.80468e-09
0.0210835 -6.74199e-09 -3.4967e-09
0.0210836 -3.69366e-09 -2.53937e-09
0.0210836 -1.72802e-09 -1.84178e-09
0.0210836 -5.26142e-10 -1.33572e-09
0.0210836 1.56257e-10 -9.70989e-10
0.0210836 4.96245e-10 -7.11579e-10
0.0210836 6.16462e-10 -5.32848e-10
0.0210836 5.97508e-10 -4.19477e-10
0.0210836 4.85505e-10 -3.65109e-10
0.0210836 2.8965e-10 -3.72357e-10
0.0210836 6.54144e-12 -3.97895e-10
0.0210836 -4.00918e-10 -2.90912e-10
0.0210836 -2.56374e-09 -1.30918e-09
0.0210836 -1.13811e-08 -8.20944e-09
0.0210837 -1.82803e-08 -1.39788e-08
0.01 4.55635e-09 -7.99065e-09
0.01 -0.00447997 -0.00144568
0.0154751 -0.0125602 -0.00361352
0.0246205 -0.0186661 -0.0046134
0.0364294 -0.0263199 -0.00404053
0.0550379 -0.0170139 -0.0010137
0.0541546 -0.000499039 0.00136263
0.0547665 0.00613514 0.00159787
0.0485975 0.0108992 0.00109938
0.0421253 0.0104145 0.000139697
0.0368621 0.00871794 -0.000377173
0.0328308 0.00656626 -0.000414631
0.0301554 0.0044853 -0.000287246
0.0285539 0.00286393 -0.000159129
0.0276321 0.00175761 -7.47204e-05
0.0271147 0.00104954 -3.00777e-05
0.0268326 0.000611798 -9.82141e-06
0.026684 0.000348322 -1.84814e-06
0.0266091 0.00019353 7.17468e-07
0.0265735 0.00010466 1.19462e-06
0.0265583 5.47887e-05 1.00882e-06
0.0265531 2.74696e-05 7.01635e-07
0.0265524 1.29107e-05 4.42785e-07
0.0265537 5.41509e-06 2.62713e-07
0.0265555 1.73676e-06 1.48792e-07
0.0265572 6.35781e-08 8.0855e-08
0.0265587 -5.94872e-07 4.20498e-08
0.0265599 -7.66991e-07 2.0678e-08
0.0265609 -7.26357e-07 9.32495e-09
0.0265615 -6.08915e-07 3.54322e-09
0.0265621 -4.78099e-07 7.6562e-10
0.0265624 -3.60351e-07 -4.45502e-10
0.0265627 -2.64096e-07 -8.7378e-10
0.0265629 -1.89603e-07 -9.34688e-10
0.026563 -1.33955e-07 -8.41423e-10
0.0265631 -9.3399e-08 -6.98652e-10
0.0265632 -6.43846e-08 -5.54338e-10
0.0265632 -4.39297e-08 -4.27815e-10
0.0265632 -2.96871e-08 -3.24703e-10
0.0265633 -1.98816e-08 -2.44692e-10
0.0265633 -1.32075e-08 -1.8554e-10
0.0265633 -8.72536e-09 -1.45167e-10
0.0265633 -5.77373e-09 -1.22785e-10
0.0265633 -3.90163e-09 -1.1917e-10
0.0265633 -2.82208e-09 -1.35311e-10
0.0265633 -2.41995e-09 -1.72765e-10
0.0265633 -2.98726e-09 -2.06463e-10
0.0265633 -5.48072e-09 -1.12464e-10
0.0265633 -1.02842e-08 -1.52237e-09
0.0265633 -1.69552e-08 -1.02523e-08
0.0265633 -2.07151e-08 -1.74691e-08
0.0148 -1.33727e-08 -1.04488e-08
0.0148 -0.00623619 -0.00199341
0.0192281 -0.0171161 -0.00502368
0.0250549 -0.0256365 -0.00605221
0.0289259 -0.0383526 -0.0044758
0.0276412 -0.0235962 -0.000743317
0.0260592 -1.59932e-07 0.0013352
0.0266104 0.00830022 0.00144258
0.0317352 0.0171574 0.00124463
0.0312589 0.0162515 0.000465605
0.0294925 0.0130923 -8.90709e-05
0.0281319 0.00955344 -0.000257081
0.0274104 0.00623326 -0.000212481
0.0271744 0.00378857 -0.000122726
0.0271414 0.00222706 -5.2464e-05
0.0271823 0.00127745 -1.44634e-05
0.0272433 0.000714534 1.16499e-06
0.0273015 0.000388821 5.53586e-06
0.0273487 0.000204969 5.43924e-06
0.0273839 0.000103797 4.09026e-06
0.027409 4.96309e-05 2.72752e-06
0.0274262 2.15591e-05 1.69673e-06
0.0274378 7.62578e-06 1.00814e-06
0.0274456 1.14794e-06 5.79256e-07
0.0274509 -1.52932e-06 3.2396e-07
0.0274543 -2.35915e-06 1.76822e-07
0.0274566 -2.35709e-06 9.41356e-08
0.0274582 -2.03241e-06 4.86745e-08
0.0274592 -1.62712e-06 2.42072e-08
0.02746 -1.24617e-06 1.13457e-08
0.0274604 -9.26895e-07 4.78142e-09
0.0274608 -6.75319e-07 1.56767e-09
0.027461 -4.84515e-07 9.57078e-11
0.0274611 -3.43481e-07 -4.98217e-10
0.0274612 -2.41144e-07 -6.69213e-10
0.0274613 -1.67911e-07 -6.51483e-10
0.0274614 -1.16078e-07 -5.61677e-10
0.0274614 -7.97229e-08 -4.55085e-10
0.0274614 -5.4426e-08 -3.55794e-10
0.0274614 -3.69552e-08 -2.72686e-10
0.0274614 -2.4985e-08 -2.07817e-10
0.0274615 -1.68658e-08 -1.60737e-10
0.0274615 -1.14475e-08 -1.3057e-10
0.0274615 -7.95761e-09 -1.17244e-10
0.0274615 -5.94034e-09 -1.25044e-10
0.0274615 -5.2137e-09 -1.70411e-10
0.0274615 -5.6548e-09 -2.5971e-10
0.0274615 -7.05376e-09 -3.29874e-10
0.0274615 -9.4931e-09 -1.9977e-09
0.0274615 -1.2955e-08 -1.0552e-08
0.0274615 -1.48872e-08 -1.74546e-08
0.018 -3.08108e-08 -1.6686e-08
0.018 -0.00668898 -0.00275465
0.0196272 -0.0171531 -0.00694493
0.019835 -0.0213232 -0.00745657
0.0161607 -0.0226703 -0.0054031
-1.31534e-08 -0.0118114 -0.00213682
1.66914e-06 6.12296e-07 6.56087e-09
-6.81994e-07 7.25539e-07 0.000255361
0.00820878 0.0059489 0.000504544
0.0170009 0.0126175 0.000401704
0.0200556 0.0119428 0.000154468
0.0215563 0.00876971 -7.06788e-05
0.0232045 0.00553405 -0.000133138
0.0246609 0.00318482 -8.69752e-05
0.0257181 0.00177206 -3.02902e-05
0.0264221 0.000954004 1.46887e-06
0.0268713 0.000492309 1.21823e-05
0.0271501 0.00024067 1.25481e-05
0.0273195 0.00010881 9.57525e-06
0.027421 4.271e-05 6.3837e-06
0.0274811 1.14254e-05 3.93617e-06
0.0275164 -2.09642e-06 2.30493e-06
0.0275371 -6.9453e-06 1.29927e-06
0.0275492 -7.81833e-06 7.09473e-07
0.0275563 -7.06026e-06 3.75674e-07
0.0275605 -5.78891e-06 1.92065e-07
0.027563 -4.49961e-06 9.36752e-08
0.0275645 -3.38265e-06 4.24062e-08
0.0275654 -2.48628e-06 1.66079e-08
0.0275659 -1.79824e-06 4.26494e-09
0.0275662 -1.28503e-06 -1.15921e-09
0.0275664 -9.09695e-07 -3.1525e-09
0.0275666 -6.39103e-07 -3.53657e-09
0.0275666 -4.46123e-07 -3.23722e-09
0.0275667 -3.09666e-07 -2.70695e-09
0.0275667 -2.13848e-07 -2.1535e-09
0.0275668 -1.4697e-07 -1.66161e-09
0.0275668 -1.0054e-07 -1.25683e-09
0.0275668 -6.84722e-08 -9.38261e-10
0.0275668 -4.64412e-08 -6.94947e-10
0.0275668 -3.13995e-08 -5.13749e-10
0.0275668 -2.12177e-08 -3.83116e-10
0.0275668 -1.44259e-08 -2.95162e-10
0.0275668 -1.0024e-08 -2.47618e-10
0.0275668 -7.32478e-09 -2.49311e-10
0.0275668 -5.82969e-09 -3.31255e-10
0.0275668 -5.18945e-09 -4.94099e-10
0.0275668 -5.15903e-09 -6.07719e-10
0.0275668 -5.72402e-09 -2.25197e-09
0.0275668 -6.81768e-09 -1.04882e-08
0.0275668 -7.4562e-09 -1.70977e-08
0.0196 -3.67067e-08 -3.33834e-08
0.0196 -0.00496274 -0.00341491
0.0190519 -0.0112413 -0.00810216
0.0167885 -0.0129299 -0.00788136
0.0125473 -0.0109394 -0.00542663
0.00300312 -0.00428805 -0.00275228
1.28002e-06 -1.18436e-06 -0.000519729
5.02366e-07 -5.02366e-07 -8.70337e-10
-6.59247e-07 7.0474e-07 5.18345e-05
0.00593359 0.00431235 0.000122553
0.0125871 0.00852151 9.77772e-05
0.0156086 0.00645064 -5.658e-05
0.0193216 0.00319043 -0.000169636
0.022476 0.00131532 -0.000129217
0.0246002 0.000481633 -5.31577e-05
0.025886 0.000125626 -5.72046e-06
0.0266302 -1.74031e-05 1.13323e-05
0.027052 -6.40642e-05 1.30127e-05
0.0272881 -6.96508e-05 9.85602e-06
0.0274189 -6.02494e-05 6.34951e-06
0.0274909 -4.7338e-05 3.7447e-06
0.0275302 -3.53775e-05 2.08377e-06
0.0275516 -2.56919e-05 1.10758e-06
0.0275631 -1.83384e-05 5.62983e-07
0.0275692 -1.29491e-05 2.70869e-07
0.0275725 -9.08011e-06 1.19723e-07
0.0275741 -6.33732e-06 4.46447e-08
0.027575 -4.40821e-06 9.41621e-09
0.0275754 -3.05836e-06 -5.58355e-09
0.0275756 -2.11716e-06 -1.07236e-08
0.0275757 -1.46258e-06 -1.13489e-08
0.0275757 -1.0083e-06 -1.01325e-08
0.0275757 -6.93617e-07 -8.35499e-09
0.0275757 -4.76027e-07 -6.58776e-09
0.0275757 -3.25855e-07 -5.05199e-09
0.0275757 -2.22424e-07 -3.80402e-09
0.0275757 -1.51347e-07 -2.82882e-09
0.0275757 -1.02628e-07 -2.08558e-09
0.0275757 -6.93367e-08 -1.52889e-09
0.0275757 -4.66714e-08 -1.11771e-09
0.0275757 -3.1315e-08 -8.18624e-10
0.0275757 -2.09801e-08 -6.06818e-10
0.0275757 -1.40899e-08 -4.66489e-10
0.0275757 -9.55324e-09 -3.91412e-10
0.0275756 -6.60729e-09 -3.85729e-10
0.0275756 -4.70088e-09 -4.68322e-10
0.0275756 -3.40323e-09 -6.29148e-10
0.0275756 -2.34737e-09 -7.27553e-10
0.0275756 -1.34643e-09 -2.33444e-09
0.0275756 -3.62573e-10 -1.04308e-08
0.0275756 1.30902e-10 -1.69247e-08
0.0196 -1.9536e-08 -4.73303e-08
0.0196 -0.00273705 -0.00365642
0.0191564 -0.00562392 -0.00810901
0.0182892 -0.005054 -0.0075795
0.0153635 -0.00158834 -0.00500006
0.0115181 0.00421871 -0.00287939
0.00701741 0.00363994 -0.00124664
1.28149e-06 -1.08723e-06 -0.000240451
4.27982e-07 -4.27982e-07 -1.92591e-09
-6.31778e-07 6.86716e-07 1.36197e-05
0.00430802 0.00224977 0.000241079
0.00949095 0.00207265 0.000191766
0.0161025 -0.00125346 -0.000189856
0.0213432 -0.00203306 -0.000263709
0.0244255 -0.00161029 -0.000153367
0.0260036 -0.00106983 -5.3911e-05
0.0267877 -0.000676252 -9.31769e-06
0.0271799 -0.000421492 3.42813e-06
0.0273771 -0.000261657 4.76811e-06
0.027476 -0.000162506 3.41247e-06
0.0275253 -0.000101308 2.00211e-06
0.0275493 -6.35613e-05 1.05026e-06
0.0275607 -4.02071e-05 5.00159e-07
0.0275658 -2.56686e-05 2.09411e-07
0.0275679 -1.65426e-05 6.65996e-08
0.0275685 -1.07587e-05 2.25515e-09
0.0275685 -7.05583e-06 -2.27943e-08
0.0275683 -4.66139e-06 -2.93497e-08
0.027568 -3.09847e-06 -2.79595e-08
0.0275677 -2.06969e-06 -2.37296e-08
0.0275675 -1.38758e-06 -1.8983e-08
0.0275673 -9.32587e-07 -1.46698e-08
0.0275672 -6.27661e-07 -1.10924e-08
0.0275671 -4.22587e-07 -8.26746e-09
0.027567 -2.84344e-07 -6.1018e-09
0.0275669 -1.91034e-07 -4.47279e-09
0.0275669 -1.28038e-07 -3.26307e-09
0.0275669 -8.55393e-08 -2.37291e-09
0.0275668 -5.69185e-08 -1.72265e-09
0.0275668 -3.7698e-08 -1.25123e-09
0.0275668 -2.48415e-08 -9.13475e-10
0.0275668 -1.62847e-08 -6.77594e-10
0.0275668 -1.06185e-08 -5.2316e-10
0.0275668 -6.87172e-09 -4.39847e-10
0.0275668 -4.35793e-09 -4.28923e-10
0.0275668 -2.56351e-09 -5.08978e-10
0.0275668 -1.04666e-09 -6.68903e-10
0.0275668 6.6654e-10 -7.533e-10
0.0275668 3.0221e-09 -2.32201e-09
0.0275668 6.05351e-09 -1.04128e-08
0.0275668 7.69955e-09 -1.69259e-08
0.018 -1.19248e-08 -4.72884e-08
0.018 -0.000944848 -0.00358078
0.0187372 -0.00131468 -0.00766064
0.0197494 0.00013613 -0.00683417
0.0196919 0.00263628 -0.00436796
0.0195747 0.00788841 -0.00252826
0.0198764 0.0130593 -0.00130668
0.0122765 0.00730121 -0.000597824
1.31205e-06 -8.62411e-07 -0.0002057
-5.14966e-07 -9.76231e-07 8.26534e-09
1.27088e-07 -0.00104288 0.000787317
0.0096504 -0.00537651 0.000965271
0.0179028 -0.00855375 3.0183e-05
0.0232167 -0.00688707 -0.000303333
0.0258475 -0.00410863 -0.000233877
0.0269163 -0.00220909 -0.00010755
0.0273099 -0.0011866 -3.8563e-05
0.0274462 -0.000653223 -1.20145e-05
0.0274877 -0.000367147 -3.37649e-06
0.0274954 -0.000209616 -8.65158e-07
0.0274919 -0.000121343 -2.24725e-07
0.0274858 -7.12131e-05 -9.50603e-08
0.0274799 -4.23801e-05 -7.93608e-08
0.027475 -2.55781e-05 -7.68324e-08
0.0274713 -1.56523e-05 -6.94192e-08
0.0274685 -9.70584e-06 -5.81256e-08
0.0274664 -6.09284e-06 -4.61005e-08
0.027465 -3.86718e-06 -3.52772e-08
0.0274639 -2.47805e-06 -2.6378e-08
0.0274632 -1.60051e-06 -1.94354e-08
0.0274627 -1.04014e-06 -1.41884e-08
0.0274623 -6.78988e-07 -1.02993e-08
0.0274621 -4.44447e-07 -7.45087e-09
0.0274619 -2.91224e-07 -5.3798e-09
0.0274618 -1.90701e-07 -3.88046e-09
0.0274617 -1.24582e-07 -2.79781e-09
0.0274616 -8.10502e-08 -2.01729e-09
0.0274616 -5.24102e-08 -1.45538e-09
0.0274615 -3.36117e-08 -1.05175e-09
0.0274615 -2.13224e-08 -7.63374e-10
0.0274615 -1.33328e-08 -5.60175e-10
0.0274615 -8.16955e-09 -4.22183e-10
0.0274615 -4.84191e-09 -3.3781e-10
0.0274615 -2.67019e-09 -3.03106e-10
0.0274615 -1.16655e-09 -3.23557e-10
0.0274615 5.39285e-11 -4.21663e-10
0.0274615 1.36397e-09 -5.9175e-10
0.0274615 3.30633e-09 -6.66493e-10
0.0274615 6.77188e-09 -2.17472e-09
0.0274615 1.20453e-08 -1.03674e-08
0.0274615 1.50691e-08 -1.70292e-08
0.0148 -8.351e-09 -4.12715e-08
0.0148 1.05224e-05 -0.00336378
0.0170961 0.000770205 -0.00686866
0.0201312 0.00235356 -0.00574939
0.0225872 0.00456101 -0.00356342
0.0245404 0.00749885 -0.00222419
0.0276779 0.0126578 -0.00140161
0.0307641 0.0205222 -0.00076599
0.0250335 0.0123961 -9.45341e-05
0.0262245 1.5044e-14 0.000575814
0.0310335 -0.00767329 0.00172061
0.0351953 -0.0161326 0.00200401
0.0338184 -0.014771 0.000697061
0.0309767 -0.00982745 -0.000182157
0.0289713 -0.00520039 -0.000330668
0.0278731 -0.00247926 -0.00019704
0.0272957 -0.00118549 -8.52532e-05
0.0269845 -0.000592166 -3.24109e-05
0.0268112 -0.00030862 -1.16442e-05
0.0267122 -0.00016609 -4.05279e-06
0.0266543 -9.15567e-05 -1.3655e-06
0.0266199 -5.14395e-05 -4.31601e-07
0.026599 -2.93687e-05 -1.13219e-07
0.0265861 -1.70085e-05 -8.87395e-09
0.0265781 -9.97903e-06 2.16598e-08
0.026573 -5.92443e-06 2.72224e-08
0.0265697 -3.55464e-06 2.48426e-08
0.0265676 -2.15218e-06 2.04479e-08
0.0265662 -1.31252e-06 1.60533e-08
0.0265652 -8.04504e-07 1.22767e-08
0.0265646 -4.94344e-07 9.23376e-09
0.0265642 -3.03589e-07 6.86533e-09
0.0265639 -1.85653e-07 5.06118e-09
0.0265637 -1.12533e-07 3.70698e-09
0.0265636 -6.71972e-08 2.70132e-09
0.0265635 -3.91817e-08 1.96044e-09
0.0265634 -2.19963e-08 1.41785e-09
0.0265634 -1.15863e-08 1.02208e-09
0.0265634 -5.40352e-09 7.33869e-10
0.0265633 -1.83995e-09 5.23421e-10
0.0265633 1.22849e-10 3.67891e-10
0.0265633 1.13354e-09 2.4912e-10
0.0265633 1.61156e-09 1.51533e-10
0.0265633 1.84011e-09 6.01229e-11
0.0265633 2.03299e-09 -4.27956e-11
0.0265633 2.38915e-09 -1.85812e-10
0.0265633 3.14814e-09 -3.71804e-10
0.0265633 4.80087e-09 -4.50685e-10
0.0265633 8.79257e-09 -1.86192e-09
0.0265633 1.62128e-08 -1.00437e-08
0.0265633 2.07795e-08 -1.67933e-08
0.01 -1.51057e-08 -3.79169e-08
0.01 6.5541e-05 -0.00285286
0.0129274 0.000739966 -0.00540369
0.0167827 0.00178613 -0.00406343
0.020507 0.00315787 -0.00238417
0.0247438 0.00574985 -0.0016519
0.0300958 0.00843142 -0.00159525
0.0387373 0.010601 -0.00123114
0.051271 0.00455583 -6.3219e-05
0.0510585 -0.00634096 0.000950328