# vtk DataFile Version 2.0
Tobias Weinzierl: CPU, Manycore and Cluster Computing
ASCII

DATASET STRUCTURED_POINTS
DIMENSIONS  51 11 6

ORIGIN 0 0 0 

SPACING 0.1 0.1 0.1 

POINT_DATA 3366

VECTORS velocity float
0 0 0
3.25272e-15 0 0
-1.50075e-08 0 0
-2.18336e-08 0 0
-2.24953e-08 0 0
-1.96748e-08 0 0
-2.39741e-08 0 0
-2.4113e-08 0 0
-2.25082e-08 0 0
-2.09142e-08 0 0
-2.02802e-08 0 0
-2.0291e-08 0 0
-2.05929e-08 0 0
-2.09918e-08 0 0
-2.13926e-08 0 0
-2.17491e-08 0 0
-2.20446e-08 0 0
-2.22787e-08 0 0
-2.24592e-08 0 0
-2.25957e-08 0 0
-2.2698e-08 0 0
-2.2774e-08 0 0
-2.28304e-08 0 0
-2.28721e-08 0 0
-2.29029e-08 0 0
-2.29257e-08 0 0
-2.29425e-08 0 0
-2.2955e-08 0 0
-2.29642e-08 0 0
-2.2971e-08 0 0
-2.2976e-08 0 0
-2.29798e-08 0 0
-2.29825e-08 0 0
-2.29846e-08 0 0
-2.29861e-08 0 0
-2.29872e-08 0 0
-2.2988e-08 0 0
-2.29886e-08 0 0
-2.29891e-08 0 0
-2.29894e-08 0 0
-2.29897e-08 0 0
-2.29899e-08 0 0
-2.299e-08 0 0
-2.29901e-08 0 0
-2.29902e-08 0 0
-2.29902e-08 0 0
-2.29903e-08 0 0
-2.29903e-08 0 0
-2.29903e-08 0 0
-2.29904e-08 0 0
0.00581109 0 0
0 7.75785e-09 0
7.19355e-15 1.05896e-08 0
-2.55671e-08 1.69017e-08 0
-3.14561e-08 7.60487e-09 0
-2.88072e-08 -8.95893e-10 0
-1.60821e-08 1.9627e-09 0
-2.71945e-08 4.04834e-09 0
-2.61601e-08 -1.8313e-09 0
-2.30986e-08 -3.28267e-09 0
-2.09836e-08 -2.10651e-09 0
-2.19146e-08 -4.7441e-10 0
-2.36972e-08 4.21368e-10 0
-2.53418e-08 7.65673e-10 0
-2.67129e-08 8.34788e-10 0
-2.78128e-08 7.75583e-10 0
-2.86652e-08 6.61577e-10 0
-2.9308e-08 5.3499e-10 0
-2.97842e-08 4.1789e-10 0
-3.01332e-08 3.19176e-10 0
-3.0388e-08 2.40331e-10 0
-3.05737e-08 1.79383e-10 0
-3.07092e-08 1.33206e-10 0
-3.08083e-08 9.86373e-11 0
-3.0881e-08 7.29402e-11 0
-3.09343e-08 5.39102e-11 0
-3.09736e-08 3.98432e-11 0
-3.10026e-08 2.94522e-11 0
-3.1024e-08 2.17769e-11 0
-3.10398e-08 1.6106e-11 0
-3.10515e-08 1.19146e-11 0
-3.10601e-08 8.81552e-12 0
-3.10666e-08 6.52324e-12 0
-3.10713e-08 4.8273e-12 0
-3.10748e-08 3.57229e-12 0
-3.10774e-08 2.64346e-12 0
-3.10794e-08 1.95596e-12 0
-3.10808e-08 1.44705e-12 0
-3.10819e-08 1.07033e-12 0
-3.10827e-08 7.91424e-13 0
-3.10832e-08 5.849e-13 0
-3.10837e-08 4.31916e-13 0
-3.1084e-08 3.18519e-13 0
-3.10842e-08 2.34377e-13 0
-3.10844e-08 1.71864e-13 0
-3.10845e-08 1.25404e-13 0
-3.10846e-08 9.11411e-14 0
-3.10847e-08 6.72475e-14 0
-3.10847e-08 5.55718e-14 0
-3.10848e-08 6.65889e-14 0
-3.10849e-08 1.317e-13 0
0.0121604 -2.49158e-08 0
0 -5.85232e-10 0
6.49431e-14 1.31138e-08 0
-2.47796e-08 2.07909e-08 0
-1.97524e-08 8.22555e-09 0
-1.66388e-08 -9.66526e-09 0
-2.26385e-08 6.0283e-10 0
-2.14006e-08 9.30366e-09 0
-2.34559e-08 -4.80639e-09 0
1.71402e-09 -5.01209e-09 0
9.36516e-10 -4.2156e-10 0
-2.81347e-09 3.31086e-09 0
-6.73059e-09 3.7866e-09 0
-9.402e-09 3.20899e-09 0
-1.12287e-08 2.56732e-09 0
-1.25047e-08 1.99792e-09 0
-1.33882e-08 1.51638e-09 0
-1.39949e-08 1.12889e-09 0
-1.44116e-08 8.30173e-10 0
-1.46999e-08 6.06596e-10 0
-1.49017e-08 4.42198e-10 0
-1.50445e-08 3.22419e-10 0
-1.51468e-08 2.35458e-10 0
-1.52207e-08 1.72332e-10 0
-1.52746e-08 1.26427e-10 0
-1.5314e-08 9.29563e-11 0
-1.5343e-08 6.84793e-11 0
-1.53644e-08 5.05292e-11 0
-1.53803e-08 3.73323e-11 0
-1.5392e-08 2.76096e-11 0
-1.54007e-08 2.04342e-11 0
-1.54072e-08 1.51316e-11 0
-1.5412e-08 1.1209e-11 0
-1.54155e-08 8.30506e-12 0
-1.54182e-08 6.15416e-12 0
-1.54202e-08 4.56041e-12 0
-1.54216e-08 3.37923e-12 0
-1.54227e-08 2.50366e-12 0
-1.54235e-08 1.85457e-12 0
-1.54241e-08 1.37331e-12 0
-1.54246e-08 1.01644e-12 0
-1.54249e-08 7.51728e-13 0
-1.54251e-08 5.55302e-13 0
-1.54253e-08 4.09486e-13 0
-1.54254e-08 3.01262e-13 0
-1.54255e-08 2.21163e-13 0
-1.54256e-08 1.62426e-13 0
-1.54257e-08 1.20111e-13 0
-1.54257e-08 9.13827e-14 0
-1.54257e-08 7.85701e-14 0
-1.54258e-08 8.50981e-14 0
0.0127113 -1.78483e-08 0
0 -9.78525e-09 0
1.93777e-13 1.15182e-08 0
-3.11224e-08 1.91013e-08 0
-1.64843e-08 1.16996e-08 0
-1.27449e-08 1.09895e-08 0
-2.62312e-08 6.87299e-09 0
-1.81802e-08 5.44039e-14 0
-2.14088e-08 -2.78727e-08 0
-2.58903e-08 -2.78817e-08 0
-1.05382e-08 3.92167e-09 0
-8.38502e-09 8.31167e-09 0
-9.37871e-09 7.58769e-09 0
-1.08103e-08 5.54301e-09 0
-1.19831e-08 4.06102e-09 0
-1.28236e-08 2.98362e-09 0
-1.33857e-08 2.1677e-09 0
-1.37565e-08 1.56179e-09 0
-1.40055e-08 1.1224e-09 0
-1.41775e-08 8.07942e-10 0
-1.42996e-08 5.8379e-10 0
-1.43881e-08 4.23731e-10 0
-1.44532e-08 3.08922e-10 0
-1.45015e-08 2.26113e-10 0
-1.45375e-08 1.66053e-10 0
-1.45644e-08 1.22276e-10 0
-1.45846e-08 9.02296e-11 0
-1.45996e-08 6.66893e-11 0
-1.46109e-08 4.93494e-11 0
-1.46193e-08 3.65494e-11 0
-1.46256e-08 2.70857e-11 0
-1.46303e-08 2.00802e-11 0
-1.46338e-08 1.48902e-11 0
-1.46364e-08 1.10429e-11 0
-1.46383e-08 8.18989e-12 0
-1.46397e-08 6.07366e-12 0
-1.46408e-08 4.50375e-12 0
-1.46416e-08 3.33903e-12 0
-1.46422e-08 2.4749e-12 0
-1.46426e-08 1.83373e-12 0
-1.46429e-08 1.35793e-12 0
-1.46432e-08 1.00475e-12 0
-1.46434e-08 7.42426e-13 0
-1.46435e-08 5.4739e-13 0
-1.46436e-08 4.02134e-13 0
-1.46437e-08 2.93677e-13 0
-1.46437e-08 2.12559e-13 0
-1.46437e-08 1.52623e-13 0
-1.46438e-08 1.10333e-13 0
-1.46438e-08 8.29646e-14 0
-1.46438e-08 6.6082e-14 0
0.0127243 -1.13526e-08 0
0 -1.62635e-08 0
3.0498e-13 6.32133e-09 0
-3.88218e-08 9.16581e-09 0
-2.01439e-08 7.18892e-09 0
-9.17131e-09 9.96152e-09 0
-3.77894e-14 5.61707e-09 0
-1.07794e-12 -1.02036e-12 0
8.92233e-13 -1.10056e-12 0
-2.81947e-08 -1.72908e-08 0
-2.8907e-08 -1.77942e-08 0
-1.56509e-08 2.82752e-09 0
-1.40858e-08 6.71737e-09 0
-1.38987e-08 6.07407e-09 0
-1.40991e-08 4.68363e-09 0
-1.42493e-08 3.42717e-09 0
-1.43281e-08 2.44746e-09 0
-1.43762e-08 1.73979e-09 0
-1.44146e-08 1.2427e-09 0
-1.44495e-08 8.94511e-10 0
-1.44815e-08 6.48804e-10 0
-1.45099e-08 4.73626e-10 0
-1.45341e-08 3.47491e-10 0
-1.45542e-08 2.55909e-10 0
-1.45705e-08 1.88977e-10 0
-1.45833e-08 1.39818e-10 0
-1.45933e-08 1.03583e-10 0
-1.46011e-08 7.68064e-11 0
-1.4607e-08 5.69834e-11 0
-1.46114e-08 4.22906e-11 0
-1.46148e-08 3.13915e-11 0
-1.46174e-08 2.33025e-11 0
-1.46193e-08 1.72973e-11 0
-1.46207e-08 1.28385e-11 0
-1.46218e-08 9.52782e-12 0
-1.46225e-08 7.06961e-12 0
-1.46231e-08 5.24453e-12 0
-1.46236e-08 3.88964e-12 0
-1.46239e-08 2.88388e-12 0
-1.46241e-08 2.1373e-12 0
-1.46243e-08 1.58305e-12 0
-1.46245e-08 1.17145e-12 0
-1.46245e-08 8.65577e-13 0
-1.46246e-08 6.37953e-13 0
-1.46247e-08 4.68169e-13 0
-1.46247e-08 3.41115e-13 0
-1.46247e-08 2.45714e-13 0
-1.46248e-08 1.73869e-13 0
-1.46248e-08 1.19749e-13 0
-1.46248e-08 7.86346e-14 0
-1.46248e-08 4.54008e-14 0
0.0127245 -5.56253e-09 0
0 -1.33415e-08 0
4.1343e-13 2.94896e-09 0
-4.49852e-08 5.1877e-09 0
-2.77859e-08 2.47792e-09 0
-1.66516e-08 2.33606e-10 0
-8.53793e-09 -5.57208e-12 0
-1.06353e-12 9.86848e-13 0
-9.46161e-14 9.46161e-14 0
8.62338e-13 -9.22129e-13 0
-1.73629e-08 -9.63167e-09 0
-1.80992e-08 -6.69012e-09 0
-1.82867e-08 6.10588e-09 0
-1.73674e-08 5.75876e-09 0
-1.64205e-08 4.47702e-09 0
-1.56882e-08 3.21099e-09 0
-1.52224e-08 2.27385e-09 0
-1.49507e-08 1.62801e-09 0
-1.4798e-08 1.18096e-09 0
-1.47141e-08 8.65404e-10 0
-1.46688e-08 6.38555e-10 0
-1.46449e-08 4.73222e-10 0
-1.46327e-08 3.51587e-10 0
-1.46267e-08 2.61566e-10 0
-1.4624e-08 1.94708e-10 0
-1.4623e-08 1.44958e-10 0
-1.46227e-08 1.07905e-10 0
-1.46229e-08 8.03019e-11 0
-1.46231e-08 5.97399e-11 0
-1.46234e-08 4.44271e-11 0
-1.46236e-08 3.30276e-11 0
-1.46238e-08 2.45445e-11 0
-1.4624e-08 1.82342e-11 0
-1.46241e-08 1.35419e-11 0
-1.46242e-08 1.00541e-11 0
-1.46243e-08 7.46229e-12 0
-1.46244e-08 5.53695e-12 0
-1.46244e-08 4.10705e-12 0
-1.46244e-08 3.0453e-12 0
-1.46245e-08 2.25701e-12 0
-1.46245e-08 1.6717e-12 0
-1.46245e-08 1.23699e-12 0
-1.46245e-08 9.13856e-13 0
-1.46245e-08 6.73289e-13 0
-1.46245e-08 4.93657e-13 0
-1.46245e-08 3.58825e-13 0
-1.46245e-08 2.56728e-13 0
-1.46245e-08 1.78299e-13 0
-1.46245e-08 1.16654e-13 0
-1.46245e-08 6.61447e-14 0
-1.46245e-08 2.19882e-14 0
0.0127245 1.99919e-11 0
0 -8.42673e-09 0
4.59216e-13 -6.12534e-10 0
-4.50145e-08 -5.82456e-11 0
-2.77423e-08 -1.01843e-10 0
-2.01789e-08 -8.96558e-10 0
-1.56066e-08 -8.67661e-09 0
-1.30995e-08 -8.43617e-09 0
-1.08104e-12 8.92659e-13 0
-3.03219e-14 3.03219e-14 0
8.91962e-13 -8.32714e-13 0
-9.65423e-09 3.58827e-09 0
-2.63066e-08 6.21652e-09 0
-2.1691e-08 4.43397e-09 0
-1.82019e-08 3.07665e-09 0
-1.65453e-08 2.22483e-09 0
-1.5727e-08 1.68539e-09 0
-1.52939e-08 1.29294e-09 0
-1.50507e-08 9.90635e-10 0
-1.49067e-08 7.55953e-10 0
-1.48174e-08 5.74423e-10 0
-1.47596e-08 4.34778e-10 0
-1.47209e-08 3.27944e-10 0
-1.46942e-08 2.46625e-10 0
-1.46754e-08 1.85005e-10 0
-1.4662e-08 1.38491e-10 0
-1.46522e-08 1.03494e-10 0
-1.46451e-08 7.72309e-11 0
-1.46399e-08 5.75658e-11 0
-1.4636e-08 4.28671e-11 0
-1.46331e-08 3.18963e-11 0
-1.4631e-08 2.37175e-11 0
-1.46294e-08 1.76259e-11 0
-1.46283e-08 1.30926e-11 0
-1.46274e-08 9.72102e-12 0
-1.46267e-08 7.21489e-12 0
-1.46262e-08 5.35289e-12 0
-1.46259e-08 3.96998e-12 0
-1.46256e-08 2.94318e-12 0
-1.46254e-08 2.1809e-12 0
-1.46253e-08 1.615e-12 0
-1.46252e-08 1.19475e-12 0
-1.46251e-08 8.82392e-13 0
-1.4625e-08 6.498e-13 0
-1.4625e-08 4.7595e-13 0
-1.46249e-08 3.45038e-13 0
-1.46249e-08 2.45048e-13 0
-1.46249e-08 1.66713e-13 0
-1.46249e-08 1.02778e-13 0
-1.46249e-08 4.73867e-14 0
-1.46249e-08 -3.53375e-15 0
0.0127245 5.60017e-09 0
0 -5.43019e-09 0
3.67241e-13 -3.93647e-09 0
-4.09082e-08 -4.90492e-09 0
-2.64402e-08 -1.8401e-09 0
-2.04081e-08 -3.29033e-09 0
-1.77146e-08 -4.32378e-09 0
-2.08723e-08 -1.48806e-08 0
-1.60057e-08 -1.29755e-08 0
-1.0755e-12 7.09815e-13 0
9.98357e-13 6.34065e-13 0
5.87341e-14 1.94732e-08 0
-3.8833e-08 1.84054e-08 0
-2.52406e-08 -1.75652e-09 0
-1.83391e-08 -4.01086e-10 0
-1.63712e-08 8.05992e-10 0
-1.56936e-08 1.02662e-09 0
-1.53705e-08 9.42417e-10 0
-1.51749e-08 7.8541e-10 0
-1.50406e-08 6.26895e-10 0
-1.49426e-08 4.887e-10 0
-1.48693e-08 3.75493e-10 0
-1.4814e-08 2.85766e-10 0
-1.4772e-08 2.16049e-10 0
-1.47402e-08 1.62572e-10 0
-1.47162e-08 1.21911e-10 0
-1.46981e-08 9.11852e-11 0
-1.46844e-08 6.80713e-11 0
-1.46742e-08 5.07407e-11 0
-1.46665e-08 3.77783e-11 0
-1.46608e-08 2.81013e-11 0
-1.46565e-08 2.08875e-11 0
-1.46532e-08 1.55159e-11 0
-1.46509e-08 1.15198e-11 0
-1.46491e-08 8.54899e-12 0
-1.46477e-08 6.34181e-12 0
-1.46467e-08 4.70275e-12 0
-1.4646e-08 3.48605e-12 0
-1.46455e-08 2.58312e-12 0
-1.46451e-08 1.91317e-12 0
-1.46448e-08 1.41606e-12 0
-1.46445e-08 1.04709e-12 0
-1.46444e-08 7.72967e-13 0
-1.46442e-08 5.68886e-13 0
-1.46441e-08 4.16267e-13 0
-1.46441e-08 3.01043e-13 0
-1.4644e-08 2.12309e-13 0
-1.4644e-08 1.41278e-13 0
-1.4644e-08 8.06636e-14 0
-1.4644e-08 2.44951e-14 0
-1.4644e-08 -3.0597e-14 0
0.0127243 1.13825e-08 0
0 -5.46434e-09 0
2.16755e-13 -6.15929e-09 0
-3.38856e-08 -8.04847e-09 0
-2.4435e-08 -2.53434e-09 0
-2.02164e-08 -1.2214e-09 0
-2.1194e-08 -4.65196e-09 0
-2.42168e-08 -8.74323e-09 0
-3.6276e-08 -2.06083e-08 0
-3.41671e-08 -1.59408e-08 0
-1.90698e-08 1.77977e-18 0
-7.86793e-09 4.11413e-08 0
-2.62921e-09 3.07485e-08 0
-1.09245e-08 -1.51141e-08 0
-1.46406e-08 -5.2881e-09 0
-1.58056e-08 -2.53324e-10 0
-1.61023e-08 7.3098e-10 0
-1.61109e-08 7.85243e-10 0
-1.60275e-08 6.62817e-10 0
-1.59225e-08 5.23909e-10 0
-1.58223e-08 4.03303e-10 0
-1.57358e-08 3.06331e-10 0
-1.56649e-08 2.30866e-10 0
-1.56084e-08 1.73138e-10 0
-1.55643e-08 1.29421e-10 0
-1.55304e-08 9.65259e-11 0
-1.55044e-08 7.18778e-11 0
-1.54848e-08 5.34615e-11 0
-1.54699e-08 3.9729e-11 0
-1.54588e-08 2.95037e-11 0
-1.54504e-08 2.18981e-11 0
-1.54441e-08 1.62456e-11 0
-1.54395e-08 1.20474e-11 0
-1.5436e-08 8.93109e-12 0
-1.54334e-08 6.61879e-12 0
-1.54314e-08 4.90374e-12 0
-1.543e-08 3.63206e-12 0
-1.54289e-08 2.68939e-12 0
-1.54281e-08 1.99073e-12 0
-1.54275e-08 1.47296e-12 0
-1.54271e-08 1.08923e-12 0
-1.54268e-08 8.04718e-13 0
-1.54265e-08 5.9357e-13 0
-1.54264e-08 4.3652e-13 0
-1.54262e-08 3.19136e-13 0
-1.54261e-08 2.30437e-13 0
-1.54261e-08 1.61733e-13 0
-1.5426e-08 1.05493e-13 0
-1.5426e-08 5.43833e-14 0
-1.5426e-08 9.2342e-16 0
-1.5426e-08 -5.99885e-14 0
0.0127113 1.78618e-08 0
0 -7.58534e-09 0
1.07825e-13 -5.9828e-09 0
-3.18951e-08 -7.59388e-09 0
-3.18317e-08 -1.96075e-09 0
-3.10651e-08 5.48306e-10 0
-3.07274e-08 3.89813e-09 0
-3.33291e-08 3.07167e-09 0
-3.60047e-08 -2.49005e-09 0
-5.16305e-08 -1.9959e-08 0
-5.43161e-08 -3.1197e-08 0
-5.75955e-08 -1.4123e-09 0
-1.80657e-08 2.01068e-08 0
-2.84916e-08 1.11271e-08 0
-3.30133e-08 4.99968e-09 0
-3.34643e-08 2.45033e-09 0
-3.31029e-08 1.38702e-09 0
-3.26688e-08 8.82231e-10 0
-3.22969e-08 5.99787e-10 0
-3.20017e-08 4.21449e-10 0
-3.17741e-08 3.01126e-10 0
-3.16009e-08 2.17221e-10 0
-3.14702e-08 1.57685e-10 0
-3.1372e-08 1.14993e-10 0
-3.12986e-08 8.41518e-11 0
-3.12438e-08 6.17471e-11 0
-3.12029e-08 4.53999e-11 0
-3.11725e-08 3.34315e-11 0
-3.11499e-08 2.46459e-11 0
-3.11331e-08 1.81839e-11 0
-3.11207e-08 1.34237e-11 0
-3.11114e-08 9.91348e-12 0
-3.11045e-08 7.32291e-12 0
-3.10995e-08 5.41005e-12 0
-3.10957e-08 3.99709e-12 0
-3.10929e-08 2.95315e-12 0
-3.10908e-08 2.18174e-12 0
-3.10893e-08 1.61166e-12 0
-3.10881e-08 1.19033e-12 0
-3.10873e-08 8.78903e-13 0
-3.10867e-08 6.48664e-13 0
-3.10862e-08 4.78369e-13 0
-3.10859e-08 3.52287e-13 0
-3.10856e-08 2.58741e-13 0
-3.10855e-08 1.8901e-13 0
-3.10853e-08 1.36479e-13 0
-3.10852e-08 9.5891e-14 0
-3.10852e-08 6.23866e-14 0
-3.10851e-08 2.96744e-14 0
-3.10851e-08 -1.61913e-14 0
-3.10852e-08 -1.14728e-13 0
0.0121604 2.48934e-08 0
0 0 0
4.03191e-14 0 0
-1.69689e-08 0 0
-2.00908e-08 0 0
-2.09761e-08 0 0
-2.01793e-08 0 0
-1.6885e-08 0 0
-1.57343e-08 0 0
-1.74635e-08 0 0
-3.52462e-08 0 0
-4.97276e-08 0 0
-3.82182e-08 0 0
-3.07426e-08 0 0
-2.73068e-08 0 0
-2.56625e-08 0 0
-2.4775e-08 0 0
-2.4234e-08 0 0
-2.38764e-08 0 0
-2.36293e-08 0 0
-2.34545e-08 0 0
-2.33291e-08 0 0
-2.32385e-08 0 0
-2.31726e-08 0 0
-2.31244e-08 0 0
-2.30891e-08 0 0
-2.30632e-08 0 0
-2.30441e-08 0 0
-2.30301e-08 0 0
-2.30197e-08 0 0
-2.3012e-08 0 0
-2.30064e-08 0 0
-2.30022e-08 0 0
-2.29991e-08 0 0
-2.29968e-08 0 0
-2.29951e-08 0 0
-2.29939e-08 0 0
-2.2993e-08 0 0
-2.29923e-08 0 0
-2.29918e-08 0 0
-2.29914e-08 0 0
-2.29912e-08 0 0
-2.2991e-08 0 0
-2.29908e-08 0 0
-2.29907e-08 0 0
-2.29906e-08 0 0
-2.29906e-08 0 0
-2.29905e-08 0 0
-2.29905e-08 0 0
-2.29905e-08 0 0
-2.29905e-08 0 0
0.0058111 0 0
0 0 5.79165e-09
3.51427e-14 0 4.41786e-09
-2.71139e-08 0 4.93194e-09
-3.2199e-08 0 -1.17014e-10
-2.7172e-08 0 -1.26292e-09
-1.53573e-08 0 -4.83982e-10
-2.17769e-08 0 3.89827e-10
-2.14885e-08 0 3.6545e-10
-2.00114e-08 0 8.38819e-11
-1.94962e-08 0 -1.21493e-10
-2.07616e-08 0 -1.48795e-10
-2.27099e-08 0 -1.08706e-10
-2.4609e-08 0 -6.48949e-11
-2.62099e-08 0 -3.50582e-11
-2.7479e-08 0 -1.82085e-11
-2.84478e-08 0 -9.60883e-12
-2.91686e-08 0 -5.39684e-12
-2.96959e-08 0 -3.2987e-12
-3.0078e-08 0 -2.17723e-12
-3.03536e-08 0 -1.51468e-12
-3.05523e-08 0 -1.08505e-12
-3.06959e-08 0 -7.8814e-13
-3.08e-08 0 -5.75738e-13
-3.08757e-08 0 -4.21381e-13
-3.09309e-08 0 -3.08531e-13
-3.09714e-08 0 -2.25879e-13
-3.10012e-08 0 -1.65336e-13
-3.10231e-08 0 -1.20999e-13
-3.10392e-08 0 -8.85403e-14
-3.10511e-08 0 -6.4784e-14
-3.106e-08 0 -4.73997e-14
-3.10665e-08 0 -3.46793e-14
-3.10714e-08 0 -2.5372e-14
-3.10749e-08 0 -1.85617e-14
-3.10776e-08 0 -1.35792e-14
-3.10796e-08 0 -9.93391e-15
-3.1081e-08 0 -7.26647e-15
-3.10821e-08 0 -5.31517e-15
-3.10829e-08 0 -3.88829e-15
-3.10835e-08 0 -2.84781e-15
-3.1084e-08 0 -2.09438e-15
-3.10843e-08 0 -1.56262e-15
-3.10845e-08 0 -1.21917e-15
-3.10847e-08 0 -1.0647e-15
-3.10848e-08 0 -1.12417e-15
-3.10849e-08 0 -1.3108e-15
-3.1085e-08 0 -7.24354e-16
-3.1085e-08 0 4.44282e-15
-3.10851e-08 0 2.62041e-14
-3.10852e-08 0 9.82576e-14
0.0121604 0 -2.10653e-08
0.0036 1.19089e-08 6.21039e-09
0.00359998 -0.00542166 -0.0027746
0.014731 -0.00989104 -0.00436412
0.024491 -0.00865733 -0.00244416
0.0340261 -0.0079611 -0.00132321
0.0442309 -0.00488965 -0.000686086
0.0460006 -0.000767176 -0.000327144
0.0454614 0.00227419 -0.000166592
0.0401364 0.00406451 -9.44964e-05
0.0352232 0.00391941 -5.88824e-05
0.0314183 0.00306238 -3.28234e-05
0.0288332 0.0021238 -1.74988e-05
0.0272199 0.00135454 -9.12306e-06
0.0262767 0.000807165 -4.68214e-06
0.0257595 0.000450735 -2.38414e-06
0.0254969 0.000233497 -1.21731e-06
0.0253781 0.000108563 -6.29776e-07
0.0253357 4.08709e-05 -3.32827e-07
0.0253311 6.77789e-06 -1.80602e-07
0.025343 -8.58043e-06 -1.00874e-07
0.0253604 -1.40593e-05 -5.80358e-08
0.025378 -1.46934e-05 -3.43845e-08
0.0253936 -1.32163e-05 -2.09614e-08
0.0254065 -1.10352e-05 -1.31317e-08
0.0254168 -8.82277e-06 -8.43941e-09
0.0254247 -6.86199e-06 -5.5517e-09
0.0254307 -5.23924e-06 -3.72837e-09
0.0254353 -3.94934e-06 -2.54886e-09
0.0254387 -2.95014e-06 -1.76871e-09
0.0254412 -2.18939e-06 -1.24242e-09
0.025443 -1.61712e-06 -8.81305e-10
0.0254444 -1.19028e-06 -6.30001e-10
0.0254454 -8.7385e-07 -4.53096e-10
0.0254462 -6.4032e-07 -3.27445e-10
0.0254467 -4.68532e-07 -2.37611e-10
0.0254471 -3.42465e-07 -1.73144e-10
0.0254474 -2.50114e-07 -1.26898e-10
0.0254476 -1.82548e-07 -9.40152e-11
0.0254477 -1.33161e-07 -7.13017e-11
0.0254478 -9.70843e-08 -5.6894e-11
0.0254479 -7.07399e-08 -5.01237e-11
0.025448 -5.15055e-08 -5.15038e-11
0.025448 -3.74648e-08 -6.26594e-11
0.0254481 -2.72255e-08 -8.58316e-11
0.0254481 -1.9794e-08 -1.22726e-10
0.0254481 -1.45035e-08 -1.77367e-10
0.0254481 -1.10434e-08 -3.10866e-10
0.0254481 -9.93455e-09 -1.11931e-09
0.0254481 -1.54248e-08 -6.72569e-09
0.0254482 -3.79185e-08 -2.79732e-08
0.0254482 -5.50994e-08 -4.43219e-08
0.01 1.10702e-08 8.32622e-09
0.01 -0.00849132 -0.00496176
0.0181817 -0.0164876 -0.00750833
0.0259802 -0.0164852 -0.00375008
0.035093 -0.0180836 -0.00181307
0.0523983 -0.0110403 -0.00080478
0.051608 -0.000730386 -0.000293092
0.0521431 0.0061331 -0.000143907
0.0416783 0.010382 -8.99695e-05
0.0349976 0.00879623 -7.0203e-05
0.0309826 0.00643132 -3.9464e-05
0.0286384 0.00422005 -1.98303e-05
0.0273958 0.00256767 -9.89517e-06
0.0267839 0.00146613 -4.82544e-06
0.0265127 0.000782841 -2.29559e-06
0.0264154 0.000383048 -1.0751e-06
0.0264004 0.000161989 -5.01179e-07
0.02642 4.73512e-05 -2.34911e-07
0.0264507 -7.0774e-06 -1.11619e-07
0.0264818 -2.91627e-05 -5.40974e-08
0.0265091 -3.49186e-05 -2.68614e-08
0.0265316 -3.31473e-05 -1.37051e-08
0.0265492 -2.84616e-05 -7.19962e-09
0.0265628 -2.31347e-05 -3.89975e-09
0.0265731 -1.81841e-05 -2.1804e-09
0.0265808 -1.39823e-05 -1.25928e-09
0.0265866 -1.05917e-05 -7.51389e-10
0.0265908 -7.93955e-06 -4.62908e-10
0.0265939 -5.90709e-06 -2.93984e-10
0.0265962 -4.37118e-06 -1.91985e-10
0.0265979 -3.22185e-06 -1.28516e-10
0.0265991 -2.36783e-06 -8.78856e-11
0.0266 -1.73644e-06 -6.12055e-11
0.0266007 -1.27138e-06 -4.33135e-11
0.0266012 -9.29765e-07 -3.11434e-11
0.0266015 -6.79328e-07 -2.28506e-11
0.0266018 -4.96004e-07 -1.73459e-11
0.0266019 -3.61954e-07 -1.40596e-11
0.0266021 -2.64009e-07 -1.2853e-11
0.0266022 -1.92485e-07 -1.40382e-11
0.0266023 -1.40277e-07 -1.84861e-11
0.0266023 -1.02185e-07 -2.77846e-11
0.0266023 -7.44244e-08 -4.43253e-11
0.0266024 -5.42662e-08 -7.10683e-11
0.0266024 -3.98091e-08 -1.11136e-10
0.0266024 -2.98826e-08 -1.73034e-10
0.0266024 -2.41363e-08 -3.32252e-10
0.0266024 -2.31738e-08 -1.22538e-09
0.0266024 -2.73771e-08 -7.09376e-09
0.0266025 -3.68671e-08 -2.83025e-08
0.0266024 -4.3006e-08 -4.4415e-08
0.0148 -8.92159e-09 1.93613e-08
0.0148 -0.00924002 -0.00683041
0.0200985 -0.0187678 -0.0103223
0.0240636 -0.0213677 -0.00505223
0.0261954 -0.0321103 -0.0023476
0.0282375 -0.0202707 -0.000864013
0.0269407 -1.55369e-07 -0.000115861
0.0277464 0.0124814 -6.44697e-05
0.0332241 0.0213534 -4.43784e-05
0.0296182 0.0146941 -3.66256e-05
0.0271559 0.0094629 -2.87352e-05
0.0260372 0.00573199 -1.71025e-05
0.0257287 0.00322007 -8.81933e-06
0.0257828 0.00169598 -4.12735e-06
0.0259497 0.000822101 -1.78447e-06
0.0261222 0.000347213 -7.25049e-07
0.0262645 0.000104724 -2.78387e-07
0.0263713 -8.96407e-06 -1.00431e-07
0.0264479 -5.47847e-05 -3.33659e-08
0.0265019 -6.6927e-05 -9.74056e-09
0.0265395 -6.37719e-05 -2.21726e-09
0.0265658 -5.47625e-05 -2.42902e-10
0.0265842 -4.44727e-05 3.63889e-11
0.0265972 -3.49169e-05 -7.83953e-11
0.0266064 -2.68208e-05 -2.05974e-10
0.0266129 -2.0299e-05 -2.69508e-10
0.0266176 -1.52052e-05 -2.77708e-10
0.0266209 -1.13065e-05 -2.53732e-10
0.0266233 -8.36306e-06 -2.16058e-10
0.0266251 -6.16215e-06 -1.75925e-10
0.0266263 -4.52765e-06 -1.39035e-10
0.0266272 -3.31978e-06 -1.07656e-10
0.0266279 -2.43038e-06 -8.21962e-11
0.0266284 -1.77721e-06 -6.21837e-11
0.0266287 -1.29846e-06 -4.68304e-11
0.026629 -9.4806e-07 -3.53277e-11
0.0266292 -6.91865e-07 -2.69996e-11
0.0266293 -5.04693e-07 -2.13902e-11
0.0266294 -3.68024e-07 -1.83401e-11
0.0266295 -2.6827e-07 -1.80849e-11
0.0266295 -1.95479e-07 -2.13977e-11
0.0266296 -1.42383e-07 -2.97507e-11
0.0266296 -1.03687e-07 -4.53684e-11
0.0266296 -7.55642e-08 -7.0852e-11
0.0266296 -5.5299e-08 -1.08213e-10
0.0266297 -4.1039e-08 -1.61739e-10
0.0266297 -3.15883e-08 -2.89998e-10
0.0266297 -2.62401e-08 -1.06331e-09
0.0266297 -2.48743e-08 -6.49561e-09
0.0266297 -2.68314e-08 -2.64123e-08
0.0266297 -2.84444e-08 -4.15736e-08
0.018 -2.84272e-08 1.9808e-08
0.018 -0.00790322 -0.00816856
0.0208054 -0.0161022 -0.0123982
0.020868 -0.0168855 -0.0060248
0.0158826 -0.0192147 -0.0027224
-2.60268e-09 -0.0105283 -0.000927254
1.94194e-06 9.02042e-07 1.19784e-09
-9.24615e-07 1.02042e-06 -9.14211e-06
0.0124983 0.0086044 -9.35108e-06
0.0213854 0.0149186 -2.85572e-06
0.0216701 0.0100436 -9.34099e-06
0.022486 0.00566466 -1.14804e-05
0.0236352 0.00283144 -7.05312e-06
0.0246277 0.00125005 -3.15657e-06
0.0253513 0.000445938 -1.1867e-06
0.0258333 6.95567e-05 -3.72827e-07
0.0261387 -8.64185e-05 -8.23736e-08
0.0263272 -0.000135803 3.30908e-09
0.0264421 -0.000137532 1.91018e-08
0.0265121 -0.00012067 1.55531e-08
0.026555 -9.88069e-05 9.22209e-09
0.0265814 -7.78048e-05 4.38992e-09
0.026598 -5.98061e-05 1.47065e-09
0.0266086 -4.5253e-05 -4.8241e-11
0.0266155 -3.38782e-05 -7.15345e-10
0.02662 -2.51755e-05 -9.2002e-10
0.0266231 -1.86106e-05 -8.99438e-10
0.0266252 -1.3706e-05 -7.85404e-10
0.0266266 -1.00664e-05 -6.45626e-10
0.0266276 -7.37855e-06 -5.117e-10
0.0266283 -5.40047e-06 -3.96088e-10
0.0266288 -3.9484e-06 -3.01755e-10
0.0266292 -2.88443e-06 -2.27388e-10
0.0266294 -2.10589e-06 -1.70083e-10
0.0266296 -1.53678e-06 -1.26648e-10
0.0266298 -1.12108e-06 -9.41848e-11
0.0266299 -8.17592e-07 -7.03152e-11
0.0266299 -5.96113e-07 -5.32495e-11
0.02663 -4.34524e-07 -4.18132e-11
0.02663 -3.16646e-07 -3.54929e-11
0.02663 -2.30658e-07 -3.45363e-11
0.0266301 -1.67929e-07 -4.00846e-11
0.0266301 -1.22168e-07 -5.41995e-11
0.0266301 -8.87951e-08 -7.93971e-11
0.0266301 -6.44901e-08 -1.1724e-10
0.0266301 -4.68566e-08 -1.6942e-10
0.0266301 -3.41826e-08 -2.83983e-10
0.0266301 -2.52686e-08 -1.00096e-09
0.0266301 -1.94121e-08 -6.25414e-09
0.0266301 -1.56787e-08 -2.57485e-08
0.0266301 -1.41623e-08 -4.06223e-08
0.0196 -2.7926e-08 1.02549e-08
0.0196 -0.00502954 -0.00885898
0.021191 -0.010025 -0.0134727
0.0198794 -0.00956541 -0.00649249
0.0147805 -0.00764176 -0.00280401
0.00453621 -0.00307181 -0.00116687
1.54692e-06 -1.43801e-06 -0.000241614
5.13396e-07 -5.13396e-07 -3.70338e-10
-8.9068e-07 9.58551e-07 -3.39509e-06
0.00860997 0.00554769 -3.82904e-06
0.0149298 0.00838026 -4.95825e-06
0.0185253 0.00377909 -8.99804e-06
0.0216461 0.00108564 -6.62495e-06
0.0237361 -1.6042e-05 -2.95752e-06
0.0250001 -0.000381285 -1.04651e-06
0.0257266 -0.00043911 -2.87794e-07
0.0261338 -0.000388635 -4.44964e-08
0.0263589 -0.000312122 1.26034e-08
0.0264825 -0.000239571 1.54685e-08
0.02655 -0.000179649 7.97547e-09
0.0265868 -0.000133029 1.69604e-09
0.0266068 -9.78232e-05 -1.76779e-09
0.0266176 -7.16536e-05 -3.16392e-09
0.0266234 -5.23695e-05 -3.40001e-09
0.0266266 -3.82279e-05 -3.09558e-09
0.0266283 -2.78856e-05 -2.59938e-09
0.0266292 -2.03335e-05 -2.08414e-09
0.0266296 -1.48235e-05 -1.62375e-09
0.0266299 -1.08053e-05 -1.24152e-09
0.02663 -7.87583e-06 -9.37271e-10
0.0266301 -5.74037e-06 -7.0136e-10
0.0266301 -4.18382e-06 -5.21579e-10
0.0266301 -3.04929e-06 -3.86191e-10
0.0266301 -2.22239e-06 -2.85105e-10
0.0266301 -1.61969e-06 -2.10137e-10
0.0266301 -1.18041e-06 -1.54897e-10
0.0266301 -8.60229e-07 -1.14547e-10
0.0266301 -6.26853e-07 -8.55575e-11
0.0266301 -4.56732e-07 -6.55256e-11
0.0266301 -3.32705e-07 -5.30823e-11
0.0266301 -2.42256e-07 -4.79019e-11
0.0266301 -1.76258e-07 -5.07752e-11
0.0266301 -1.28049e-07 -6.358e-11
0.0266301 -9.27563e-08 -8.86941e-11
0.0266301 -6.67965e-08 -1.27252e-10
0.0266301 -4.75097e-08 -1.79504e-10
0.0266301 -3.28891e-08 -2.89927e-10
0.0266301 -2.14152e-08 -9.90459e-10
0.0266301 -1.20169e-08 -6.19809e-09
0.0266301 -3.86231e-09 -2.55989e-08
0.0266301 7.29672e-12 -4.04119e-08
0.0196 -1.84563e-08 -7.5151e-10
0.0196 -0.00189235 -0.00887269
0.0215138 -0.00375329 -0.0134857
0.0211002 -0.00303306 -0.00649205
0.0180468 -0.000165727 -0.00274753
0.0137342 0.00589938 -0.00133087
0.00875726 0.00489301 -0.000586122
1.5555e-06 -1.32053e-06 -0.00012371
4.29845e-07 -4.29845e-07 -1.86268e-10
-8.64249e-07 9.17112e-07 -1.33591e-06
0.00554984 0.000138943 -3.13338e-06
0.0147378 -0.00104264 -9.88431e-06
0.0206594 -0.00237307 -1.23555e-05
0.0236996 -0.00210017 -5.89452e-06
0.025207 -0.00154251 -2.18436e-06
0.0259513 -0.0010631 -7.50824e-07
0.0263175 -0.000718182 -2.66295e-07
0.0264958 -0.000484235 -1.08857e-07
0.0265808 -0.000328458 -5.53315e-08
0.0266196 -0.000224861 -3.40069e-08
0.0266359 -0.000155496 -2.3192e-08
0.0266415 -0.000108571 -1.64697e-08
0.0266422 -7.64602e-05 -1.1837e-08
0.026641 -5.42412e-05 -8.52993e-09
0.0266391 -3.87108e-05 -6.15097e-09
0.0266373 -2.77609e-05 -4.43939e-09
0.0266357 -1.99843e-05 -3.20852e-09
0.0266343 -1.44288e-05 -2.32285e-09
0.0266333 -1.04416e-05 -1.68458e-09
0.0266325 -7.56937e-06 -1.22367e-09
0.0266319 -5.49451e-06 -8.90115e-10
0.0266314 -3.99238e-06 -6.48258e-10
0.0266311 -2.90309e-06 -4.72604e-10
0.0266308 -2.11219e-06 -3.44886e-10
0.0266306 -1.53739e-06 -2.51989e-10
0.0266305 -1.11934e-06 -1.84491e-10
0.0266304 -8.1513e-07 -1.35655e-10
0.0266303 -5.93655e-07 -1.00744e-10
0.0266303 -4.32351e-07 -7.65758e-11
0.0266302 -3.14819e-07 -6.12826e-11
0.0266302 -2.29129e-07 -5.4233e-11
0.0266302 -1.66587e-07 -5.60572e-11
0.0266302 -1.20842e-07 -6.8593e-11
0.0266301 -8.72295e-08 -9.42913e-11
0.0266301 -6.22821e-08 -1.34513e-10
0.0266301 -4.33594e-08 -1.9009e-10
0.0266301 -2.83624e-08 -3.0723e-10
0.0266301 -1.55462e-08 -1.0232e-09
0.0266301 -3.52259e-09 -6.26908e-09
0.0266301 8.30703e-09 -2.57483e-08
0.0266301 1.4176e-08 -4.06124e-08
0.018 -1.27649e-08 -9.03721e-09
0.018 0.000670174 -0.00826099
0.0211177 0.00110763 -0.0125293
0.0223748 0.00132531 -0.00603911
0.0218328 0.00334203 -0.00258454
0.0212587 0.00811159 -0.00123662
0.0221095 0.0146004 -0.000651279
0.0141557 0.00894295 -0.00029116
1.58644e-06 -1.05461e-06 -6.27709e-05
-7.52595e-07 -1.13332e-06 5.81249e-09
9.51096e-08 -0.0063519 1.53945e-05
0.0151009 -0.0113225 2.7905e-06
0.0225057 -0.0078687 -1.9834e-05
0.0252044 -0.00455901 -1.00573e-05
0.0261951 -0.00263044 -3.89242e-06
0.026565 -0.00154822 -1.50127e-06
0.0266943 -0.000932459 -6.27974e-07
0.0267283 -0.000575117 -2.91956e-07
0.0267261 -0.00036321 -1.49386e-07
0.0267119 -0.000234652 -8.20776e-08
0.0266955 -0.000154821 -4.73215e-08
0.0266807 -0.00010409 -2.82011e-08
0.0266684 -7.11325e-05 -1.72362e-08
0.0266587 -4.92807e-05 -1.07676e-08
0.0266512 -3.45276e-05 -6.86648e-09
0.0266456 -2.44106e-05 -4.46665e-09
0.0266414 -1.73816e-05 -2.9611e-09
0.0266383 -1.24456e-05 -1.99767e-09
0.026636 -8.94969e-06 -1.3689e-09
0.0266343 -6.45693e-06 -9.5074e-10
0.0266331 -4.67012e-06 -6.67788e-10
0.0266322 -3.38416e-06 -4.7338e-10
0.0266315 -2.45579e-06 -3.38072e-10
0.026631 -1.78399e-06 -2.42915e-10
0.0266306 -1.297e-06 -1.75481e-10
0.0266304 -9.43487e-07 -1.27498e-10
0.0266302 -6.86608e-07 -9.34176e-11
0.0266301 -4.99794e-07 -6.95609e-11
0.02663 -3.6384e-07 -5.36252e-11
0.0266299 -2.6483e-07 -4.44455e-11
0.0266298 -1.9266e-07 -4.19463e-11
0.0266298 -1.39971e-07 -4.72136e-11
0.0266298 -1.01385e-07 -6.2523e-11
0.0266297 -7.29356e-08 -9.09362e-11
0.0266297 -5.16419e-08 -1.35109e-10
0.0266297 -3.51703e-08 -1.99269e-10
0.0266297 -2.15305e-08 -3.39018e-10
0.0266297 -8.79508e-09 -1.11781e-09
0.0266297 4.98106e-09 -6.53607e-09
0.0266297 2.04128e-08 -2.64135e-08
0.0266297 2.84556e-08 -4.15497e-08
0.0148 -1.17351e-08 -1.57796e-08
0.0148 0.0021067 -0.00712715
0.0197737 0.00363043 -0.0107824
0.0229373 0.0031449 -0.00522948
0.0246399 0.00433146 -0.0023192
0.0263752 0.00736951 -0.00113956
0.0296561 0.0129577 -0.000608264
0.0347977 0.0225499 -0.000315762
0.0300577 0.0142514 -8.51354e-05
0.0305277 1.54544e-14 4.51816e-05
0.0326268 -0.0149599 4.53197e-05
0.0308987 -0.0235403 4.02121e-06
0.0292901 -0.0124665 -2.06319e-05
0.0283587 -0.00578318 -1.06401e-05
0.027776 -0.00289969 -4.26964e-06
0.0273933 -0.00156055 -1.71002e-06
0.027139 -0.000880632 -7.19383e-07
0.0269694 -0.000515625 -3.18034e-07
0.0268557 -0.000311801 -1.45415e-07
0.0267788 -0.000194173 -6.72364e-08
0.0267264 -0.000124205 -3.05687e-08
0.0266901 -8.13793e-05 -1.31039e-08
0.0266649 -5.44476e-05 -4.83682e-09
0.0266472 -3.70823e-05 -1.0522e-09
0.0266346 -2.56304e-05 5.48175e-10
0.0266256 -1.7928e-05 1.10484e-09
0.0266192 -1.26602e-05 1.18566e-09
0.0266146 -9.00728e-06 1.07015e-09
0.0266113 -6.44555e-06 8.91896e-10
0.0266089 -4.63295e-06 7.11057e-10
0.0266071 -3.3414e-06 5.51614e-10
0.0266058 -2.4161e-06 4.20347e-10
0.0266049 -1.75043e-06 3.1643e-10
0.0266042 -1.27001e-06 2.36128e-10
0.0266038 -9.22446e-07 1.75006e-10
0.0266034 -6.70535e-07 1.28873e-10
0.0266031 -4.87696e-07 9.40951e-11
0.026603 -3.54843e-07 6.76094e-11
0.0266028 -2.58222e-07 4.67802e-11
0.0266027 -1.87887e-07 2.91667e-11
0.0266026 -1.36627e-07 1.22216e-11
0.0266026 -9.91945e-08 -7.05358e-12
0.0266026 -7.17502e-08 -3.23973e-11
0.0266025 -5.14514e-08 -6.82929e-11
0.0266025 -3.61378e-08 -1.19798e-10
0.0266025 -2.4062e-08 -1.97584e-10
0.0266025 -1.35928e-08 -3.77311e-10
0.0266025 -2.736e-09 -1.28684e-09
0.0266025 1.16218e-08 -7.13814e-09
0.0266025 3.15881e-08 -2.82875e-08
0.0266025 4.30133e-08 -4.4363e-08
0.01 -1.7683e-08 -2.44022e-08
0.01 0.00192791 -0.00563783
0.017274 0.00320537 -0.0084981
0.0220154 0.00246297 -0.00416966
0.0253235 0.00293176 -0.00195359
0.0289308 0.0046838 -0.000996096
0.034088 0.0070478 -0.000564282