# vtk DataFile Version 2.0
Tobias Weinzierl: CPU, Manycore and Cluster Computing
ASCII

DATASET STRUCTURED_POINTS
DIMENSIONS  51 11 6

ORIGIN 0 0 0 

SPACING 0.1 0.1 0.1 

POINT_DATA 3366

VECTORS velocity float
0 0 0
1.6343e-08 0 0
1.16158e-08 0 0
3.8294e-09 0 0
8.22223e-10 0 0
1.3146e-10 0 0
1.69083e-11 0 0
1.82775e-12 0 0
1.70747e-13 0 0
1.40557e-14 0 0
1.03444e-15 0 0
6.88396e-17 0 0
4.18041e-18 0 0
2.33422e-19 0 0
1.20611e-20 0 0
5.7988e-22 0 0
2.60651e-23 0 0
1.09992e-24 0 0
4.37366e-26 0 0
1.64411e-27 0 0
5.85998e-29 0 0
1.98559e-30 0 0
6.4114e-32 0 0
1.97712e-33 0 0
5.83437e-35 0 0
1.65056e-36 0 0
4.48411e-38 0 0
1.17167e-39 0 0
2.94876e-41 0 0
7.15753e-43 0 0
1.67771e-44 0 0
3.80195e-46 0 0
8.33879e-48 0 0
1.77195e-49 0 0
3.65145e-51 0 0
7.30365e-53 0 0
1.4192e-54 0 0
2.68117e-56 0 0
4.92848e-58 0 0
8.82112e-60 0 0
1.53834e-61 0 0
2.61565e-63 0 0
4.33885e-65 0 0
7.02576e-67 0 0
1.11117e-68 0 0
1.71737e-70 0 0
2.5952e-72 0 0
3.83628e-74 0 0
5.54995e-76 0 0
7.97042e-78 0 0
1.12805e-75 0 0
0 -4.55072e-186 0
7.95372e-08 -6.73167e-184 0
6.03833e-08 -9.57173e-182 0
1.9845e-08 -1.16118e-179 0
4.15988e-09 -1.23223e-177 0
6.38546e-10 -1.13291e-175 0
7.94358e-11 -7.70424e-174 0
8.37385e-12 -2.64688e-175 0
7.679e-13 -1.81716e-173 0
6.23445e-14 -2.10103e-171 0
4.54049e-15 -2.38391e-169 0
2.99722e-16 -2.66089e-167 0
1.80858e-17 -2.92176e-165 0
1.00474e-18 -3.15491e-163 0
5.17018e-20 -3.3487e-161 0
2.47731e-21 -3.49237e-159 0
1.11039e-22 -3.57696e-157 0
4.67457e-24 -3.59618e-155 0
1.855e-25 -3.54709e-153 0
6.96101e-27 -3.43048e-151 0
2.47732e-28 -3.25106e-149 0
8.38308e-30 -3.01715e-147 0
2.70374e-31 -2.74005e-145 0
8.32912e-33 -2.4332e-143 0
2.45565e-34 -2.11101e-141 0
6.94145e-36 -1.78771e-139 0
1.88442e-37 -1.47628e-137 0
4.92061e-39 -1.18749e-135 0
1.23764e-40 -9.29301e-134 0
3.0025e-42 -7.06589e-132 0
7.0343e-44 -5.21215e-130 0
1.59335e-45 -3.72378e-128 0
3.49323e-47 -2.57191e-126 0
7.42007e-49 -1.71362e-124 0
1.52851e-50 -1.09878e-122 0
3.05632e-52 -6.76142e-121 0
5.93703e-54 -3.98016e-119 0
1.12131e-55 -2.23288e-117 0
2.06063e-57 -1.18849e-115 0
3.68725e-59 -5.97003e-114 0
6.42878e-61 -2.81182e-112 0
1.09285e-62 -1.23181e-110 0
1.81246e-64 -4.96869e-109 0
2.93428e-66 -1.82134e-107 0
4.6399e-68 -5.96199e-106 0
7.16999e-70 -1.70091e-104 0
1.08331e-71 -4.08109e-103 0
1.60113e-73 -7.78313e-102 0
2.31601e-75 -1.06657e-100 0
3.32562e-77 -8.38558e-100 0
4.73742e-75 -1.76083e-97 0
0 -9.80986e-185 0
1.89978e-07 -1.43424e-182 0
1.62517e-07 -2.58094e-180 0
5.41199e-08 -4.00759e-178 0
1.09642e-08 -5.64551e-176 0
1.46237e-09 -7.70172e-174 0
1.66747e-10 -1.03502e-171 0
1.65944e-11 -1.06204e-173 0
1.46608e-12 -4.01658e-172 0
1.16065e-13 -4.76589e-170 0
8.30459e-15 -5.46914e-168 0
5.41202e-16 -6.16424e-166 0
3.23461e-17 -6.83553e-164 0
1.78387e-18 -7.45637e-162 0
9.12737e-20 -7.99781e-160 0
4.35371e-21 -8.43177e-158 0
1.94433e-22 -8.73323e-156 0
8.16097e-24 -8.88241e-154 0
3.2305e-25 -8.86672e-152 0
1.20976e-26 -8.68227e-150 0
4.29781e-28 -8.3346e-148 0
1.45217e-29 -7.83868e-146 0
4.67752e-31 -7.21787e-144 0
1.43934e-32 -6.50223e-142 0
4.23937e-34 -5.72602e-140 0
1.19731e-35 -4.92492e-138 0
3.24789e-37 -4.13319e-136 0
8.47508e-39 -3.38107e-134 0
2.13036e-40 -2.69279e-132 0
5.16534e-42 -2.0853e-130 0
1.20954e-43 -1.56796e-128 0
2.73849e-45 -1.14289e-126 0
6.00129e-47 -8.06103e-125 0
1.27426e-48 -5.49047e-123 0
2.62401e-50 -3.60285e-121 0
5.24511e-52 -2.27162e-119 0
1.01858e-53 -1.37191e-117 0
1.92322e-55 -7.90739e-116 0
3.53336e-57 -4.33088e-114 0
6.32095e-59 -2.24234e-112 0
1.10182e-60 -1.09059e-110 0
1.87261e-62 -4.94371e-109 0
3.10502e-64 -2.06808e-107 0
5.02592e-66 -7.88166e-106 0
7.94588e-68 -2.6898e-104 0
1.22765e-69 -8.02506e-103 0
1.85455e-71 -2.02047e-101 0
2.74059e-73 -4.05803e-100 0
3.96362e-75 -5.87679e-99 0
5.69062e-77 -4.88698e-98 0
8.14206e-75 -1.05127e-95 0
0 -2.43525e-186 0
3.13651e-07 -3.59169e-184 0
3.12561e-07 -5.21878e-182 0
1.07956e-07 -5.70587e-180 0
2.10419e-08 -4.10194e-178 0
9.55287e-10 -4.0454e-178 0
1.0422e-10 0 0
1.00483e-11 1.37426e-169 0
9.33269e-13 -7.0037e-171 0
7.66987e-14 -9.42162e-169 0
5.64855e-15 -1.10612e-166 0
3.76626e-16 -1.26057e-164 0
2.29306e-17 -1.41215e-162 0
1.28408e-18 -1.55668e-160 0
6.65474e-20 -1.68794e-158 0
3.20894e-21 -1.79959e-156 0
1.44651e-22 -1.88568e-154 0
6.1208e-24 -1.94104e-152 0
2.44012e-25 -1.96184e-150 0
9.19503e-27 -1.94591e-148 0
3.2848e-28 -1.89309e-146 0
1.1154e-29 -1.80527e-144 0
3.60882e-31 -1.68637e-142 0
1.11496e-32 -1.54204e-140 0
3.29597e-34 -1.37922e-138 0
9.33976e-36 -1.20561e-136 0
2.54127e-37 -1.02899e-134 0
6.64977e-39 -8.56666e-133 0
1.67584e-40 -6.94907e-131 0
4.07296e-42 -5.48557e-129 0
9.55842e-44 -4.20823e-127 0
2.16853e-45 -3.13253e-125 0
4.7613e-47 -2.25868e-123 0
1.01277e-48 -1.57445e-121 0
2.08899e-50 -1.05862e-119 0
4.18216e-52 -6.84815e-118 0
8.13339e-54 -4.24933e-116 0
1.5378e-55 -2.52032e-114 0
2.82892e-57 -1.42286e-112 0
5.06691e-59 -7.6078e-111 0
8.84235e-61 -3.82897e-109 0
1.50445e-62 -1.8002e-107 0
2.49712e-64 -7.83025e-106 0
4.04587e-66 -3.11161e-104 0
6.40234e-68 -1.11073e-102 0
9.90041e-70 -3.47845e-101 0
1.49685e-71 -9.22859e-100 0
2.21374e-73 -1.96153e-98 0
3.20407e-75 -3.0189e-97 0
4.60347e-77 -2.67231e-96 0
6.56856e-75 -5.89299e-94 0
0 -3.8374e-188 0
4.11378e-07 -5.71146e-186 0
4.72013e-07 -7.01436e-184 0
1.7099e-07 -6.05268e-182 0
3.23821e-08 -2.97172e-180 0
0 -2.91189e-180 0
0 0 0
0 0 0
6.43429e-14 -1.83119e-167 0
9.47546e-15 -1.46327e-167 0
9.30317e-16 -1.92181e-165 0
7.40908e-17 -2.23314e-163 0
5.09713e-18 -2.52807e-161 0
3.12198e-19 -2.81719e-159 0
1.73312e-20 -3.08916e-157 0
8.82514e-22 -3.3319e-155 0
4.15827e-23 -3.53339e-153 0
1.82534e-24 -3.68257e-151 0
7.50563e-26 -3.77021e-149 0
2.90412e-27 -3.78982e-147 0
1.06145e-28 -3.73832e-145 0
3.67698e-30 -3.61649e-143 0
1.21077e-31 -3.42912e-141 0
3.79955e-33 -3.1847e-139 0
1.13897e-34 -2.89486e-137 0
3.26819e-36 -2.57343e-135 0
8.99376e-38 -2.23536e-133 0
2.37774e-39 -1.89545e-131 0
6.04871e-41 -1.5673e-129 0
1.48276e-42 -1.26228e-127 0
3.50732e-44 -9.88911e-126 0
8.01525e-46 -7.52527e-124 0
1.77174e-47 -5.55309e-122 0
3.79225e-49 -3.96627e-120 0
7.86767e-51 -2.73612e-118 0
1.58366e-52 -1.81854e-116 0
3.09549e-54 -1.16118e-114 0
5.88054e-56 -7.09907e-113 0
1.08659e-57 -4.13889e-111 0
1.95436e-59 -2.29008e-109 0
3.42403e-61 -1.19545e-107 0
5.84733e-63 -5.84422e-106 0
9.73963e-65 -2.65075e-104 0
1.58327e-66 -1.1019e-102 0
2.51331e-68 -4.1294e-101 0
3.89812e-70 -1.36312e-99 0
5.91029e-72 -3.82946e-98 0
8.76447e-74 -8.66249e-97 0
1.27179e-75 -1.42626e-95 0
1.83177e-77 -1.35429e-94 0
2.577e-75 -3.06356e-92 0
0 -9.97616e-189 0
4.60849e-07 -1.47472e-186 0
5.75855e-07 -1.60954e-184 0
2.15795e-07 -1.26608e-182 0
4.09047e-08 -6.09012e-181 0
2.49028e-09 -5.96511e-181 0
0 0 0
0 0 0
0 0 0
5.53346e-16 2.39565e-165 0
8.45812e-17 -2.6017e-164 0
8.42796e-18 -3.33363e-162 0
6.71752e-19 -3.81502e-160 0
4.58265e-20 -4.29917e-158 0
2.76606e-21 -4.76908e-156 0
1.50679e-22 -5.20579e-154 0
7.50725e-24 -5.5895e-152 0
3.45425e-25 -5.90082e-150 0
1.47878e-26 -6.12227e-148 0
5.92525e-28 -6.23976e-146 0
2.23298e-29 -6.24395e-144 0
7.94739e-31 -6.13125e-142 0
2.68072e-32 -5.90448e-140 0
8.59597e-34 -5.57291e-138 0
2.62738e-35 -5.15168e-136 0
7.67314e-37 -4.66076e-134 0
2.14573e-38 -4.12333e-132 0
5.75664e-40 -3.56395e-130 0
1.48427e-41 -3.00659e-128 0
3.6839e-43 -2.47284e-126 0
8.81426e-45 -1.98044e-124 0
2.03581e-46 -1.54232e-122 0
4.54467e-48 -1.16615e-120 0
9.81722e-50 -8.54552e-119 0
2.0543e-51 -6.05682e-117 0
4.16835e-53 -4.14247e-115 0
8.2092e-55 -2.72647e-113 0
1.57057e-56 -1.72138e-111 0
2.92145e-58 -1.03856e-109 0
5.28762e-60 -5.96019e-108 0
9.31893e-62 -3.23525e-106 0
1.60037e-63 -1.64932e-104 0
2.67984e-65 -7.82597e-103 0
4.37832e-67 -3.41565e-101 0
6.98351e-69 -1.34947e-99 0
1.08806e-70 -4.71838e-98 0
1.65686e-72 -1.41157e-96 0
2.46713e-74 -3.42098e-95 0
3.59407e-76 -6.07367e-94 0
5.1963e-78 -6.24476e-93 0
7.17125e-76 -1.45014e-90 0
0 -6.91105e-187 0
4.60693e-07 -1.0118e-184 0
5.75679e-07 -1.21258e-182 0
2.15775e-07 -1.13223e-180 0
4.14233e-08 -8.04881e-179 0
5.1783e-09 -3.95383e-177 0
2.57937e-10 -3.87446e-177 0
0 0 0
0 0 0
0 0 0
4.26742e-18 -3.37526e-163 0
1.64235e-18 -4.02835e-161 0
2.12359e-19 -4.66209e-159 0
1.88485e-20 -5.31477e-157 0
1.34437e-21 -5.96658e-155 0
8.21911e-23 -6.59406e-153 0
4.45567e-24 -7.17148e-151 0
2.18632e-25 -7.67226e-149 0
9.84473e-27 -8.07079e-147 0
4.10836e-28 -8.3444e-145 0
1.60084e-29 -8.47528e-143 0
5.85855e-31 -8.45222e-141 0
2.02329e-32 -8.27193e-139 0
6.62023e-34 -7.93971e-137 0
2.05916e-35 -7.46936e-135 0
6.10614e-37 -6.88238e-133 0
1.73062e-38 -6.20636e-131 0
4.69855e-40 -5.47284e-129 0
1.22439e-41 -4.71479e-127 0
3.06798e-43 -3.96404e-125 0
7.40392e-45 -3.24894e-123 0
1.72343e-46 -2.59247e-121 0
3.8747e-48 -2.01104e-119 0
8.42435e-50 -1.51408e-117 0
1.77333e-51 -1.10427e-115 0
3.61797e-53 -7.78478e-114 0
7.16131e-55 -5.29124e-112 0
1.37651e-56 -3.45701e-110 0
2.57158e-58 -2.16329e-108 0
4.67321e-60 -1.29096e-106 0
8.26714e-62 -7.30746e-105 0
1.42475e-63 -3.89733e-103 0
2.39364e-65 -1.94171e-101 0
3.92284e-67 -8.9352e-100 0
6.27525e-69 -3.73977e-98 0
9.80399e-71 -1.39288e-96 0
1.49678e-72 -4.4672e-95 0
2.23421e-74 -1.1692e-93 0
3.26231e-76 -2.2601e-92 0
4.72714e-78 -2.54589e-91 0
6.5214e-76 -6.0735e-89 0
0 -4.06457e-185 0
4.10181e-07 -5.90152e-183 0
4.70792e-07 -7.47917e-181 0
1.7063e-07 -7.88047e-179 0
3.30753e-08 -7.03601e-177 0
4.6537e-09 -5.28591e-175 0
4.87953e-10 -2.82876e-173 0
1.95111e-11 -2.7766e-173 0
0 0 0
0 0 0
0 -3.08874e-162 0
1.93581e-17 -3.69871e-160 0
2.10824e-18 -4.32987e-158 0
1.60108e-19 -4.99518e-156 0
1.00929e-20 -5.6774e-154 0
5.59199e-22 -6.35519e-152 0
2.79842e-23 -7.00392e-150 0
1.28516e-24 -7.59678e-148 0
5.4734e-26 -8.10638e-146 0
2.17816e-27 -8.50658e-144 0
8.14635e-29 -8.77449e-142 0
2.8766e-30 -8.89248e-140 0
9.62703e-32 -8.84989e-138 0
3.06338e-33 -8.64426e-136 0
9.29424e-35 -8.28199e-134 0
2.69518e-36 -7.77818e-132 0
7.48622e-38 -7.15566e-130 0
1.99561e-39 -6.44339e-128 0
5.11433e-41 -5.67413e-126 0
1.26209e-42 -4.88195e-124 0
3.00338e-44 -4.09956e-122 0
6.9013e-46 -3.35596e-120 0
1.53316e-47 -2.67456e-118 0
3.29666e-49 -2.07196e-116 0
6.8684e-51 -1.55757e-114 0
1.38791e-52 -1.1339e-112 0
2.72268e-54 -7.97511e-111 0
5.18964e-56 -5.40416e-109 0
9.61924e-58 -3.51641e-107 0
1.73517e-59 -2.18825e-105 0
3.0483e-61 -1.29584e-103 0
5.21898e-63 -7.25675e-102 0
8.71389e-65 -3.81205e-100 0
1.41973e-66 -1.85851e-98 0
2.2585e-68 -8.28728e-97 0
3.50995e-70 -3.30994e-95 0
5.33188e-72 -1.14714e-93 0
7.92097e-74 -3.27411e-92 0
1.15135e-75 -6.97412e-91 0
1.66104e-77 -8.73705e-90 0
2.3395e-75 -2.14298e-87 0
0 -1.72385e-183 0
3.07171e-07 -2.48285e-181 0
3.06816e-07 -3.27356e-179 0
1.06058e-07 -3.87189e-177 0
2.0941e-08 -4.20753e-175 0
3.07487e-09 -4.20634e-173 0
3.66675e-10 -3.6917e-171 0
3.35641e-11 -2.40648e-169 0
1.06706e-12 -2.36998e-169 0
7.46611e-14 0 0
5.12181e-15 -1.8973e-161 0
3.41579e-16 -2.29787e-159 0
2.08012e-17 -2.72199e-157 0
1.16513e-18 -3.17896e-155 0
6.04001e-20 -3.6593e-153 0
2.91348e-21 -4.15047e-151 0
1.3138e-22 -4.63711e-149 0
5.56133e-24 -5.10156e-147 0
2.21794e-25 -5.52474e-145 0
8.36108e-27 -5.88722e-143 0
2.98806e-28 -6.17054e-141 0
1.01503e-29 -6.35865e-139 0
3.28532e-31 -6.43922e-137 0
1.01539e-32 -6.40491e-135 0
3.00272e-34 -6.25416e-133 0
8.51175e-36 -5.99165e-131 0
2.31676e-37 -5.62817e-129 0
6.06427e-39 -5.17998e-127 0
1.52876e-40 -4.66758e-125 0
3.71664e-42 -4.11422e-123 0
8.72476e-44 -3.54406e-121 0
1.97996e-45 -2.98036e-119 0
4.34843e-47 -2.44381e-117 0
9.25186e-49 -1.95119e-115 0
1.90882e-50 -1.51455e-113 0
3.82237e-52 -1.14084e-111 0
7.4354e-54 -8.32154e-110 0
1.40615e-55 -5.86301e-108 0
2.58728e-57 -3.97799e-106 0
4.63506e-59 -2.58962e-104 0
8.09032e-61 -1.61012e-102 0
1.37676e-62 -9.50685e-101 0
2.2856e-64 -5.29101e-99 0
3.70383e-66 -2.74833e-97 0
5.86209e-68 -1.31433e-95 0
9.06649e-70 -5.67426e-94 0
1.37099e-71 -2.14584e-92 0
2.02791e-73 -6.75967e-91 0
2.93555e-75 -1.61109e-89 0
4.21829e-77 -2.28964e-88 0
6.03591e-75 -5.77885e-86 0
0 -3.98698e-182 0
1.6333e-07 -5.69553e-180 0
1.41625e-07 -7.81213e-178 0
4.72669e-08 -1.05166e-175 0
9.58529e-09 -1.3991e-173 0
1.45925e-09 -1.83914e-171 0
1.81152e-10 -2.38837e-169 0
1.88132e-11 -3.06361e-167 0
1.49584e-12 -3.88086e-165 0
1.08503e-13 -4.85399e-163 0
7.52834e-15 -5.99283e-161 0
4.78934e-16 -7.28284e-159 0
2.80811e-17 -8.73164e-157 0
1.52488e-18 -1.03257e-154 0
7.70406e-20 -1.20411e-152 0
3.63646e-21 -1.38424e-150 0
1.6098e-22 -1.56833e-148 0
6.70677e-24 -1.7507e-146 0
2.63804e-25 -1.92486e-144 0
9.82496e-27 -2.08376e-142 0
3.47385e-28 -2.22028e-140 0
1.16889e-29 -2.32759e-138 0
3.75127e-31 -2.39977e-136 0
1.15057e-32 -2.43221e-134 0
3.37906e-34 -2.42211e-132 0
9.5187e-36 -2.36876e-130 0
2.57608e-37 -2.27374e-128 0
6.7079e-39 -2.14083e-126 0
1.68293e-40 -1.97582e-124 0
4.07339e-42 -1.78614e-122 0
9.52326e-44 -1.58022e-120 0
2.15301e-45 -1.36694e-118 0
4.71191e-47 -1.15492e-116 0
9.99248e-49 -9.5193e-115 0
2.05534e-50 -7.64379e-113 0
4.10405e-52 -5.96996e-111 0
7.96202e-54 -4.5267e-109 0
1.50196e-55 -3.32491e-107 0
2.75707e-57 -2.35946e-105 0
4.92827e-59 -1.61239e-103 0
8.5841e-61 -1.05683e-101 0
1.4579e-62 -6.61002e-100 0
2.41577e-64 -3.91901e-98 0
3.90783e-66 -2.18306e-96 0
6.17456e-68 -1.12851e-94 0
9.53452e-70 -5.31713e-93 0
1.43957e-71 -2.22052e-91 0
2.12628e-73 -7.83917e-90 0
3.07371e-75 -2.13297e-88 0
4.41095e-77 -3.53379e-87 0
6.34686e-75 -9.18601e-85 0
0 0 0
4.19846e-08 0 0
3.25754e-08 0 0
1.07206e-08 0 0
2.23428e-09 0 0
3.50066e-10 0 0
4.44932e-11 0 0
4.76021e-12 0 0
4.28779e-13 0 0
3.38419e-14 0 0
2.40653e-15 0 0
1.55715e-16 0 0
9.24029e-18 0 0
5.06166e-19 0 0
2.57383e-20 0 0
1.22082e-21 0 0
5.42455e-23 0 0
2.26653e-24 0 0
8.9355e-26 0 0
3.33392e-27 0 0
1.18051e-28 0 0
3.97687e-30 0 0
1.27752e-31 0 0
3.92145e-33 0 0
1.15243e-34 0 0
3.24814e-36 0 0
8.79461e-38 0 0
2.29094e-39 0 0
5.74958e-41 0 0
1.39203e-42 0 0
3.25525e-44 0 0
7.36096e-46 0 0
1.61125e-47 0 0
3.41751e-49 0 0
7.03039e-51 0 0
1.40398e-52 0 0
2.72407e-54 0 0
5.1392e-56 0 0
9.43453e-58 0 0
1.68656e-59 0 0
2.93786e-61 0 0
4.98988e-63 0 0
8.26884e-65 0 0
1.33766e-66 0 0
2.11368e-68 0 0
3.26401e-70 0 0
4.92838e-72 0 0
7.27963e-74 0 0
1.05237e-75 0 0
1.51027e-77 0 0
2.17433e-75 0 0
0 0 -1.10515e-186
7.40347e-08 0 -1.63317e-184
5.54631e-08 0 -2.23288e-182
1.8165e-08 0 -2.38776e-180
3.81639e-09 0 -2.08548e-178
5.98757e-10 0 -1.46986e-176
7.59674e-11 0 -6.81107e-175
8.13311e-12 0 -8.8758e-176
7.54557e-13 0 -8.70152e-174
6.18001e-14 0 -1.00252e-171
4.53095e-15 0 -1.13638e-169
3.0064e-16 0 -1.26756e-167
1.8215e-17 0 -1.39092e-165
1.0152e-18 0 -1.50091e-163
5.2378e-20 0 -1.59201e-161
2.51515e-21 0 -1.65915e-159
1.12938e-22 0 -1.69813e-157
4.76171e-24 0 -1.70601e-155
1.89201e-25 0 -1.68146e-153
7.10774e-27 0 -1.62494e-151
2.53195e-28 0 -1.53876e-149
8.57506e-30 0 -1.4269e-147
2.76767e-31 0 -1.2948e-145
8.53155e-33 0 -1.14883e-143
2.51676e-34 0 -9.95854e-142
7.11782e-36 0 -8.42603e-140
1.93318e-37 0 -6.95191e-138
5.05001e-39 0 -5.58682e-136
1.27066e-40 0 -4.36798e-134
3.08364e-42 0 -3.31795e-132
7.22664e-44 0 -2.44505e-130
1.63738e-45 0 -1.74507e-128
3.59069e-47 0 -1.20401e-126
7.62889e-49 0 -8.01352e-125
1.57187e-50 0 -5.13263e-123
3.14366e-52 0 -3.15483e-121
6.10785e-54 0 -1.85496e-119
1.15378e-55 0 -1.03939e-117
2.12064e-57 0 -5.52557e-116
3.7952e-59 0 -2.7721e-114
6.61794e-61 0 -1.30393e-112
1.12516e-62 0 -5.70465e-111
1.86627e-64 0 -2.2979e-109
3.02177e-66 0 -8.41139e-108
4.77877e-68 0 -2.74938e-106
7.38536e-70 0 -7.83204e-105
1.11596e-71 0 -1.8763e-103
1.64954e-73 0 -3.57273e-102
2.38626e-75 0 -4.88818e-101
3.42678e-77 0 -3.83737e-100
4.87661e-75 0 -8.05235e-98
0.0036 -8.12982e-186 -7.45888e-186
0.0029977 -2.221e-181 -2.3679e-181
0.00108491 -6.54668e-179 -6.47019e-179
0.000230949 -1.00291e-176 -9.55938e-177
3.56455e-05 -1.1275e-174 -1.06221e-174
4.35301e-06 -1.06132e-172 -9.94023e-173
4.49136e-07 -7.35427e-171 -6.8608e-171
4.03601e-08 -2.42825e-172 -2.36329e-172
3.21852e-09 -1.6691e-170 -1.66943e-170
2.30781e-10 -1.96501e-168 -1.96506e-168
1.50307e-11 -2.27101e-166 -2.27101e-166
8.96492e-13 -2.58292e-164 -2.58292e-164
4.93029e-14 -2.891e-162 -2.891e-162
2.51474e-15 -3.18336e-160 -3.18336e-160
1.19564e-16 -3.44705e-158 -3.44705e-158
5.32251e-18 -3.66903e-156 -3.66903e-156
2.2271e-19 -3.83708e-154 -3.83708e-154
8.78982e-21 -3.94085e-152 -3.94085e-152
3.28239e-22 -3.97278e-150 -3.97278e-150
1.16303e-23 -3.92896e-148 -3.92896e-148
3.91998e-25 -3.80963e-146 -3.80963e-146
1.25972e-26 -3.6194e-144 -3.6194e-144
3.86792e-28 -3.36698e-142 -3.36698e-142
1.13693e-29 -3.0646e-140 -3.0646e-140
3.20492e-31 -2.72703e-138 -2.72703e-138
8.67838e-33 -2.37031e-136 -2.37031e-136
2.26078e-34 -2.01051e-134 -2.01051e-134
5.67402e-36 -1.6624e-132 -1.6624e-132
1.37374e-37 -1.33842e-130 -1.33842e-130
3.2124e-39 -1.04789e-128 -1.04789e-128
7.26381e-41 -7.96684e-127 -7.96684e-127
1.58992e-42 -5.8723e-125 -5.8723e-125
3.37207e-44 -4.18891e-123 -4.18891e-123
6.93649e-46 -2.88586e-121 -2.88586e-121
1.38514e-47 -1.91567e-119 -1.91567e-119
2.68733e-49 -1.22201e-117 -1.22201e-117
5.06955e-51 -7.46756e-116 -7.46756e-116
9.30602e-53 -4.35567e-114 -4.35567e-114
1.66347e-54 -2.41448e-112 -2.41448e-112
2.89745e-56 -1.26541e-110 -1.26541e-110
4.92094e-58 -6.2306e-109 -6.2306e-109
8.15408e-60 -2.85968e-107 -2.85968e-107
1.31902e-61 -1.21139e-105 -1.21139e-105
2.0841e-63 -4.67566e-104 -4.67566e-104
3.21816e-65 -1.61625e-102 -1.61625e-102
4.8589e-67 -4.88484e-101 -4.88484e-101
7.17666e-69 -1.24597e-99 -1.24597e-99
1.03744e-70 -2.53538e-98 -2.53538e-98
1.46843e-72 -3.71957e-97 -3.71957e-97
2.06365e-74 -3.13107e-96 -3.13107e-96
2.04934e-74 -5.54363e-96 -5.54363e-96
0.01 -9.27818e-185 -1.80445e-185
0.00814136 -1.30387e-180 2.147e-181
0.00315155 -1.42655e-177 -1.28604e-177
0.000665334 -3.41349e-175 -3.2624e-175
9.7847e-05 -5.24382e-173 -4.97511e-173
1.04488e-05 -7.34988e-171 -6.90037e-171
9.87439e-07 -1.0068e-168 -9.38497e-169
8.35386e-08 -1.00347e-170 -9.6169e-171
6.39389e-09 -3.75622e-169 -3.76043e-169
4.45357e-10 -4.53978e-167 -4.54048e-167
2.83978e-11 -5.30841e-165 -5.30849e-165
1.66702e-12 -6.09882e-163 -6.09882e-163
9.05635e-14 -6.89656e-161 -6.89656e-161
4.57508e-15 -7.67468e-159 -7.67468e-159
2.15858e-16 -8.40165e-157 -8.40165e-157
9.54928e-18 -9.04418e-155 -9.04418e-155
3.97518e-19 -9.56945e-153 -9.56945e-153
1.56217e-20 -9.9476e-151 -9.9476e-151
5.81247e-22 -1.01543e-148 -1.01543e-148
2.05312e-23 -1.01732e-146 -1.01732e-146
6.90157e-25 -9.99749e-145 -9.99749e-145
2.21274e-26 -9.63144e-143 -9.63144e-143
6.78036e-28 -9.09021e-141 -9.09021e-141
1.98945e-29 -8.39907e-139 -8.39907e-139
5.59921e-31 -7.59155e-137 -7.59155e-137
1.51403e-32 -6.70667e-135 -6.70667e-135
3.93916e-34 -5.78581e-133 -5.78581e-133
9.87504e-36 -4.86928e-131 -4.86928e-131
2.38837e-37 -3.99326e-129 -3.99326e-129
5.5798e-39 -3.18726e-127 -3.18726e-127
1.26061e-40 -2.47253e-125 -2.47253e-125
2.75707e-42 -1.86137e-123 -1.86137e-123
5.84324e-44 -1.3575e-121 -1.3575e-121
1.20117e-45 -9.57223e-120 -9.57223e-120
2.39712e-47 -6.51147e-118 -6.51147e-118
4.64802e-49 -4.26205e-116 -4.26205e-116
8.7636e-51 -2.67626e-114 -2.67626e-114
1.6079e-52 -1.6065e-112 -1.6065e-112
2.87281e-54 -9.18042e-111 -9.18042e-111
5.00168e-56 -4.96926e-109 -4.96926e-109
8.49117e-58 -2.53224e-107 -2.53224e-107
1.40645e-59 -1.20557e-105 -1.20557e-105
2.27426e-61 -5.31073e-104 -5.31073e-104
3.59216e-63 -2.13761e-102 -2.13761e-102
5.54499e-65 -7.72992e-101 -7.72992e-101
8.36941e-67 -2.45258e-99 -2.45258e-99
1.2358e-68 -6.59313e-98 -6.59313e-98
1.78593e-70 -1.42001e-96 -1.42001e-96
2.52718e-72 -2.21436e-95 -2.21436e-95
3.55062e-74 -1.98465e-94 -1.98465e-94
3.52611e-74 -3.5392e-94 -3.5392e-94
0.0148 -3.74127e-186 5.48623e-185
0.0140231 6.20512e-183 -5.77459e-181
0.00622191 -2.19283e-179 -1.30759e-177
0.00136055 -4.66453e-177 -5.77693e-175
0.000191645 -3.74371e-175 -7.28998e-173
6.93486e-06 -3.69728e-175 -6.82594e-171
6.28615e-07 0 -9.31685e-169
5.15555e-08 1.36271e-166 1.25984e-166
4.11257e-09 -6.67114e-168 -6.72355e-168
2.95831e-10 -9.14429e-166 -9.15322e-166
1.93534e-11 -1.09432e-163 -1.09443e-163
1.16001e-12 -1.27176e-161 -1.27176e-161
6.41123e-14 -1.45343e-159 -1.45343e-159
3.28584e-15 -1.6352e-157 -1.6352e-157
1.56938e-16 -1.81044e-155 -1.81044e-155
7.01603e-18 -1.97181e-153 -1.97181e-153
2.94733e-19 -2.11171e-151 -2.11171e-151
1.1675e-20 -2.22281e-149 -2.22281e-149
4.37457e-22 -2.29862e-147 -2.29862e-147
1.55486e-23 -2.33406e-145 -2.33406e-145
5.25579e-25 -2.32596e-143 -2.32596e-143
1.69351e-26 -2.27348e-141 -2.27348e-141
5.21273e-28 -2.17825e-139 -2.17825e-139
1.53574e-29 -2.04437e-137 -2.04437e-137
4.33837e-31 -1.87814e-135 -1.87814e-135
1.17709e-32 -1.68761e-133 -1.68761e-133
3.07208e-34 -1.48187e-131 -1.48187e-131
7.7235e-36 -1.27036e-129 -1.27036e-129
1.87296e-37 -1.06211e-127 -1.06211e-127
4.3864e-39 -8.65013e-126 -8.65013e-126
9.93248e-41 -6.85372e-124 -6.85372e-124
2.17693e-42 -5.27527e-122 -5.27527e-122
4.62282e-44 -3.93788e-120 -3.93788e-120
9.52051e-46 -2.84557e-118 -2.84557e-118
1.90324e-47 -1.98626e-116 -1.98626e-116
3.69636e-49 -1.33596e-114 -1.33596e-114
6.9799e-51 -8.63367e-113 -8.63367e-113
1.28247e-52 -5.34291e-111 -5.34291e-111
2.29446e-54 -3.15356e-109 -3.15356e-109
3.99984e-56 -1.76671e-107 -1.76671e-107
6.79855e-58 -9.33906e-106 -9.33906e-106
1.12737e-59 -4.62399e-104 -4.62399e-104
1.82495e-61 -2.1244e-102 -2.1244e-102
2.88543e-63 -8.94641e-101 -8.94641e-101
4.45838e-65 -3.39694e-99 -3.39694e-99
6.73554e-67 -1.13628e-97 -1.13628e-97
9.95423e-69 -3.23508e-96 -3.23508e-96
1.43975e-70 -7.41676e-95 -7.41676e-95
2.03894e-72 -1.23756e-93 -1.23756e-93
2.86686e-74 -1.19012e-92 -1.19012e-92
2.84702e-74 -2.13841e-92 -2.13841e-92
0.018 -7.32081e-188 1.66175e-182
0.0189303 2.46424e-184 -1.86807e-178
0.00950146 -2.22811e-181 2.64786e-176
0.00218635 -4.76757e-179 -1.64695e-173
0.000298834 -2.66528e-177 -3.28223e-171
0 -2.61783e-177 -3.26574e-171
0 0 0
0 0 1.25993e-166
2.53019e-10 -1.85117e-164 -1.71067e-164
3.30438e-11 -1.44758e-164 -1.45876e-164
2.91687e-12 -1.93874e-162 -1.94016e-162
2.10898e-13 -2.29826e-160 -2.29826e-160
1.32777e-14 -2.65542e-158 -2.65542e-158
7.49307e-16 -3.02146e-156 -3.02146e-156
3.85506e-17 -3.38456e-154 -3.38456e-154
1.82858e-18 -3.73105e-152 -3.73105e-152
8.06204e-20 -4.04606e-150 -4.04606e-150
3.32461e-21 -4.31448e-148 -4.31448e-148
1.28881e-22 -4.52196e-146 -4.52196e-146
4.71624e-24 -4.65611e-144 -4.65611e-144
1.63496e-25 -4.70759e-142 -4.70759e-142
5.38576e-27 -4.67107e-140 -4.67107e-140
1.69039e-28 -4.54593e-138 -4.54593e-138
5.06713e-30 -4.33651e-136 -4.33651e-136
1.45379e-31 -4.05203e-134 -4.05203e-134
3.99982e-33 -3.70589e-132 -3.70589e-132
1.05716e-34 -3.3147e-130 -3.3147e-130
2.68846e-36 -2.89692e-128 -2.89692e-128
6.58816e-38 -2.47137e-126 -2.47137e-126
1.5578e-39 -2.05575e-124 -2.05575e-124
3.55872e-41 -1.66532e-122 -1.66532e-122
7.86353e-43 -1.31197e-120 -1.31197e-120
1.6825e-44 -1.00363e-118 -1.00363e-118
3.48936e-46 -7.44181e-117 -7.44181e-117
7.02112e-48 -5.3378e-115 -5.3378e-115
1.37191e-49 -3.69497e-113 -3.69497e-113
2.60535e-51 -2.46175e-111 -2.46175e-111
4.81254e-53 -1.57351e-109 -1.57351e-109
8.65318e-55 -9.61242e-108 -9.61242e-108
1.51558e-56 -5.58637e-106 -5.58637e-106
2.58746e-58 -3.07119e-104 -3.07119e-104
4.30861e-60 -1.58597e-102 -1.58597e-102
7.00221e-62 -7.62395e-101 -7.62395e-101
1.11126e-63 -3.37154e-99 -3.37154e-99
1.72314e-65 -1.34986e-97 -1.34986e-97
2.612e-67 -4.78354e-96 -4.78354e-96
3.87253e-69 -1.45057e-94 -1.45057e-94
5.61812e-71 -3.56367e-93 -3.56367e-93
7.97928e-73 -6.41341e-92 -6.41341e-92
1.12507e-74 -6.68018e-91 -6.68018e-91
1.11717e-74 -1.20988e-90 -1.20988e-90
0.0196 -1.84757e-188 -1.33701e-182
0.0216318 5.39245e-185 1.22801e-178
0.0116534 -5.72585e-182 -1.27984e-176
0.0027803 -1.01682e-179 -1.6358e-174
0.000378449 -5.53349e-178 -4.94148e-173
1.84117e-05 -5.43238e-178 4.58718e-169
0 0 4.58766e-169
0 0 0
0 0 -1.71004e-164
1.75346e-12 2.47061e-162 2.26609e-162
2.427e-13 -2.67734e-161 -2.69634e-161
2.21115e-14 -3.50122e-159 -3.50122e-159
1.62276e-15 -4.09126e-157 -4.09126e-157
1.02541e-16 -4.70985e-155 -4.70985e-155
5.7627e-18 -5.3399e-153 -5.3399e-153
2.93614e-19 -5.96057e-151 -5.96057e-151
1.37377e-20 -6.54803e-149 -6.54803e-149
5.95735e-22 -7.07676e-147 -7.07676e-147
2.41137e-23 -7.52107e-145 -7.52107e-145
9.16195e-25 -7.85695e-143 -7.85695e-143
3.28264e-26 -8.06403e-141 -8.06403e-141
1.1134e-27 -8.12743e-139 -8.12743e-139
3.58681e-29 -8.03933e-137 -8.03933e-137
1.10064e-30 -7.79999e-135 -7.79999e-135
3.2252e-32 -7.41817e-133 -7.41817e-133
9.04528e-34 -6.91074e-131 -6.91074e-131
2.43285e-35 -6.30151e-129 -6.30151e-129
6.28672e-37 -5.61942e-127 -5.61942e-127
1.56339e-38 -4.89625e-125 -4.89625e-125
3.74714e-40 -4.16403e-123 -4.16403e-123
8.66812e-42 -3.45258e-121 -3.45258e-121
1.93774e-43 -2.78738e-119 -2.78738e-119
4.1911e-45 -2.18796e-117 -2.18796e-117
8.78004e-47 -1.66709e-115 -1.66709e-115
1.7834e-48 -1.23064e-113 -1.23064e-113
3.51557e-50 -8.78228e-112 -8.78228e-112
6.7318e-52 -6.04341e-110 -6.04341e-110
1.2532e-53 -3.99805e-108 -3.99805e-108
2.26988e-55 -2.53364e-106 -2.53364e-106
4.0032e-57 -1.53139e-104 -1.53139e-104
6.87921e-59 -8.78106e-103 -8.78106e-103
1.15262e-60 -4.74479e-101 -4.74479e-101
1.8842e-62 -2.39533e-99 -2.39533e-99
3.00692e-64 -1.11707e-97 -1.11707e-97
4.68725e-66 -4.73888e-96 -4.73888e-96
7.14089e-68 -1.78921e-94 -1.78921e-94
1.06378e-69 -5.81765e-93 -5.81765e-93
1.55034e-71 -1.54384e-91 -1.54384e-91
2.2115e-73 -3.02578e-90 -3.02578e-90
3.13134e-75 -3.45392e-89 -3.45392e-89
3.10894e-75 -6.3082e-89 -6.3082e-89
0.0196 -8.50829e-187 -1.35295e-182
0.0216304 -3.23083e-183 1.24595e-178
0.0116519 -5.84118e-180 -1.31323e-176
0.00278006 -9.49539e-178 -1.36736e-174
0.000381573 -7.45159e-176 -2.28767e-173
3.76405e-05 -3.75976e-174 1.36923e-173
1.5508e-06 -3.68619e-174 -6.24693e-167
0 0 -6.24693e-167
0 0 0
0 0 2.2798e-162
1.12787e-14 -3.54561e-160 -3.52443e-160
4.18029e-15 -4.31945e-158 -4.31946e-158
5.02865e-16 -5.10674e-156 -5.10674e-156
4.15512e-17 -5.95011e-154 -5.95011e-154
2.76804e-18 -6.83074e-152 -6.83074e-152
1.58632e-19 -7.72384e-150 -7.72384e-150
8.08898e-21 -8.59952e-148 -8.59952e-148
3.74547e-22 -9.42397e-146 -9.42397e-146
1.59621e-23 -1.01612e-143 -1.01612e-143
6.32152e-25 -1.07754e-141 -1.07754e-141
2.34338e-26 -1.12332e-139 -1.12332e-139
8.17727e-28 -1.15068e-137 -1.15068e-137
2.6984e-29 -1.15762e-135 -1.15762e-135
8.45241e-31 -1.14314e-133 -1.14314e-133
2.52131e-32 -1.10739e-131 -1.10739e-131
7.18192e-34 -1.05169e-129 -1.05169e-129
1.95827e-35 -9.78477e-128 -9.78477e-128
5.12205e-37 -8.91166e-126 -8.91166e-126
1.2876e-38 -7.93851e-124 -7.93851e-124
3.11617e-40 -6.91005e-122 -6.91005e-122
7.27179e-42 -5.87121e-120 -5.87121e-120
1.63851e-43 -4.86368e-118 -4.86368e-118
3.56951e-45 -3.92295e-116 -3.92295e-116
7.52721e-47 -3.07617e-114 -3.07617e-114
1.53817e-48 -2.34101e-112 -2.34101e-112
3.04903e-50 -1.7255e-110 -1.7255e-110
5.8684e-52 -1.22892e-108 -1.22892e-108
1.09765e-53 -8.43378e-107 -8.43378e-107
1.9969e-55 -5.55855e-105 -5.55855e-105
3.5362e-57 -3.5042e-103 -3.5042e-103
6.09993e-59 -2.10251e-101 -2.10251e-101
1.0257e-60 -1.19312e-99 -1.19312e-99
1.68233e-62 -6.35214e-98 -6.35214e-98
2.69319e-64 -3.13914e-96 -3.13914e-96
4.21058e-66 -1.41907e-94 -1.41907e-94
6.43251e-68 -5.74673e-93 -5.74673e-93
9.60759e-70 -2.01968e-91 -2.01968e-91
1.40367e-71 -5.84603e-90 -5.84603e-90
2.00698e-73 -1.26287e-88 -1.26287e-88
2.84813e-75 -1.60376e-87 -1.60376e-87
2.82774e-75 -2.95511e-87 -2.95511e-87
0.018 -2.53411e-185 2.174e-182
0.0189168 -1.30166e-180 -2.65231e-178
0.00948964 -4.8225e-178 4.50987e-176
0.00218338 -6.96451e-176 2.97835e-174
0.000302951 -6.65312e-174 4.61068e-173
3.3181e-05 -5.12184e-172 6.95882e-173
2.89462e-06 -2.79496e-170 -2.48662e-170
9.87411e-08 -2.7444e-170 8.38186e-165
0 0 8.38188e-165
0 0 0
0 -3.31181e-159 -3.30821e-159
5.51483e-14 -4.05063e-157 -4.05059e-157
5.50101e-15 -4.84645e-155 -4.84645e-155
3.85116e-16 -5.71746e-153 -5.71746e-153
2.25064e-17 -6.64874e-151 -6.64874e-151
1.16179e-18 -7.61911e-149 -7.61911e-149
5.44073e-20 -8.60128e-147 -8.60128e-147
2.3474e-21 -9.5625e-145 -9.5625e-145
9.42524e-23 -1.04659e-142 -1.04659e-142
3.54731e-24 -1.12725e-140 -1.12725e-140
1.25829e-25 -1.19432e-138 -1.19432e-138
4.22501e-27 -1.24422e-136 -1.24422e-136
1.34768e-28 -1.27395e-134 -1.27395e-134
4.09615e-30 -1.28134e-132 -1.28134e-132
1.18938e-31 -1.26533e-130 -1.26533e-130
3.30684e-33 -1.22606e-128 -1.22606e-128
8.82125e-35 -1.16498e-126 -1.16498e-126
2.26182e-36 -1.08472e-124 -1.08472e-124
5.58348e-38 -9.88942e-123 -9.88942e-123
1.32899e-39 -8.82086e-121 -8.82086e-121
3.05418e-41 -7.68996e-119 -7.68996e-119
6.78537e-43 -6.54556e-117 -6.54556e-117
1.45901e-44 -5.43322e-115 -5.43322e-115
3.03963e-46 -4.39197e-113 -4.39197e-113
6.14176e-48 -3.45201e-111 -3.45201e-111
1.20471e-49 -2.63332e-109 -2.63332e-109
2.29599e-51 -1.94549e-107 -1.94549e-107
4.25513e-53 -1.38854e-105 -1.38854e-105
7.67451e-55 -9.54495e-104 -9.54495e-104
1.34803e-56 -6.29625e-102 -6.29625e-102
2.30759e-58 -3.96739e-100 -3.96739e-100
3.85227e-60 -2.37436e-98 -2.37436e-98
6.27537e-62 -1.33961e-96 -1.33961e-96
9.98127e-64 -7.05506e-95 -7.05506e-95
1.55095e-65 -3.42133e-93 -3.42133e-93
2.35565e-67 -1.49802e-91 -1.49802e-91
3.499e-69 -5.74621e-90 -5.74621e-90
5.08523e-71 -1.83624e-88 -1.83624e-88
7.23457e-73 -4.43969e-87 -4.43969e-87
1.02171e-74 -6.39822e-86 -6.39822e-86
1.01455e-74 -1.19001e-85 -1.19001e-85
0.0148 -4.06338e-183 4.98596e-183
0.0139235 -1.32448e-178 -6.75501e-179
0.00615583 -2.64336e-176 -8.52376e-176
0.0013441 -3.59511e-174 -6.20127e-174
0.000190706 -4.06711e-172 -4.52056e-172
2.18181e-05 -4.15559e-170 -4.21465e-170
2.13878e-06 -3.71986e-168 -3.72641e-168
1.68241e-07 -2.47344e-166 -2.47388e-166
4.65966e-09 -2.43665e-166 -1.11182e-162
2.90578e-10 0 -1.42632e-160
1.78202e-11 -2.07744e-158 -2.09159e-158
1.06706e-12 -2.5711e-156 -2.5711e-156
5.89277e-14 -3.11447e-154 -3.11447e-154
3.01821e-15 -3.72152e-152 -3.72152e-152
1.44085e-16 -4.38551e-150 -4.38551e-150
6.43909e-18 -5.09526e-148 -5.09526e-148
2.70425e-19 -5.83495e-146 -5.83495e-146
1.07101e-20 -6.58419e-144 -6.58419e-144
4.01254e-22 -7.31856e-142 -7.31856e-142