# vtk DataFile Version 2.0
Tobias Weinzierl: CPU, Manycore and Cluster Computing
ASCII

DATASET STRUCTURED_POINTS
DIMENSIONS  51 11 6

ORIGIN 0 0 0 

SPACING 0.1 0.1 0.1 

POINT_DATA 3366

VECTORS velocity float
0 0 0
1.16639e-11 0 0
4.72819e-09 0 0
-3.61165e-08 0 0
-1.21347e-07 0 0
-5.06846e-08 0 0
-3.30928e-08 0 0
-2.22662e-08 0 0
-6.04436e-09 0 0
1.96288e-09 0 0
-7.98391e-09 0 0
-3.04019e-08 0 0
-5.15928e-08 0 0
-6.26455e-08 0 0
-6.41734e-08 0 0
-6.17642e-08 0 0
-5.97752e-08 0 0
-5.95256e-08 0 0
-6.05649e-08 0 0
-6.20878e-08 0 0
-6.35427e-08 0 0
-6.46925e-08 0 0
-6.55009e-08 0 0
-6.60209e-08 0 0
-6.63288e-08 0 0
-6.64929e-08 0 0
-6.65636e-08 0 0
-6.65723e-08 0 0
-6.65336e-08 0 0
-6.64465e-08 0 0
-6.62949e-08 0 0
-6.60431e-08 0 0
-6.56231e-08 0 0
-6.49251e-08 0 0
-6.38271e-08 0 0
-6.22656e-08 0 0
-6.02655e-08 0 0
-5.78926e-08 0 0
-5.5198e-08 0 0
-5.22052e-08 0 0
-4.89279e-08 0 0
-4.53916e-08 0 0
-4.1653e-08 0 0
-3.78162e-08 0 0
-3.40356e-08 0 0
-3.0493e-08 0 0
-2.73658e-08 0 0
-2.48036e-08 0 0
-2.29317e-08 0 0
-2.19341e-08 0 0
0.00154769 0 0
0 4.06148e-07 0
2.33472e-11 -1.04132e-08 0
1.20612e-08 -8.58155e-09 0
-5.40816e-08 1.81442e-08 0
-1.78831e-07 -4.8366e-09 0
-6.57759e-08 4.85401e-09 0
-5.73182e-08 6.73763e-08 0
-6.20221e-08 6.68557e-08 0
-4.24607e-08 4.05473e-08 0
-2.30074e-08 2.96742e-08 0
-2.83376e-08 3.27676e-08 0
-5.81854e-08 3.52162e-08 0
-9.19127e-08 2.73847e-08 0
-1.10998e-07 1.34771e-08 0
-1.15047e-07 2.74302e-09 0
-1.1444e-07 -1.19345e-09 0
-1.16392e-07 -7.312e-10 0
-1.21791e-07 8.00693e-10 0
-1.28691e-07 1.77449e-09 0
-1.35223e-07 1.9807e-09 0
-1.40448e-07 1.71944e-09 0
-1.4419e-07 1.2949e-09 0
-1.46652e-07 8.84589e-10 0
-1.48153e-07 5.59686e-10 0
-1.48989e-07 3.31123e-10 0
-1.49387e-07 1.83341e-10 0
-1.49498e-07 9.25011e-11 0
-1.49411e-07 3.41378e-11 0
-1.49159e-07 -1.51461e-11 0
-1.48729e-07 -7.9195e-11 0
-1.48068e-07 -1.87156e-10 0
-1.47076e-07 -3.83736e-10 0
-1.45587e-07 -7.34646e-10 0
-1.43328e-07 -1.29518e-09 0
-1.39967e-07 -2.04594e-09 0
-1.353e-07 -2.88426e-09 0
-1.29375e-07 -3.70831e-09 0
-1.22379e-07 -4.48405e-09 0
-1.14484e-07 -5.22319e-09 0
-1.05813e-07 -5.92997e-09 0
-9.64798e-08 -6.5766e-09 0
-8.66272e-08 -7.10532e-09 0
-7.6452e-08 -7.43723e-09 0
-6.62343e-08 -7.48943e-09 0
-5.6353e-08 -7.2053e-09 0
-4.72426e-08 -6.57819e-09 0
-3.93178e-08 -5.64564e-09 0
-3.29222e-08 -4.4541e-09 0
-2.83053e-08 -2.99493e-09 0
-2.57689e-08 -1.34591e-09 0
0.00420835 -9.97968e-06 0
0 -1.9045e-08 0
2.5253e-11 -9.21425e-09 0
3.2428e-08 -3.1556e-08 0
1.02715e-08 -7.50437e-08 0
-4.18865e-08 -1.52883e-07 0
4.98628e-08 -9.53148e-08 0
-1.27761e-08 4.57495e-08 0
-6.9906e-08 6.83639e-08 0
-8.45208e-08 4.53036e-08 0
-6.07349e-08 2.80706e-08 0
-4.93942e-08 1.42613e-08 0
-6.45169e-08 7.69177e-09 0
-9.08061e-08 1.2044e-08 0
-1.05927e-07 2.14131e-08 0
-1.06389e-07 2.8039e-08 0
-1.02923e-07 2.93406e-08 0
-1.0342e-07 2.6628e-08 0
-1.08664e-07 2.1944e-08 0
-1.16095e-07 1.67897e-08 0
-1.2326e-07 1.20635e-08 0
-1.28926e-07 8.19496e-09 0
-1.32857e-07 5.27967e-09 0
-1.35315e-07 3.21932e-09 0
-1.36696e-07 1.83644e-09 0
-1.37354e-07 9.4472e-10 0
-1.37548e-07 3.81254e-10 0
-1.37437e-07 1.49761e-11 0
-1.37102e-07 -2.57295e-10 0
-1.3656e-07 -5.2033e-10 0
-1.35777e-07 -8.51013e-10 0
-1.3467e-07 -1.32795e-09 0
-1.33121e-07 -2.04837e-09 0
-1.30959e-07 -3.15267e-09 0
-1.27885e-07 -4.78651e-09 0
-1.23418e-07 -6.94296e-09 0
-1.17175e-07 -9.37338e-09 0
-1.09193e-07 -1.17614e-08 0
-9.97865e-08 -1.39303e-08 0
-8.92569e-08 -1.58322e-08 0
-7.78327e-08 -1.74352e-08 0
-6.57396e-08 -1.86729e-08 0
-5.32348e-08 -1.94568e-08 0
-4.05883e-08 -1.96858e-08 0
-2.81149e-08 -1.92507e-08 0
-1.62326e-08 -1.80735e-08 0
-5.43283e-09 -1.61588e-08 0
3.82482e-09 -1.35902e-08 0
1.1187e-08 -1.048e-08 0
1.64581e-08 -6.94333e-09 0
1.94978e-08 -3.26554e-09 0
0.00564893 -2.39965e-05 0
0 -6.45689e-07 0
2.51473e-11 -1.94033e-08 0
4.81749e-08 -6.88991e-08 0
4.46017e-08 -1.40539e-07 0
-2.00423e-08 -1.93682e-07 0
6.4954e-08 -1.02695e-07 0
1.1455e-08 -7.63963e-11 0
-3.01501e-08 -1.21917e-08 0
-8.61009e-08 -4.44702e-08 0
-8.44032e-08 -7.01262e-08 0
-8.13895e-08 -6.9876e-08 0
-1.03543e-07 -4.32582e-08 0
-1.30597e-07 1.73509e-10 0
-1.41597e-07 3.45458e-08 0
-1.3269e-07 4.80085e-08 0
-1.15047e-07 4.65944e-08 0
-9.97533e-08 3.91575e-08 0
-9.11774e-08 3.05036e-08 0
-8.82552e-08 2.23788e-08 0
-8.82592e-08 1.54584e-08 0
-8.91149e-08 1.00251e-08 0
-8.98404e-08 6.06755e-09 0
-9.01751e-08 3.36901e-09 0
-9.0167e-08 1.62801e-09 0
-8.99344e-08 5.48337e-10 0
-8.95718e-08 -1.18651e-10 0
-8.91278e-08 -5.66245e-10 0
-8.8609e-08 -9.42199e-10 0
-8.79898e-08 -1.36565e-09 0
-8.72182e-08 -1.94463e-09 0
-8.62115e-08 -2.78625e-09 0
-8.48647e-08 -4.00853e-09 0
-8.30798e-08 -5.7943e-09 0
-8.065e-08 -8.41084e-09 0
-7.69827e-08 -1.19609e-08 0
-7.13533e-08 -1.60684e-08 0
-6.36639e-08 -2.00884e-08 0
-5.43685e-08 -2.3588e-08 0
-4.38807e-08 -2.64255e-08 0
-3.24782e-08 -2.8555e-08 0
-2.04453e-08 -2.99249e-08 0
-8.11387e-09 -3.0494e-08 0
4.24071e-09 -3.02274e-08 0
1.6367e-08 -2.90524e-08 0
2.78899e-08 -2.68838e-08 0
3.83173e-08 -2.37256e-08 0
4.72007e-08 -1.97077e-08 0
5.42396e-08 -1.50189e-08 0
5.9316e-08 -9.88854e-09 0
6.2406e-08 -4.91106e-09 0
0.00602498 -3.77547e-05 0
0 -1.24015e-06 0
-3.76312e-12 -3.56508e-08 0
2.2757e-08 -9.63023e-08 0
-1.7277e-09 -1.23598e-07 0
-7.56613e-08 -9.58674e-08 0
-3.28416e-11 -3.29658e-08 0
-3.02523e-10 -3.87057e-10 0
3.31382e-10 -3.69601e-10 0
-3.79965e-08 -4.20512e-08 0
-1.05978e-07 -1.00602e-07 0
-1.28398e-07 -1.01562e-07 0
-1.46299e-07 -5.53251e-08 0
-1.66196e-07 3.16212e-09 0
-1.73833e-07 4.12104e-08 0
-1.64032e-07 4.9094e-08 0
-1.40694e-07 4.09576e-08 0
-1.14363e-07 3.01626e-08 0
-9.37337e-08 2.13536e-08 0
-8.08613e-08 1.45142e-08 0
-7.37076e-08 9.13554e-09 0
-6.97281e-08 5.08834e-09 0
-6.72935e-08 2.29236e-09 0
-6.56257e-08 5.38957e-10 0
-6.44009e-08 -4.60132e-10 0
-6.34766e-08 -9.85983e-10 0
-6.27687e-08 -1.26719e-09 0
-6.22102e-08 -1.47426e-09 0
-6.17406e-08 -1.73368e-09 0
-6.13042e-08 -2.14857e-09 0
-6.0849e-08 -2.82153e-09 0
-6.03102e-08 -3.86781e-09 0
-5.95917e-08 -5.40656e-09 0
-5.86519e-08 -7.61804e-09 0
-5.74826e-08 -1.09029e-08 0
-5.54877e-08 -1.56531e-08 0
-5.13364e-08 -2.15117e-08 0
-4.44506e-08 -2.73845e-08 0
-3.54339e-08 -3.23704e-08 0
-2.48656e-08 -3.61386e-08 0
-1.31157e-08 -3.86348e-08 0
-5.78663e-10 -3.98708e-08 0
1.22569e-08 -3.99216e-08 0
2.50656e-08 -3.89087e-08 0
3.76442e-08 -3.68674e-08 0
4.962e-08 -3.37249e-08 0
6.04376e-08 -2.94765e-08 0
6.96196e-08 -2.4284e-08 0
7.69005e-08 -1.8391e-08 0
8.22073e-08 -1.20866e-08 0
8.55217e-08 -6.21981e-09 0
0.00603007 -4.88018e-05 0
0 -1.10946e-06 0
-2.3812e-11 -3.63723e-08 0
-1.21095e-09 -7.64209e-08 0
-3.21348e-08 -9.75654e-08 0
-1.0246e-07 -1.13982e-07 0
-6.17009e-08 -5.64757e-08 0
-3.15284e-10 3.01171e-10 0
3.02139e-11 -3.02139e-11 0
3.06469e-10 -3.56296e-10 0
-5.73391e-08 -5.14691e-08 0
-1.34487e-07 -1.03309e-07 0
-1.37172e-07 -6.42546e-08 0
-1.46599e-07 8.94116e-09 0
-1.62649e-07 5.22033e-08 0
-1.7252e-07 5.38904e-08 0
-1.60839e-07 3.52466e-08 0
-1.32896e-07 1.74406e-08 0
-1.04435e-07 6.7951e-09 0
-8.40168e-08 1.25527e-09 0
-7.17113e-08 -1.68844e-09 0
-6.47264e-08 -3.18725e-09 0
-6.0708e-08 -3.73016e-09 0
-5.83034e-08 -3.66607e-09 0
-5.6822e-08 -3.29765e-09 0
-5.59029e-08 -2.85431e-09 0
-5.534e-08 -2.48534e-09 0
-5.50061e-08 -2.28093e-09 0
-5.48198e-08 -2.30072e-09 0
-5.47285e-08 -2.59862e-09 0
-5.47042e-08 -3.24763e-09 0
-5.47262e-08 -4.36463e-09 0
-5.47143e-08 -6.08473e-09 0
-5.46184e-08 -8.54729e-09 0
-5.46889e-08 -1.21927e-08 0
-5.46685e-08 -1.78416e-08 0
-5.25022e-08 -2.54857e-08 0
-4.64718e-08 -3.3563e-08 0
-3.72774e-08 -4.03794e-08 0
-2.58089e-08 -4.51976e-08 0
-1.27496e-08 -4.79566e-08 0
1.30054e-09 -4.88233e-08 0
1.56625e-08 -4.80536e-08 0
2.99352e-08 -4.60205e-08 0
4.39446e-08 -4.29658e-08 0
5.72707e-08 -3.88569e-08 0
6.92295e-08 -3.3657e-08 0
7.92918e-08 -2.75331e-08 0
8.72433e-08 -2.07448e-08 0
9.30644e-08 -1.35907e-08 0
9.66685e-08 -7.08042e-09 0
0.00590711 -5.56783e-05 0
0 -7.75191e-07 0
-1.26201e-11 -2.78384e-08 0
-3.00604e-09 -6.80941e-08 0
-3.31816e-08 -8.06772e-08 0
-1.2334e-07 -7.12345e-08 0
-1.42738e-07 -3.79443e-08 0
-4.58037e-08 -7.12614e-09 0
-3.0754e-10 2.94803e-10 0
1.16689e-11 -1.16689e-11 0
2.69401e-10 -3.4354e-10 0
-5.84386e-08 -5.39722e-08 0
-7.46995e-08 -6.18554e-08 0
-7.89128e-08 2.66178e-08 0
-1.03225e-07 7.84961e-08 0
-1.41723e-07 7.15814e-08 0
-1.57794e-07 3.6049e-08 0
-1.41387e-07 5.93255e-09 0
-1.12514e-07 -8.92045e-09 0
-8.87865e-08 -1.34508e-08 0
-7.44542e-08 -1.33697e-08 0
-6.70981e-08 -1.15968e-08 0
-6.3655e-08 -9.36018e-09 0
-6.21545e-08 -7.21523e-09 0
-6.15739e-08 -5.41878e-09 0
-6.14244e-08 -4.05786e-09 0
-6.14812e-08 -3.12849e-09 0
-6.16464e-08 -2.59492e-09 0
-6.18849e-08 -2.42786e-09 0
-6.21927e-08 -2.62493e-09 0
-6.25911e-08 -3.2234e-09 0
-6.31302e-08 -4.33113e-09 0
-6.37961e-08 -6.12886e-09 0
-6.44873e-08 -8.75446e-09 0
-6.56106e-08 -1.25243e-08 0
-6.76616e-08 -1.85422e-08 0
-6.81594e-08 -2.74836e-08 0
-6.32255e-08 -3.75734e-08 0
-5.34033e-08 -4.6187e-08 0
-4.01537e-08 -5.20291e-08 0
-2.47784e-08 -5.507e-08 0
-8.24767e-09 -5.56847e-08 0
8.67227e-09 -5.41835e-08 0
2.54606e-08 -5.1172e-08 0
4.18449e-08 -4.72002e-08 0
5.72805e-08 -4.23131e-08 0
7.09151e-08 -3.64195e-08 0
8.21932e-08 -2.96714e-08 0
9.10115e-08 -2.23189e-08 0
9.7452e-08 -1.46123e-08 0
1.01332e-07 -7.58742e-09 0
0.00572411 -5.84657e-05 0
0 -5.44938e-07 0
-2.68432e-12 -2.21834e-08 0
-5.60707e-09 -5.33825e-08 0
-4.4474e-08 -6.12746e-08 0
-1.24266e-07 -4.25712e-08 0
-1.60948e-07 -1.21495e-08 0
-1.13552e-07 -8.07664e-09 0
-5.27879e-08 -8.42576e-09 0
-3.26784e-10 2.62823e-10 0
2.64019e-10 2.5086e-10 0
1.2818e-13 -2.83849e-08 0
-5.84714e-08 -2.14282e-08 0
-5.8243e-08 5.37253e-08 0
-4.05247e-08 1.00486e-07 0
-6.28753e-08 8.51917e-08 0
-1.03307e-07 3.80391e-08 0
-1.19213e-07 -6.20578e-10 0
-1.10602e-07 -1.83909e-08 0
-9.68195e-08 -2.18662e-08 0
-8.79516e-08 -1.92497e-08 0
-8.44468e-08 -1.50156e-08 0
-8.39988e-08 -1.09844e-08 0
-8.47684e-08 -7.74958e-09 0
-8.58197e-08 -5.38862e-09 0
-8.67962e-08 -3.78387e-09 0
-8.76168e-08 -2.77583e-09 0
-8.831e-08 -2.23137e-09 0
-8.89412e-08 -2.06787e-09 0
-8.95857e-08 -2.25908e-09 0
-9.03271e-08 -2.83076e-09 0
-9.12837e-08 -3.87091e-09 0
-9.25504e-08 -5.58393e-09 0
-9.40465e-08 -8.21522e-09 0
-9.61645e-08 -1.19683e-08 0
-1.00244e-07 -1.77462e-08 0
-1.04084e-07 -2.66468e-08 0
-1.00458e-07 -3.68706e-08 0
-8.91647e-08 -4.53921e-08 0
-7.35711e-08 -5.13948e-08 0
-5.4709e-08 -5.52629e-08 0
-3.38676e-08 -5.69174e-08 0
-1.23029e-08 -5.59784e-08 0
8.9536e-09 -5.30134e-08 0
2.92264e-08 -4.89015e-08 0
4.77192e-08 -4.38089e-08 0
6.34799e-08 -3.76587e-08 0
7.60813e-08 -3.06622e-08 0
8.56708e-08 -2.3106e-08 0
9.25395e-08 -1.52014e-08 0
9.65049e-08 -7.87497e-09 0
0.00547333 -5.89821e-05 0
0 -4.71264e-07 0
7.68688e-12 -1.40236e-08 0
-1.14805e-08 -3.69408e-08 0
-6.36069e-08 -4.53859e-08 0
-1.40774e-07 -3.08029e-08 0
-1.76476e-07 1.74205e-09 0
-1.44773e-07 7.49622e-09 0
-1.13916e-07 -3.91795e-08 0
-6.53769e-08 -3.65999e-08 0
-5.22256e-08 -1.6257e-14 0
-7.81224e-08 1.79419e-08 0
-1.61357e-07 4.30266e-08 0
-1.5143e-07 5.45808e-08 0
-6.05655e-08 5.6894e-08 0
-2.31156e-08 4.41287e-08 0
-6.3993e-08 2.14211e-08 0
-1.10128e-07 1.42206e-09 0
-1.26965e-07 -9.44959e-09 0
-1.27491e-07 -1.2222e-08 0
-1.26173e-07 -1.08748e-08 0
-1.26892e-07 -8.37826e-09 0
-1.28932e-07 -6.03842e-09 0
-1.31192e-07 -4.22678e-09 0
-1.33138e-07 -2.95053e-09 0
-1.34656e-07 -2.11264e-09 0
-1.35816e-07 -1.61226e-09 0
-1.36742e-07 -1.3775e-09 0
-1.37566e-07 -1.37321e-09 0
-1.38414e-07 -1.60345e-09 0
-1.39419e-07 -2.11305e-09 0
-1.40749e-07 -2.98015e-09 0
-1.42595e-07 -4.35458e-09 0
-1.45042e-07 -6.54269e-09 0
-1.48543e-07 -9.83151e-09 0
-1.54899e-07 -1.45689e-08 0
-1.62725e-07 -2.13465e-08 0
-1.61226e-07 -2.82384e-08 0
-1.48135e-07 -3.26157e-08 0
-1.3221e-07 -3.65659e-08 0
-1.11348e-07 -4.20638e-08 0
-8.49766e-08 -4.68124e-08 0
-5.59957e-08 -4.83697e-08 0
-2.7969e-08 -4.69053e-08 0
-2.48275e-09 -4.36939e-08 0
1.9553e-08 -3.92145e-08 0
3.73851e-08 -3.3619e-08 0
5.10141e-08 -2.72673e-08 0
6.10032e-08 -2.0495e-08 0
6.79223e-08 -1.3529e-08 0
7.17034e-08 -7.11677e-09 0
0.00500667 -5.71084e-05 0
0 -4.922e-07 0
1.88519e-11 -5.47582e-09 0
-1.78835e-08 -1.67375e-08 0
-7.54127e-08 -2.17595e-08 0
-1.4289e-07 -1.51684e-08 0
-1.77063e-07 -6.62272e-09 0
-1.55282e-07 -6.02185e-09 0
-1.32254e-07 -2.71462e-08 0
-1.50745e-07 -3.04398e-08 0
-1.34289e-07 9.67357e-09 0
-1.317e-07 5.62441e-08 0
-1.38199e-07 7.17002e-08 0
-1.08987e-07 3.96903e-08 0
-4.49271e-08 -7.59951e-09 0
-3.13859e-08 -3.60605e-08 0
-8.03803e-08 -3.48855e-08 0
-1.29268e-07 -1.71351e-08 0
-1.47861e-07 -1.94751e-09 0
-1.48366e-07 3.87109e-09 0
-1.45471e-07 3.80943e-09 0
-1.44118e-07 2.15195e-09 0
-1.44341e-07 7.75931e-10 0
-1.45281e-07 5.51763e-12 0
-1.46362e-07 -3.30209e-10 0
-1.47346e-07 -4.42357e-10 0
-1.48192e-07 -4.73805e-10 0
-1.48944e-07 -5.05051e-10 0
-1.49689e-07 -5.82752e-10 0
-1.50532e-07 -7.41959e-10 0
-1.5161e-07 -1.02274e-09 0
-1.53106e-07 -1.47822e-09 0
-1.55252e-07 -2.17904e-09 0
-1.58319e-07 -3.28549e-09 0
-1.62962e-07 -5.03247e-09 0
-1.70688e-07 -7.27871e-09 0
-1.80189e-07 -9.67631e-09 0
-1.80686e-07 -1.17789e-08 0
-1.68907e-07 -1.2614e-08 0
-1.58532e-07 -1.43151e-08 0
-1.44784e-07 -1.92919e-08 0
-1.23071e-07 -2.48532e-08 0
-9.51829e-08 -2.74789e-08 0
-6.73271e-08 -2.67137e-08 0
-4.28636e-08 -2.4162e-08 0
-2.24554e-08 -2.09919e-08 0
-6.27307e-09 -1.75475e-08 0
5.97363e-09 -1.39423e-08 0
1.49109e-08 -1.02653e-08 0
2.10597e-08 -6.66764e-09 0
2.43114e-08 -3.60385e-09 0
0.00374811 -4.14886e-05 0
0 0 0
1.26296e-11 0 0
-9.89205e-09 0 0
-3.71404e-08 0 0
-6.54818e-08 0 0
-8.04646e-08 0 0
-7.82647e-08 0 0
-7.11196e-08 0 0
-8.54003e-08 0 0
-8.20685e-08 0 0
-5.35773e-08 0 0
-1.82964e-08 0 0
2.59869e-09 0 0
5.50031e-09 0 0
-1.50845e-08 0 0
-4.68464e-08 0 0
-6.84478e-08 0 0
-7.44636e-08 0 0
-7.23507e-08 0 0
-6.89326e-08 0 0
-6.66677e-08 0 0
-6.56489e-08 0 0
-6.53926e-08 0 0
-6.54941e-08 0 0
-6.57286e-08 0 0
-6.60006e-08 0 0
-6.62872e-08 0 0
-6.66039e-08 0 0
-6.699e-08 0 0
-6.75061e-08 0 0
-6.82404e-08 0 0
-6.93104e-08 0 0
-7.08872e-08 0 0
-7.33478e-08 0 0
-7.72573e-08 0 0
-8.17669e-08 0 0
-8.22938e-08 0 0
-7.74441e-08 0 0
-7.45925e-08 0 0
-7.12533e-08 0 0
-6.40926e-08 0 0
-5.28715e-08 0 0
-4.09654e-08 0 0
-3.06351e-08 0 0
-2.21139e-08 0 0
-1.5301e-08 0 0
-1.00563e-08 0 0
-6.1562e-09 0 0
-3.43368e-09 0 0
-1.99839e-09 0 0
0.00140441 0 0
0 0 5.50224e-07
3.11224e-11 0 5.68482e-09
1.96172e-08 0 4.47095e-08
-4.34431e-08 0 1.07931e-07
-3.18175e-07 0 1.94046e-08
-1.31747e-07 0 -9.31082e-08
-5.99943e-08 0 -9.57949e-08
-7.54154e-09 0 -9.39043e-08
4.15357e-08 0 -6.47765e-08
7.34131e-08 0 -2.77348e-08
6.94187e-08 0 -4.02945e-10
3.00732e-08 0 8.3925e-09
-2.28551e-08 0 4.85869e-09
-6.63724e-08 0 -8.96648e-10
-9.21796e-08 0 -3.62446e-09
-1.05762e-07 0 -3.2049e-09
-1.15015e-07 0 -1.5076e-09
-1.23676e-07 0 -1.1161e-11
-1.31988e-07 0 7.87574e-10
-1.39179e-07 0 9.96987e-10
-1.4476e-07 0 8.85157e-10
-1.48724e-07 0 6.63135e-10
-1.51339e-07 0 4.43687e-10
-1.52952e-07 0 2.68165e-10
-1.53874e-07 0 1.40745e-10
-1.54341e-07 0 5.12898e-11
-1.54514e-07 0 -1.32056e-11
-1.54488e-07 0 -6.42296e-11
-1.54303e-07 0 -1.10755e-10
-1.53956e-07 0 -1.59557e-10
-1.53396e-07 0 -2.16365e-10
-1.52525e-07 0 -2.88188e-10
-1.51165e-07 0 -3.83415e-10
-1.49029e-07 0 -5.00857e-10
-1.45783e-07 0 -6.13624e-10
-1.41222e-07 0 -6.77377e-10
-1.35373e-07 0 -6.64706e-10
-1.28398e-07 0 -5.8353e-10
-1.20461e-07 0 -4.64297e-10
-1.1169e-07 0 -3.40205e-10
-1.02209e-07 0 -2.37049e-10
-9.2174e-08 0 -1.6964e-10
-8.1797e-08 0 -1.3814e-10
-7.13674e-08 0 -1.27937e-10
-6.12646e-08 0 -1.17918e-10
-5.19217e-08 0 -9.15907e-11
-4.37578e-08 0 -4.38081e-11
-3.713e-08 0 1.99692e-11
-3.2325e-08 0 1.25454e-10
-2.97111e-08 0 3.4938e-10
0.0041945 0 1.05254e-05
0.0036 -2.76311e-07 -3.78752e-08
0.00359982 -0.00128874 1.65124e-05
0.00676138 -0.00382742 -6.46343e-06
0.0136659 -0.00654144 -0.00118864
0.0241837 -0.0143126 -0.00483696
0.0461101 -0.0122738 -0.00494708
0.0493983 -0.00143154 -0.00166286
0.0490442 0.00293069 -0.000123815
0.0438815 0.00519411 0.000623936
0.0381671 0.00534379 0.000576827
0.0330607 0.00460508 0.000232849
0.0288412 0.00355394 -0.000122736
0.0255357 0.00249244 -0.000338601
0.0230697 0.00162275 -0.000372892
0.021306 0.00102263 -0.000286564
0.0200825 0.000650982 -0.000171158
0.0192541 0.000424744 -8.21109e-05
0.0187064 0.000280437 -3.04234e-05
0.0183533 0.000183877 -6.23627e-06
0.0181316 0.000118383 2.68347e-06
0.0179956 7.46867e-05 4.67088e-06
0.0179137 4.64889e-05 4.13719e-06
0.0178646 2.91204e-05 3.03261e-06
0.0178342 1.91692e-05 2.06403e-06
0.0178135 1.4275e-05 1.40481e-06
0.0177964 1.29257e-05 1.04016e-06
0.0177786 1.42658e-05 9.13355e-07
0.0177569 1.79442e-05 9.79004e-07
0.017728 2.40089e-05 1.21858e-06
0.0176883 3.28454e-05 1.64315e-06
0.0176334 4.51407e-05 2.291e-06
0.0175576 6.1868e-05 3.22876e-06
0.0174535 8.43419e-05 4.59991e-06
0.0173116 0.000114248 6.72372e-06
0.0171201 0.000152938 9.97833e-06
0.0168655 0.000199513 1.42681e-05
0.0165373 0.000249281 1.86862e-05
0.0161338 0.000294688 2.19734e-05
0.0156645 0.000328088 2.32635e-05
0.015149 0.000344322 2.24243e-05
0.0146128 0.000341951 1.99494e-05
0.0140825 0.000323052 1.6683e-05
0.0135816 0.000291934 1.35074e-05
0.0131273 0.000253335 1.09976e-05
0.0127309 0.000210937 9.23367e-06
0.0123991 0.000166849 7.90533e-06
0.0121358 0.000121892 6.53703e-06
0.0119432 7.6244e-05 4.73782e-06
0.011822 3.24439e-05 4.39944e-06
0.0117706 4.04835e-06 1.51117e-05
0.0117706 -3.53844e-06 2.51201e-05
0.01 -1.37825e-07 -1.43865e-06
0.0100008 -0.00300313 -0.000513527
0.0149099 -0.00992684 -0.000770173
0.024102 -0.0178887 -0.00175513
0.0378928 -0.0315921 -0.00369717
0.0579641 -0.0232972 -0.000901912
0.0554848 -0.00209941 0.00272141
0.0551759 0.00560447 0.00285733
0.0495056 0.0105786 0.00253769
0.044052 0.0106161 0.00170449
0.0395732 0.00940592 0.000744692
0.0357938 0.00782996 -3.72548e-05
0.0326783 0.00614211 -0.000498483
0.030299 0.00453684 -0.000606202
0.0285825 0.00318284 -0.000479588
0.0273946 0.00215023 -0.000290912
0.0266 0.00141326 -0.00014198
0.026085 0.000908027 -5.42485e-05
0.0257622 0.000571051 -1.24283e-05
0.0255668 0.000351814 3.51074e-06
0.0254524 0.000212942 7.45267e-06
0.025387 0.000127692 6.84496e-06
0.0253496 7.75184e-05 5.03733e-06
0.0253266 5.00263e-05 3.28363e-06
0.0253095 3.7285e-05 1.91872e-06
0.0252927 3.45243e-05 9.34626e-07
0.025272 3.91882e-05 2.27501e-07
0.025244 5.0298e-05 -3.09985e-07
0.0252048 6.80605e-05 -7.59842e-07
0.0251499 9.3661e-05 -1.16936e-06
0.0250734 0.000129164 -1.5466e-06
0.0249674 0.000177412 -1.86852e-06
0.0248213 0.00024193 -2.01508e-06
0.0246221 0.000326975 -1.44895e-06
0.0243534 0.000436438 8.49164e-07
0.0239949 0.000569417 5.20861e-06
0.0235281 0.00071541 1.00849e-05
0.0229464 0.00085542 1.29674e-05
0.0222599 0.000968465 1.22102e-05
0.0214951 0.00103826 7.76067e-06
0.0206887 0.00105705 8.16854e-07
0.0198808 0.00102622 -6.72789e-06
0.0191085 0.000954173 -1.28749e-05
0.0184005 0.000852423 -1.6327e-05
0.017776 0.000731564 -1.69808e-05
0.0172473 0.000599142 -1.56709e-05
0.0168215 0.00045989 -1.35562e-05
0.0165032 0.000317007 -1.17525e-05
0.0162936 0.000174014 -8.68964e-06
0.0161942 4.7586e-05 1.13264e-05
0.0161939 -7.85112e-06 2.89703e-05
0.0148 -9.80413e-07 -1.73916e-06
0.0148024 -0.00527575 -0.00107173
0.0201946 -0.016196 -0.00238583
0.0268773 -0.0280806 -0.00416061
0.0313264 -0.0447027 -0.00554968
0.0298348 -0.0275619 -0.00106429
0.026406 -1.19705e-05 0.00302122
0.0261085 0.00727789 0.00304987
0.0301532 0.0150123 0.00289708
0.0306149 0.014645 0.00196288
0.0296652 0.0129067 0.000961607
0.0286297 0.0109134 0.000117697
0.0278273 0.00857488 -0.000356952
0.0274807 0.00621457 -0.000474813
0.0274237 0.00424905 -0.00036904
0.0274809 0.00280041 -0.000206598
0.0275561 0.00180168 -7.97715e-05
0.0276185 0.00113517 -8.51519e-06
0.0276668 0.000699189 2.05732e-05
0.0277054 0.000420353 2.64327e-05
0.0277366 0.000247352 2.26698e-05
0.0277608 0.000144283 1.65018e-05
0.0277777 8.6473e-05 1.0882e-05
0.0277871 5.76082e-05 6.60124e-06
0.0277889 4.74942e-05 3.57681e-06
0.0277827 5.02848e-05 1.47404e-06
0.0277676 6.31891e-05 -4.68797e-08
0.0277422 8.56116e-05 -1.25628e-06
0.0277036 0.000118644 -2.34559e-06
0.0276479 0.000164821 -3.42697e-06
0.0275693 0.000228051 -4.51035e-06
0.0274597 0.000313479 -5.52003e-06
0.0273079 0.000427126 -6.33557e-06
0.0270992 0.000576057 -6.19835e-06
0.026815 0.000768066 -2.83202e-06
0.026429 0.00100469 5.54245e-06
0.0259117 0.00127 1.65175e-05
0.0252487 0.00153026 2.47607e-05
0.0244508 0.00174622 2.64479e-05
0.0235518 0.0018862 2.09036e-05
0.0226 0.0019338 9.84082e-06
0.0216481 0.0018894 -3.45499e-06
0.0207429 0.00176697 -1.50971e-05
0.0199191 0.00158723 -2.23715e-05
0.0191975 0.00136993 -2.48839e-05
0.0185898 0.00112951 -2.40335e-05
0.0181028 0.000875059 -2.17126e-05
0.0177404 0.000612514 -1.95578e-05
0.0175039 0.000348202 -1.65658e-05
0.0173933 0.000102972 5.80831e-06
0.0173929 -1.06078e-05 2.60445e-05
0.018 -1.9928e-06 -1.75903e-06
0.0180028 -0.00679868 -0.00188114
0.0205285 -0.0182785 -0.00489653
0.0203584 -0.0239292 -0.00638343
0.015908 -0.0261201 -0.00744442
-1.51553e-06 -0.0136802 -0.00407749
9.70166e-05 2.59489e-05 8.61397e-07
-3.26459e-05 3.42715e-05 0.000561703
0.00691586 0.00452105 0.0011964
0.0143743 0.0103674 0.00111086
0.0178257 0.0113366 0.000678409
0.0194678 0.0100321 0.000131589
0.0211442 0.0077769 -0.000260173
0.0229071 0.00535095 -0.000365998
0.0245045 0.00344286 -0.000287192
0.0257894 0.00214276 -0.000154125
0.0267259 0.00131345 -4.31586e-05
0.0273618 0.000792553 2.06169e-05
0.0277772 0.000465272 4.38137e-05
0.0280442 0.000262849 4.35641e-05
0.0282145 0.00014287 3.41916e-05
0.0283215 7.6874e-05 2.3641e-05
0.028387 4.53897e-05 1.49877e-05
0.0284247 3.57271e-05 8.77203e-06
0.0284431 4.0362e-05 4.57225e-06
0.0284476 5.55464e-05 1.76537e-06
0.0284406 8.0245e-05 -1.9035e-07
0.0284227 0.00011545 -1.68728e-06
0.0283929 0.000163825 -2.97566e-06
0.0283483 0.000229604 -4.17846e-06
0.0282842 0.000318709 -5.22731e-06
0.0281934 0.000438868 -5.79974e-06
0.0280649 0.000598979 -5.63211e-06
0.0278827 0.000809076 -3.90972e-06
0.0276262 0.00108267 3.80197e-06
0.0272616 0.00142899 2.35183e-05
0.02674 0.00182967 5.25558e-05
0.0260319 0.0022323 7.91639e-05
0.0251481 0.00257196 9.33331e-05
0.0241346 0.00279582 9.15003e-05
0.0230576 0.00287657 7.55278e-05
0.0219874 0.00281444 5.16854e-05
0.0209831 0.00263198 2.81626e-05
0.0200826 0.00236278 1.07385e-05
0.0193048 0.00203837 4.56069e-07
0.0186574 0.00168094 -4.98101e-06
0.0181437 0.00130394 -8.5454e-06
0.0177654 0.000915886 -1.25156e-05
0.0175219 0.000525619 -1.5929e-05
0.0174112 0.00016036 1.05865e-06
0.0174107 -1.05385e-05 1.91439e-05
0.0196 -2.76241e-06 -2.67426e-06
0.0196009 -0.0055884 -0.00273175
0.0190963 -0.0125216 -0.00642808
0.0160988 -0.0153409 -0.00673299
0.0111459 -0.0142338 -0.0067127
0.00194769 -0.00582889 -0.00484295
7.20358e-05 -6.59493e-05 -0.00116433
3.33034e-05 -3.33034e-05 -4.11285e-08
-3.18607e-05 3.34311e-05 0.000193527
0.00443738 0.00333642 0.000401681
0.0102399 0.00772569 0.000330235
0.013104 0.00776256 1.89205e-05
0.016331 0.00543505 -0.000301604
0.0195042 0.00314171 -0.000396522
0.0222547 0.00156623 -0.000345355
0.0244296 0.000679595 -0.000224945
0.0259914 0.000255563 -9.77873e-05
0.0270232 6.9864e-05 -9.22117e-06
0.0276691 -1.07294e-05 3.13552e-05
0.0280623 -4.31746e-05 3.91574e-05
0.028298 -4.97293e-05 3.24164e-05
0.0284373 -4.12817e-05 2.24531e-05
0.0285179 -2.43899e-05 1.39302e-05
0.0285627 -2.65175e-06 7.86636e-06
0.0285856 2.27565e-05 3.89469e-06
0.0285946 5.25087e-05 1.35451e-06
0.028594 8.86785e-05 -3.19177e-07
0.0285858 0.000134536 -1.50483e-06
0.02857 0.000194591 -2.39715e-06
0.028545 0.000274793 -3.03572e-06
0.0285073 0.000382947 -3.19909e-06
0.0284514 0.000529437 -2.03952e-06
0.0283672 0.000726773 1.38009e-06
0.0282369 0.000988195 7.70701e-06
0.0280363 0.00133365 2.43888e-05
0.0277236 0.0017872 6.81886e-05
0.0272192 0.00233532 0.000140972
0.0264642 0.00290232 0.000217954
0.0254708 0.00338615 0.000271416
0.0243077 0.00370504 0.000287209
0.0230726 0.00381925 0.000266235
0.0218629 0.00373152 0.000222308
0.0207517 0.00347795 0.000173571
0.0197777 0.00310982 0.000132207
0.0189523 0.00267304 0.000100693
0.0182758 0.00219782 7.54986e-05
0.0177463 0.00170112 5.23158e-05
0.0173619 0.00119343 2.82872e-05
0.0171193 0.00068575 4.63824e-06
0.0170126 0.000212709 2.14609e-06
0.0170121 -8.15904e-06 1.08224e-05
0.0196 -1.3221e-06 -3.64051e-06
0.0196 -0.00348632 -0.00308693
0.0189255 -0.00749974 -0.00646807
0.0176712 -0.0072853 -0.00619736
0.0135486 -0.00348981 -0.00567417
0.0095356 0.00305168 -0.00504975
0.00629667 0.00327093 -0.00272114
7.2136e-05 -5.97627e-05 -0.000533149
2.79019e-05 -2.79019e-05 -1.31729e-07
-3.10599e-05 3.26615e-05 6.11617e-05
0.00331988 0.00262576 0.00033463
0.00794421 0.00404814 0.000330492
0.0133181 0.001636 -2.72442e-05
0.0179606 -0.000274827 -0.000250762
0.0215741 -0.00122745 -0.000352983
0.0242343 -0.00142596 -0.000326195
0.0260412 -0.00120249 -0.000210721
0.0271573 -0.000870331 -9.23136e-05
0.027797 -0.000588643 -1.9748e-05
0.0281475 -0.00038777 9.27784e-06
0.0283345 -0.000250413 1.46647e-05
0.0284322 -0.000155357 1.16477e-05
0.0284823 -8.73131e-05 7.35974e-06
0.0285073 -3.58132e-05 4.02763e-06
0.0285196 6.81939e-06 1.88763e-06
0.0285257 4.67387e-05 6.36625e-07
0.0285291 8.93814e-05 -3.92924e-08
0.0285313 0.000140126 -3.15953e-07
0.0285329 0.000204943 -1.84781e-07
0.0285335 0.000291052 5.46822e-07
0.0285311 0.000407589 2.3598e-06
0.0285222 0.000566931 6.89741e-06
0.0284991 0.000785581 1.69049e-05
0.0284432 0.00108085 3.33464e-05
0.0283242 0.00147752 6.68468e-05
0.0280927 0.00201914 0.00015638
0.0276268 0.00270795 0.00032362
0.0268131 0.00344279 0.00052079
0.0256681 0.00407159 0.000673444
0.0243007 0.00447786 0.000737242
0.0228625 0.00461213 0.000711596
0.0214896 0.00448504 0.000629022
0.0202662 0.00415194 0.000528449
0.0192239 0.00368553 0.000434188
0.0183603 0.00314669 0.000352191
0.0176645 0.00257179 0.000278147
0.017128 0.00197921 0.000206643
0.0167453 0.00138012 0.000134595
0.0165097 0.000787604 6.3895e-05
0.0164105 0.000243565 1.69797e-05
0.01641 -7.91575e-06 4.37622e-06
0.018 -8.53462e-07 -3.59142e-06
0.018001 -0.00183568 -0.00301413
0.018404 -0.00336538 -0.00612625
0.0186062 -0.00191586 -0.0054364
0.0177773 0.00135001 -0.00443849
0.0176179 0.00747261 -0.00390346
0.0182952 0.0126702 -0.00263464
0.0112879 0.00693287 -0.00121504
7.38006e-05 -4.57247e-05 -0.000365802
-2.40023e-05 -5.33319e-05 5.68426e-07
7.88489e-06 -0.000352767 0.000775813
0.00897138 -0.00234175 0.0012129
0.0167469 -0.00447515 0.000687826
0.0217759 -0.00485148 0.000329258
0.0246902 -0.00438066 -3.62104e-06
0.0263343 -0.00350237 -0.000227464
0.0272422 -0.0024858 -0.000262775
0.0277009 -0.00160293 -0.000185171
0.0278977 -0.00097794 -9.85499e-05
0.0279607 -0.000582734 -4.37413e-05
0.0279661 -0.00034252 -1.72946e-05
0.0279524 -0.000195952 -6.42847e-06
0.0279366 -0.000103806 -2.33785e-06
0.0279251 -4.23156e-05 -7.81049e-07
0.0279196 3.24345e-06 -4.48979e-08
0.0279206 4.25622e-05 5.13032e-07
0.0279283 8.27236e-05 1.16734e-06
0.027943 0.00012978 2.13194e-06
0.0279657 0.000189924 3.73927e-06
0.0279972 0.000270522 6.57317e-06
0.0280383 0.000380998 1.15879e-05
0.028088 0.000534104 2.1351e-05
0.0281434 0.000748591 4.15547e-05
0.028189 0.00104703 7.57612e-05
0.0281881 0.001457 0.000138103
0.0280862 0.00203509 0.000303323
0.027717 0.0028007 0.000637548
0.0268704 0.00363006 0.00105081
0.0255726 0.00432784 0.0013748
0.0239876 0.00475752 0.00151409
0.0223458 0.0048705 0.00147299
0.0208261 0.0046917 0.00132176
0.0195138 0.00429621 0.00113368
0.0184234 0.00377306 0.000950297
0.0175349 0.00319065 0.000781968
0.0168267 0.00258449 0.000623586
0.0162854 0.00196978 0.000468801
0.0159029 0.00135617 0.000314781
0.0156708 0.000758322 0.000165058
0.0155755 0.000223325 4.59443e-05
0.015575 -1.91795e-05 -3.90336e-07
0.0148 -4.84829e-07 -3.16014e-06
0.0148015 -0.000902746 -0.00278702
0.0163441 -0.00123606 -0.00542556
0.0181651 0.00059055 -0.00449057
0.0198364 0.0037687 -0.00336967
0.0218238 0.00759756 -0.00296037
0.0255834 0.0128707 -0.00227468
0.0287939 0.0196594 -0.00130328
0.0235658 0.011542 -0.000215218
0.0239731 2.09652e-10 0.000656559
0.027251 -0.00674576 0.00155093
0.0312828 -0.0133393 0.00212809
0.0325248 -0.011508 0.00183454
0.0318663 -0.00827555 0.00142003
0.0303813 -0.00560709 0.00072592
0.028823 -0.00368956 4.71966e-05
0.0275848 -0.00231247 -0.000285143
0.0267396 -0.00136357 -0.000299521
0.0262044 -0.00076839 -0.000197689
0.0258769 -0.000423843 -0.0001053
0.0256802 -0.0002313 -4.9979e-05
0.0255646 -0.000123019 -2.21426e-05
0.0254991 -5.95256e-05 -9.2057e-06
0.0254653 -1.90103e-05 -3.29987e-06
0.0254527 1.07487e-05 -4.33195e-07
0.0254558 3.71069e-05 1.27681e-06
0.0254726 6.5167e-05 2.75328e-06
0.0255031 9.9294e-05 4.57716e-06
0.0255494 0.000144128 7.35439e-06
0.0256148 0.000205492 1.20302e-05
0.0257036 0.000291363 2.01877e-05
0.0258201 0.000412684 3.52812e-05
0.0259677 0.000585973 6.55116e-05
0.0261394 0.000836228 0.00011988
0.0263031 0.00119184 0.000219533
0.0264105 0.00169662 0.000476865
0.0262728 0.0023582 0.00100189
0.0255287 0.00304039 0.00161865
0.024244 0.00358115 0.00206206
0.022603 0.00389105 0.00222766
0.0209183 0.00393135 0.00213894
0.0193782 0.00373463 0.00191165
0.0180615 0.00337416 0.00164558
0.0169708 0.00292922 0.00139064
0.0160787 0.00245303 0.00115388
0.015363 0.00196737 0.000925205
0.0148113 0.00147967 0.000696963
0.0144158 0.000996496 0.000467823
0.0141694 0.000532118 0.000244876
0.0140624 0.000130427 5.99433e-05
0.014062 -4.63203e-05 -1.66589e-05
0.01 -9.34743e-07 -2.83548e-06
0.0100008 -0.000559873 -0.00228683
0.0114851 -0.000495258 -0.0042016
0.0137107 0.000854909 -0.00313721
0.0165971 0.00278932 -0.00210569
0.020833 0.00571052 -0.0019865
0.0267348 0.00833213 -0.00233088
0.0356632 0.0101648 -0.00198287
0.0474604 0.00496785 -0.00041771
0.0471844 -0.00411659 0.00107666
0.0466814 -0.00861862 0.00165534
0.0393408 -0.00896644 0.00175615
0.0321939 -0.00622443 0.00158819
0.0268364 -0.00349026 0.0012647
0.0232274 -0.00159417 0.000705446
0.0209528 -0.00054507 0.000134658