# vtk DataFile Version 2.0
Tobias Weinzierl: CPU, Manycore and Cluster Computing
ASCII

DATASET STRUCTURED_POINTS
DIMENSIONS  51 11 6

ORIGIN 0 0 0 

SPACING 0.1 0.1 0.1 

POINT_DATA 3366

VECTORS velocity float
0 0 0
1.6678e-09 0 0
5.13642e-09 0 0
1.04976e-08 0 0
1.49725e-08 0 0
1.09901e-08 0 0
4.81657e-09 0 0
1.50732e-09 0 0
3.79305e-10 0 0
8.19999e-11 0 0
1.58211e-11 0 0
2.79e-12 0 0
4.56882e-13 0 0
7.02381e-14 0 0
1.0214e-14 0 0
1.41232e-15 0 0
1.86354e-16 0 0
2.35217e-17 0 0
2.84485e-18 0 0
3.30105e-19 0 0
3.67861e-20 0 0
3.9403e-21 0 0
4.06021e-22 0 0
4.02805e-23 0 0
3.85058e-24 0 0
3.54981e-25 0 0
3.15863e-26 0 0
2.71506e-27 0 0
2.25638e-28 0 0
1.81454e-29 0 0
1.41318e-30 0 0
1.06675e-31 0 0
7.81084e-33 0 0
5.55188e-34 0 0
3.83362e-35 0 0
2.57346e-36 0 0
1.6806e-37 0 0
1.06841e-38 0 0
6.61632e-40 0 0
3.99363e-41 0 0
2.35097e-42 0 0
1.35052e-43 0 0
7.5748e-45 0 0
4.15031e-46 0 0
2.22254e-47 0 0
1.16384e-48 0 0
5.9622e-50 0 0
2.98945e-51 0 0
1.46784e-52 0 0
7.39114e-54 0 0
3.97329e-51 0 0
0 -1.59398e-134 0
4.01059e-09 -6.33679e-133 0
1.48486e-08 -3.18575e-131 0
3.40303e-08 -1.55247e-129 0
5.96006e-08 -6.8735e-128 0
4.65437e-08 -2.52382e-126 0
2.02449e-08 -5.53733e-125 0
6.13491e-09 -5.2078e-125 0
1.49661e-09 -1.76504e-123 0
3.15572e-10 -6.07193e-122 0
5.97158e-11 -2.04932e-120 0
1.03722e-11 -6.80729e-119 0
1.67843e-12 -2.22582e-117 0
2.55631e-13 -7.16178e-116 0
3.69039e-14 -2.26672e-114 0
5.07433e-15 -7.05404e-113 0
6.66722e-16 -2.1575e-111 0
8.38905e-17 -6.48228e-110 0
1.01233e-17 -1.91229e-108 0
1.17282e-18 -5.5359e-107 0
1.3056e-19 -1.57175e-105 0
1.39758e-20 -4.37383e-104 0
1.43962e-21 -1.19216e-102 0
1.42804e-22 -3.18039e-101 0
1.36518e-23 -8.29763e-100 0
1.25875e-24 -2.11533e-98 0
1.12031e-25 -5.26428e-97 0
9.63272e-27 -1.27757e-95 0
8.00811e-28 -3.02004e-94 0
6.4423e-29 -6.94499e-93 0
5.01923e-30 -1.55146e-91 0
3.79024e-31 -3.36149e-90 0
2.77632e-32 -7.05123e-89 0
1.97414e-33 -1.42909e-87 0
1.36367e-34 -2.79196e-86 0
9.15754e-36 -5.24398e-85 0
5.98248e-37 -9.44006e-84 0
3.80458e-38 -1.62288e-82 0
2.35685e-39 -2.65303e-81 0
1.42307e-40 -4.10329e-80 0
8.37997e-42 -5.96722e-79 0
4.81539e-43 -8.09759e-78 0
2.70165e-44 -1.01563e-76 0
1.48068e-45 -1.16301e-75 0
7.93144e-47 -1.19641e-74 0
4.1544e-48 -1.08152e-73 0
2.1288e-49 -8.32499e-73 0
1.06765e-50 -5.2029e-72 0
5.24346e-52 -2.44167e-71 0
2.64093e-53 -7.44962e-71 0
1.41906e-50 -4.8632e-68 0
0 -8.65e-134 0
2.68785e-09 -3.406e-132 0
1.80758e-08 -2.10173e-130 0
3.98995e-08 -1.36047e-128 0
1.04272e-07 -8.55484e-127 0
8.4147e-08 -5.16163e-125 0
3.58402e-08 -2.17211e-123 0
1.03829e-08 -3.46398e-124 0
2.45423e-09 -1.19088e-122 0
5.06178e-10 -4.20516e-121 0
9.43012e-11 -1.43557e-119 0
1.61987e-11 -4.81544e-118 0
2.60075e-12 -1.5902e-116 0
3.93965e-13 -5.16919e-115 0
5.6674e-14 -1.65344e-113 0
7.77677e-15 -5.20203e-112 0
1.02087e-15 -1.60914e-110 0
1.28446e-16 -4.89162e-109 0
1.55094e-17 -1.46063e-107 0
1.79873e-18 -4.28185e-106 0
2.00512e-19 -1.23164e-104 0
2.14975e-20 -3.47403e-103 0
2.21813e-21 -9.60292e-102 0
2.20411e-22 -2.59948e-100 0
2.11075e-23 -6.88575e-99 0
1.94952e-24 -1.78335e-97 0
1.73801e-25 -4.51177e-96 0
1.4968e-26 -1.1139e-94 0
1.24629e-27 -2.68074e-93 0
1.00409e-28 -6.28117e-92 0
7.83402e-30 -1.4309e-90 0
5.9238e-31 -3.16445e-89 0
4.34471e-32 -6.78199e-88 0
3.09314e-33 -1.40584e-86 0
2.13913e-34 -2.81233e-85 0
1.43808e-35 -5.41542e-84 0
9.40465e-37 -1.00078e-82 0
5.9869e-38 -1.76875e-81 0
3.71228e-39 -2.97727e-80 0
2.24351e-40 -4.74944e-79 0
1.32227e-41 -7.13707e-78 0
7.60446e-43 -1.00281e-76 0
4.2698e-44 -1.30516e-75 0
2.3419e-45 -1.5546e-74 0
1.25537e-46 -1.66778e-73 0
6.58003e-48 -1.57654e-72 0
3.37397e-49 -1.27251e-71 0
1.6932e-50 -8.35962e-71 0
8.32076e-52 -4.12778e-70 0
4.19339e-53 -1.31883e-69 0
2.24872e-50 -8.88049e-67 0
0 -6.45313e-135 0
-3.53165e-09 -2.56653e-133 0
1.6929e-08 -1.22969e-131 0
1.90798e-08 -5.68685e-130 0
1.1054e-07 -1.89442e-128 0
4.85934e-08 -1.83876e-128 0
2.04118e-08 0 0
5.75534e-09 8.58032e-122 0
1.56846e-09 -6.25959e-122 0
3.52672e-10 -2.51024e-120 0
6.97137e-11 -8.77338e-119 0
1.2511e-11 -2.97665e-117 0
2.07826e-12 -9.93292e-116 0
3.23592e-13 -3.26385e-114 0
4.7625e-14 -1.05568e-112 0
6.66259e-15 -3.35987e-111 0
8.89257e-16 -1.05177e-109 0
1.13513e-16 -3.23699e-108 0
1.38805e-17 -9.79001e-107 0
1.62787e-18 -2.90825e-105 0
1.83268e-19 -8.48116e-104 0
1.98227e-20 -2.42665e-102 0
2.06155e-21 -6.80798e-101 0
2.06314e-22 -1.87154e-99 0
1.9885e-23 -5.0377e-98 0
1.84737e-24 -1.3267e-96 0
1.65573e-25 -3.41545e-95 0
1.4329e-26 -8.58694e-94 0
1.19843e-27 -2.10614e-92 0
9.69528e-29 -5.03371e-91 0
7.59324e-30 -1.17077e-89 0
5.76206e-31 -2.64609e-88 0
4.24e-32 -5.8019e-87 0
3.02785e-33 -1.23184e-85 0
2.09997e-34 -2.52711e-84 0
1.41555e-35 -4.99704e-83 0
9.28063e-37 -9.49664e-82 0
5.92194e-38 -1.72876e-80 0
3.6802e-39 -3.00241e-79 0
2.22881e-40 -4.95099e-78 0
1.31622e-41 -7.70652e-77 0
7.58393e-43 -1.12414e-75 0
4.26589e-44 -1.52266e-74 0
2.34373e-45 -1.89264e-73 0
1.25837e-46 -2.12507e-72 0
6.60591e-48 -2.1091e-71 0
3.3922e-49 -1.79321e-70 0
1.70473e-50 -1.24465e-69 0
8.3886e-52 -6.5038e-69 0
4.23321e-53 -2.18917e-68 0
2.25766e-50 -1.52279e-65 0
0 -3.13922e-136 0
-1.12306e-08 -1.26109e-134 0
1.4987e-08 -4.93278e-133 0
1.51201e-09 -1.80785e-131 0
8.21654e-08 -4.21333e-130 0
0 -4.03735e-130 0
0 0 0
0 0 0
2.31534e-10 -3.60129e-120 0
9.19012e-11 -1.17975e-119 0
2.36435e-11 -4.62394e-118 0
4.9864e-12 -1.60072e-116 0
9.26768e-13 -5.39899e-115 0
1.56953e-13 -1.79375e-113 0
2.46706e-14 -5.8685e-112 0
3.6393e-15 -1.88995e-110 0
5.07385e-16 -5.98918e-109 0
6.71664e-17 -1.8668e-107 0
8.46924e-18 -5.72074e-106 0
1.01957e-18 -1.72277e-104 0
1.17396e-19 -5.09575e-103 0
1.29479e-20 -1.47964e-101 0
1.36971e-21 -4.21521e-100 0
1.39148e-22 -1.1774e-98 0
1.35909e-23 -3.22231e-97 0
1.2777e-24 -8.63432e-96 0
1.15742e-25 -2.26333e-94 0
1.01133e-26 -5.79875e-93 0
8.53254e-28 -1.45062e-91 0
6.95792e-29 -3.53936e-90 0
5.48921e-30 -8.41221e-89 0
4.19342e-31 -1.94494e-87 0
3.10485e-32 -4.36753e-86 0
2.22994e-33 -9.50872e-85 0
1.55483e-34 -2.003e-83 0
1.05328e-35 -4.07275e-82 0
6.93748e-37 -7.97177e-81 0
4.44598e-38 -1.4972e-79 0
2.7742e-39 -2.68783e-78 0
1.68654e-40 -4.59103e-77 0
9.99573e-42 -7.41918e-76 0
5.779e-43 -1.1264e-74 0
3.26108e-44 -1.59243e-73 0
1.79712e-45 -2.07225e-72 0
9.67679e-47 -2.44421e-71 0
5.09381e-48 -2.55774e-70 0
2.62253e-49 -2.30187e-69 0
1.32121e-50 -1.6976e-68 0
6.51673e-52 -9.44853e-68 0
3.29633e-53 -3.37413e-67 0
1.74028e-50 -2.42817e-64 0
0 -6.5284e-137 0
-1.31455e-08 -2.62711e-135 0
8.30951e-09 -8.41702e-134 0
5.48477e-09 -2.49347e-132 0
4.97778e-08 -5.20747e-131 0
3.80791e-08 -4.96628e-131 0
0 0 0
0 0 0
0 0 0
1.18346e-11 1.35211e-118 0
4.91255e-12 -1.9066e-117 0
1.33129e-12 -7.29888e-116 0
2.93923e-13 -2.48905e-114 0
5.66456e-14 -8.36328e-113 0
9.85111e-15 -2.76827e-111 0
1.57584e-15 -9.0236e-110 0
2.34701e-16 -2.89558e-108 0
3.28115e-17 -9.14342e-107 0
4.33035e-18 -2.84001e-105 0
5.41782e-19 -8.67322e-104 0
6.44653e-20 -2.60306e-102 0
7.31396e-21 -7.67382e-101 0
7.92951e-22 -2.22088e-99 0
8.23051e-23 -6.30617e-98 0
8.19271e-24 -1.75572e-96 0
7.83277e-25 -4.78949e-95 0
7.20291e-26 -1.27918e-93 0
6.37941e-27 -3.34206e-92 0
5.44844e-28 -8.53358e-91 0
4.49253e-29 -2.12731e-89 0
3.58027e-30 -5.17142e-88 0
2.76058e-31 -1.22434e-86 0
2.06145e-32 -2.8188e-85 0
1.49225e-33 -6.30043e-84 0
1.04807e-34 -1.36454e-82 0
7.14803e-36 -2.85721e-81 0
4.7378e-37 -5.76922e-80 0
3.05416e-38 -1.1199e-78 0
1.91623e-39 -2.08232e-77 0
1.17096e-40 -3.69241e-76 0
6.97364e-42 -6.21041e-75 0
4.05019e-43 -9.84137e-74 0
2.29534e-44 -1.45678e-72 0
1.27006e-45 -1.99195e-71 0
6.86507e-47 -2.47848e-70 0
3.62689e-48 -2.7479e-69 0
1.87375e-49 -2.63252e-68 0
9.47074e-51 -2.07655e-67 0
4.68595e-52 -1.24068e-66 0
2.37763e-53 -4.74132e-66 0
1.24078e-50 -3.53571e-63 0
0 -1.38503e-135 0
-8.99779e-09 -5.51097e-134 0
3.55576e-09 -1.93021e-132 0
1.82195e-08 -6.45491e-131 0
3.64254e-08 -1.86551e-129 0
1.27833e-07 -3.83372e-128 0
7.81652e-08 -3.65344e-128 0
0 0 0
0 0 0
0 0 0
5.76208e-13 -7.37085e-117 0
5.07011e-13 -2.71869e-115 0
1.62589e-13 -9.37968e-114 0
3.73114e-14 -3.1878e-112 0
7.1239e-15 -1.06773e-110 0
1.20273e-15 -3.52343e-109 0
1.85148e-16 -1.14513e-107 0
2.64437e-17 -3.66415e-106 0
3.54158e-18 -1.15387e-104 0
4.47867e-19 -3.5746e-103 0
5.37337e-20 -1.08892e-101 0
6.13763e-21 -3.26031e-100 0
6.69235e-22 -9.58946e-99 0
6.98127e-23 -2.76926e-97 0
6.98041e-24 -7.84711e-96 0
6.70096e-25 -2.18046e-94 0
6.18518e-26 -5.93702e-93 0
5.49698e-27 -1.58282e-91 0
4.70985e-28 -4.12819e-90 0
3.89513e-29 -1.05229e-88 0
3.11285e-30 -2.61873e-87 0
2.40644e-31 -6.35479e-86 0
1.80141e-32 -1.50166e-84 0
1.30701e-33 -3.45003e-83 0
9.19953e-35 -7.6927e-82 0
6.28702e-36 -1.66127e-80 0
4.17512e-37 -3.46618e-79 0
2.69632e-38 -6.96737e-78 0
1.69461e-39 -1.34464e-76 0
1.03722e-40 -2.48121e-75 0
6.18666e-42 -4.35534e-74 0
3.59837e-43 -7.2261e-73 0
2.04211e-44 -1.12398e-71 0
1.13144e-45 -1.62156e-70 0
6.12344e-47 -2.13856e-69 0
3.23895e-48 -2.52619e-68 0
1.67524e-49 -2.59332e-67 0
8.47662e-51 -2.20535e-66 0
4.19845e-52 -1.42789e-65 0
2.13249e-53 -5.90329e-65 0
1.11373e-50 -4.5699e-62 0
0 -3.13102e-134 0
-4.1422e-09 -1.23445e-132 0
5.93551e-09 -4.68539e-131 0
2.38e-08 -1.70377e-129 0
5.03785e-08 -5.65064e-128 0
1.95894e-07 -1.56985e-126 0
1.90422e-07 -2.94657e-125 0
3.31759e-08 -2.79507e-125 0
0 0 0
0 0 0
0 -2.15249e-116 0
2.19637e-12 -7.82592e-115 0
5.89768e-13 -2.72795e-113 0
1.13731e-13 -9.37782e-112 0
1.87806e-14 -3.17852e-110 0
2.81185e-15 -1.06189e-108 0
3.91744e-16 -3.49565e-107 0
5.14829e-17 -1.13352e-105 0
6.43161e-18 -3.6194e-104 0
7.67264e-19 -1.13758e-102 0
8.76503e-20 -3.51796e-101 0
9.60604e-21 -1.06999e-99 0
1.01134e-21 -3.19925e-98 0
1.02394e-22 -9.39884e-97 0
9.9792e-24 -2.71159e-95 0
9.37027e-25 -7.67784e-94 0
8.48459e-26 -2.13225e-92 0
7.4151e-27 -5.80374e-91 0
6.26028e-28 -1.54707e-89 0
5.11023e-29 -4.03513e-88 0
4.03676e-30 -1.02879e-86 0
3.08845e-31 -2.56119e-85 0
2.29045e-32 -6.21806e-84 0
1.64787e-33 -1.47011e-82 0
1.15103e-34 -3.37918e-81 0
7.81158e-36 -7.53733e-80 0
5.15459e-37 -1.62779e-78 0
3.30945e-38 -3.39476e-77 0
2.06879e-39 -6.81515e-76 0
1.25995e-40 -1.31198e-74 0
7.48067e-42 -2.41045e-73 0
4.33244e-43 -4.20139e-72 0
2.44894e-44 -6.89404e-71 0
1.3518e-45 -1.05423e-69 0
7.2907e-47 -1.48173e-68 0
3.84383e-48 -1.87698e-67 0
1.98202e-49 -2.08098e-66 0
1.00001e-50 -1.92612e-65 0
4.93963e-52 -1.3674e-64 0
2.50227e-53 -6.2019e-64 0
1.32716e-50 -4.99368e-61 0
0 -5.49415e-133 0
-1.34778e-10 -2.14722e-131 0
9.15761e-09 -8.68124e-130 0
2.68985e-08 -3.35433e-128 0
7.63851e-08 -1.22464e-126 0
1.87758e-07 -4.06566e-125 0
1.7956e-07 -1.14581e-123 0
5.81207e-08 -2.32159e-122 0
4.22854e-09 -2.21096e-122 0
6.35727e-10 0 0
1.00156e-10 -4.27228e-116 0
1.66736e-11 -1.56854e-114 0
2.54762e-12 -5.52631e-113 0
3.64454e-13 -1.92098e-111 0
4.94425e-14 -6.58664e-110 0
6.41434e-15 -2.2271e-108 0
8.00066e-16 -7.4239e-107 0
9.62525e-17 -2.43899e-105 0
1.11877e-17 -7.89471e-104 0
1.25725e-18 -2.51689e-102 0
1.36619e-19 -7.90024e-101 0
1.43537e-20 -2.44059e-99 0
1.45785e-21 -7.41731e-98 0
1.43125e-22 -2.21667e-96 0
1.35827e-23 -6.51102e-95 0
1.24624e-24 -1.8787e-93 0
1.10584e-25 -5.32204e-92 0
9.49373e-27 -1.47921e-90 0
7.8895e-28 -4.03099e-89 0
6.35003e-29 -1.07617e-87 0
4.95315e-30 -2.81229e-86 0
3.74666e-31 -7.18656e-85 0
2.75009e-32 -1.79383e-83 0
1.9601e-33 -4.36805e-82 0
1.35745e-34 -1.03611e-80 0
9.14049e-36 -2.38998e-79 0
5.98812e-37 -5.35041e-78 0
3.8191e-38 -1.15972e-76 0
2.37271e-39 -2.42692e-75 0
1.43681e-40 -4.88628e-74 0
8.4854e-42 -9.42421e-73 0
4.88998e-43 -1.73173e-71 0
2.75129e-44 -3.01033e-70 0
1.51211e-45 -4.90408e-69 0
8.12202e-47 -7.39095e-68 0
4.2657e-48 -1.01156e-66 0
2.1916e-49 -1.22249e-65 0
1.10198e-50 -1.24597e-64 0
5.42575e-52 -9.84338e-64 0
2.73977e-53 -4.98936e-63 0
1.47413e-50 -4.1875e-60 0
0 -5.59508e-132 0
1.65967e-09 -2.16882e-130 0
8.19876e-09 -9.07442e-129 0
2.38685e-08 -3.66758e-127 0
6.4183e-08 -1.46614e-125 0
1.08672e-07 -5.79688e-124 0
8.63113e-08 -2.26697e-122 0
3.22242e-08 -8.76903e-121 0
5.9059e-09 -3.35516e-119 0
9.42922e-10 -1.26969e-117 0
1.50429e-10 -4.74845e-116 0
2.23044e-11 -1.71195e-114 0
3.11787e-12 -6.0893e-113 0
4.15147e-13 -2.13788e-111 0
5.305e-14 -7.40703e-110 0
6.54067e-15 -2.53189e-108 0
7.8078e-16 -8.53651e-107 0
9.04199e-17 -2.83814e-105 0
1.01669e-17 -9.3022e-104 0
1.10997e-18 -3.00474e-102 0
1.17614e-19 -9.56222e-101 0
1.20882e-20 -2.99707e-99 0
1.20438e-21 -9.24832e-98 0
1.16266e-22 -2.80858e-96 0
1.08716e-23 -8.39048e-95 0
9.84533e-25 -2.46469e-93 0
8.63546e-26 -7.11537e-92 0
7.33743e-27 -2.01768e-90 0
6.04147e-28 -5.61649e-89 0
4.82237e-29 -1.53371e-87 0
3.73343e-30 -4.10546e-86 0
2.80488e-31 -1.07635e-84 0
2.0461e-32 -2.76125e-83 0
1.4501e-33 -6.92376e-82 0
9.99051e-35 -1.69479e-80 0
6.69507e-36 -4.04384e-79 0
4.36676e-37 -9.38915e-78 0
2.77366e-38 -2.117e-76 0
1.71667e-39 -4.62381e-75 0
1.03587e-40 -9.75317e-74 0
6.09745e-42 -1.9793e-72 0
3.50302e-43 -3.84592e-71 0
1.96524e-44 -7.11019e-70 0
1.07717e-45 -1.24019e-68 0
5.77105e-47 -2.01712e-67 0
3.02367e-48 -3.00762e-66 0
1.54996e-49 -4.00489e-65 0
7.77674e-51 -4.55881e-64 0
3.82119e-52 -4.08461e-63 0
1.92565e-53 -2.3731e-62 0
1.04469e-50 -2.08083e-59 0
0 0 0
8.58507e-10 0 0
3.30878e-09 0 0
9.2363e-09 0 0
2.02601e-08 0 0
2.70536e-08 0 0
1.90073e-08 0 0
7.27941e-09 0 0
1.67737e-09 0 0
3.07195e-10 0 0
5.02732e-11 0 0
7.55952e-12 0 0
1.06363e-12 0 0
1.41825e-13 0 0
1.80855e-14 0 0
2.21982e-15 0 0
2.63379e-16 0 0
3.02867e-17 0 0
3.37987e-18 0 0
3.66184e-19 0 0
3.85109e-20 0 0
3.92975e-21 0 0
3.8889e-22 0 0
3.73063e-23 0 0
3.46818e-24 0 0
3.1241e-25 0 0
2.72685e-26 0 0
2.30664e-27 0 0
1.89149e-28 0 0
1.50417e-29 0 0
1.16052e-30 0 0
8.69136e-32 0 0
6.32175e-33 0 0
4.46831e-34 0 0
3.07083e-35 0 0
2.05316e-36 0 0
1.33628e-37 0 0
8.47084e-39 0 0
5.23304e-40 0 0
3.15223e-41 0 0
1.85247e-42 0 0
1.06263e-43 0 0
5.95291e-45 0 0
3.25843e-46 0 0
1.74351e-47 0 0
9.1239e-49 0 0
4.67163e-50 0 0
2.3414e-51 0 0
1.14929e-52 0 0
5.78586e-54 0 0
3.15148e-51 0 0
0 0 -2.40632e-135
4.32791e-09 0 -9.50196e-134
1.54276e-08 0 -4.78104e-132
3.47915e-08 0 -2.28623e-130
5.66592e-08 0 -9.73834e-129
4.50657e-08 0 -3.29541e-127
2.00725e-08 0 -6.24035e-126
6.20403e-09 0 -2.87109e-125
1.53406e-09 0 -9.9037e-124
3.26487e-10 0 -3.39096e-122
6.21832e-11 0 -1.14181e-120
1.08496e-11 0 -3.78498e-119
1.76101e-12 0 -1.23502e-117
2.68722e-13 0 -3.96532e-116
3.88345e-14 0 -1.2523e-114
5.34184e-15 0 -3.88846e-113
7.01793e-16 0 -1.18658e-111
8.82621e-17 0 -3.55679e-110
1.06433e-17 0 -1.04675e-108
1.23199e-18 0 -3.02282e-107
1.37014e-19 0 -8.56081e-106
1.46519e-20 0 -2.37617e-104
1.50773e-21 0 -6.45956e-103
1.4941e-22 0 -1.7186e-101
1.42693e-23 0 -4.4714e-100
1.31443e-24 0 -1.13667e-98
1.16881e-25 0 -2.82051e-97
1.00411e-26 0 -6.82455e-96
8.34076e-28 0 -1.60831e-94
6.70471e-29 0 -3.68689e-93
5.21984e-30 0 -8.20969e-92
3.939e-31 0 -1.77287e-90
2.88339e-32 0 -3.7062e-89
2.049e-33 0 -7.4852e-88
1.41455e-34 0 -1.45711e-86
9.49391e-36 0 -2.72672e-85
6.19896e-37 0 -4.88998e-84
3.94027e-38 0 -8.37385e-83
2.43975e-39 0 -1.36346e-81
1.47246e-40 0 -2.10013e-80
8.66708e-42 0 -3.04125e-79
4.97833e-43 0 -4.10914e-78
2.79197e-44 0 -5.13093e-77
1.52962e-45 0 -5.84875e-76
8.19065e-47 0 -5.98867e-75
4.28872e-48 0 -5.3879e-74
2.19691e-49 0 -4.12736e-73
1.10146e-50 0 -2.56708e-72
5.40792e-52 0 -1.1991e-71
2.72295e-53 0 -3.64392e-71
1.46533e-50 0 -2.37218e-68
0.0036 -1.63456e-134 -3.27803e-135
0.00498251 -1.79804e-130 -5.4787e-131
0.00498959 -1.02826e-128 -4.8531e-129
0.00437683 -6.80552e-127 -4.2757e-127
0.00331454 -4.56388e-125 -3.37149e-125
0.0015084 -3.17473e-123 -2.1957e-123
0.000457715 -7.90127e-122 -6.36747e-122
0.000107477 -7.07261e-122 -7.03571e-122
2.16632e-05 -2.43079e-120 -2.43096e-120
3.93373e-06 -8.50713e-119 -8.50707e-119
6.59082e-07 -2.91959e-117 -2.91957e-117
1.03333e-07 -9.86339e-116 -9.86337e-116
1.53009e-08 -3.28109e-114 -3.28109e-114
2.15332e-09 -1.07443e-112 -1.07443e-112
2.89249e-10 -3.46209e-111 -3.46209e-111
3.7193e-11 -1.09731e-109 -1.09731e-109
4.58684e-12 -3.41953e-108 -3.41953e-108
5.4325e-13 -1.04725e-106 -1.04725e-106
6.1849e-14 -3.15044e-105 -3.15044e-105
6.77393e-15 -9.30468e-104 -9.30468e-104
7.14193e-16 -2.6965e-102 -2.6965e-102
7.25341e-17 -7.66312e-101 -7.66312e-101
7.10087e-18 -2.1342e-99 -2.1342e-99
6.70543e-19 -5.82079e-98 -5.82079e-98
6.11226e-20 -1.55351e-96 -1.55351e-96
5.38226e-21 -4.05388e-95 -4.05388e-95
4.5819e-22 -1.03336e-93 -1.03336e-93
3.77383e-23 -2.57055e-92 -2.57055e-92
3.00961e-24 -6.23313e-91 -6.23313e-91
2.32576e-25 -1.47151e-89 -1.47151e-89
1.7429e-26 -3.37753e-88 -3.37753e-88
1.26753e-27 -7.52574e-87 -7.52574e-87
8.95226e-29 -1.62504e-85 -1.62504e-85
6.14476e-30 -3.39383e-84 -3.39383e-84
4.10176e-31 -6.84001e-83 -6.84001e-83
2.6645e-32 -1.32692e-81 -1.32692e-81
1.68547e-33 -2.47036e-80 -2.47036e-80
1.03884e-34 -4.39824e-79 -4.39824e-79
6.24251e-36 -7.45767e-78 -7.45767e-78
3.65933e-37 -1.19833e-76 -1.19833e-76
2.0937e-38 -1.81373e-75 -1.81373e-75
1.16984e-39 -2.56661e-74 -2.56661e-74
6.38652e-41 -3.36403e-73 -3.36403e-73
3.40829e-42 -4.03483e-72 -4.03483e-72
1.7789e-43 -4.35819e-71 -4.35819e-71
9.08457e-45 -4.14734e-70 -4.14734e-70
4.54139e-46 -3.36933e-69 -3.36933e-69
2.22325e-47 -2.22726e-68 -2.22726e-68
1.0664e-48 -1.10614e-67 -1.10614e-67
5.24325e-50 -3.55109e-67 -3.55109e-67
5.23352e-50 -5.26964e-67 -5.26964e-67
0.01 -8.52643e-134 -1.03477e-135
0.0111695 -9.39658e-130 -2.45588e-131
0.0109184 -5.17931e-128 -3.79334e-129
0.00977969 -3.91989e-126 -4.46757e-127
0.00847962 -2.3966e-124 -8.02686e-125
0.00346442 -6.75215e-122 -3.85884e-122
0.000945069 -3.15804e-120 -2.52818e-120
0.000201179 -4.84649e-121 -4.89917e-121
3.79279e-05 -1.66611e-119 -1.66874e-119
6.58608e-06 -5.98486e-118 -5.98606e-118
1.0705e-06 -2.07811e-116 -2.07812e-116
1.64368e-07 -7.09192e-115 -7.09189e-115
2.399e-08 -2.38346e-113 -2.38346e-113
3.34305e-09 -7.888e-112 -7.888e-112
4.46141e-10 -2.56971e-110 -2.56971e-110
5.71326e-11 -8.23752e-109 -8.23752e-109
7.02966e-12 -2.59732e-107 -2.59732e-107
8.31729e-13 -8.05163e-106 -8.05163e-106
9.46845e-14 -2.45284e-104 -2.45284e-104
1.03761e-14 -7.33953e-103 -7.33953e-103
1.09508e-15 -2.156e-101 -2.156e-101
1.11363e-16 -6.21385e-100 -6.21385e-100
1.09182e-17 -1.75605e-98 -1.75605e-98
1.03265e-18 -4.86277e-97 -4.86277e-97
9.42839e-20 -1.31852e-95 -1.31852e-95
8.31591e-21 -3.49784e-94 -3.49784e-94
7.09077e-22 -9.07076e-93 -9.07076e-93
5.84946e-23 -2.29722e-91 -2.29722e-91
4.67206e-24 -5.6757e-90 -5.6757e-90
3.61579e-25 -1.36641e-88 -1.36641e-88
2.71348e-26 -3.20128e-87 -3.20128e-87
1.97607e-27 -7.28798e-86 -7.28798e-86
1.39747e-28 -1.60958e-84 -1.60958e-84
9.60402e-30 -3.44214e-83 -3.44214e-83
6.4185e-31 -7.11245e-82 -7.11245e-82
4.17417e-32 -1.41648e-80 -1.41648e-80
2.64328e-33 -2.71116e-79 -2.71116e-79
1.63087e-34 -4.97037e-78 -4.97037e-78
9.80972e-36 -8.69301e-77 -8.69301e-77
5.75582e-37 -1.44349e-75 -1.44349e-75
3.29617e-38 -2.26241e-74 -2.26241e-74
1.8433e-39 -3.32271e-73 -3.32271e-73
1.00714e-40 -4.53103e-72 -4.53103e-72
5.37901e-42 -5.66942e-71 -5.66942e-71
2.80959e-43 -6.40727e-70 -6.40727e-70
1.43586e-44 -6.39977e-69 -6.39977e-69
7.18284e-46 -5.47504e-68 -5.47504e-68
3.51871e-47 -3.82283e-67 -3.82283e-67
1.68886e-48 -2.00866e-66 -2.00866e-66
8.30905e-50 -6.7924e-66 -6.7924e-66
8.2936e-50 -1.02231e-65 -1.02231e-65
0.0148 -5.68524e-135 -1.67812e-134
0.0166144 -8.27922e-131 2.56245e-130
0.0167403 -2.52454e-129 -9.69601e-129
0.0148882 -1.74102e-127 2.52409e-127
0.0154233 -4.62337e-126 -7.15797e-125
0.00226644 -4.45171e-126 -3.65018e-122
0.00058675 0 -2.46614e-120
0.000118534 1.26915e-118 9.84497e-119
2.47121e-05 -8.90472e-119 -9.10997e-119
4.59984e-06 -3.63178e-117 -3.64208e-117
7.87171e-07 -1.29136e-115 -1.29171e-115
1.25794e-07 -4.45901e-114 -4.459e-114
1.89597e-08 -1.51487e-112 -1.51487e-112
2.71316e-09 -5.06971e-111 -5.06971e-111
3.70278e-10 -1.67077e-109 -1.67077e-109
4.83362e-11 -5.4202e-108 -5.4202e-108
6.0471e-12 -1.73027e-106 -1.73027e-106
7.2597e-13 -5.43296e-105 -5.43296e-105
8.37128e-14 -1.67722e-103 -1.67722e-103
9.27883e-15 -5.08826e-102 -5.08826e-102
9.89284e-16 -1.5162e-100 -1.5162e-100
1.01524e-16 -4.43526e-99 -4.43526e-99
1.00357e-17 -1.27292e-97 -1.27292e-97
9.56253e-19 -3.58198e-96 -3.58198e-96
8.7899e-20 -9.87618e-95 -9.87618e-95
7.80056e-21 -2.66607e-93 -2.66607e-93
6.68885e-22 -7.04065e-92 -7.04065e-92
5.54648e-23 -1.81727e-90 -1.81727e-90
4.4512e-24 -4.57988e-89 -4.57988e-89
3.46004e-25 -1.12574e-87 -1.12574e-87
2.6072e-26 -2.69542e-86 -2.69542e-86
1.90587e-27 -6.278e-85 -6.278e-85
1.35258e-28 -1.42016e-83 -1.42016e-83
9.32623e-30 -3.11457e-82 -3.11457e-82
6.25209e-31 -6.60871e-81 -6.60871e-81
4.07772e-32 -1.35353e-79 -1.35353e-79
2.58923e-33 -2.66847e-78 -2.66847e-78
1.60161e-34 -5.04768e-77 -5.04768e-77
9.657e-36 -9.12624e-76 -9.12624e-76
5.67914e-37 -1.56983e-74 -1.56983e-74
3.25928e-38 -2.55457e-73 -2.55457e-73
1.8264e-39 -3.90517e-72 -3.90517e-72
9.99839e-41 -5.55841e-71 -5.55841e-71
5.34988e-42 -7.28166e-70 -7.28166e-70
2.79928e-43 -8.64511e-69 -8.64511e-69
1.43298e-44 -9.10477e-68 -9.10477e-68
7.17986e-46 -8.24506e-67 -8.24506e-67
3.5226e-47 -6.11702e-66 -6.11702e-66
1.69319e-48 -3.42362e-65 -3.42362e-65
8.3424e-50 -1.22833e-64 -1.22833e-64
8.3268e-50 -1.87746e-64 -1.87746e-64
0.018 -2.0589e-136 -3.31539e-133
0.020251 -5.10509e-132 3.74322e-129
0.0211806 -7.18362e-131 -1.75374e-127
0.0182035 -6.075e-129 7.64392e-126
0.0218283 -8.84549e-128 -8.37804e-124
0 -8.24466e-128 -8.45627e-124
0 0 0
0 0 9.88766e-119
3.18346e-06 -5.41091e-117 -4.28948e-117
1.08178e-06 -1.73546e-116 -1.77555e-116
2.46871e-07 -6.9218e-115 -6.93703e-115
4.71094e-08 -2.43951e-113 -2.43951e-113
8.02939e-09 -8.38021e-112 -8.38021e-112
1.25883e-09 -2.83684e-110 -2.83684e-110
1.84407e-10 -9.46045e-109 -9.46045e-109
2.54749e-11 -3.10698e-107 -3.10698e-107
3.33801e-12 -1.00452e-105 -1.00452e-105
4.16453e-13 -3.19597e-104 -3.19597e-104
4.96042e-14 -1.00021e-102 -1.00021e-102
5.65229e-15 -3.07777e-101 -3.07777e-101
6.17151e-16 -9.30743e-100 -9.30743e-100
6.4659e-17 -2.76472e-98 -2.76472e-98
6.50858e-18 -8.06235e-97 -8.06235e-97
6.30194e-19 -2.30676e-95 -2.30676e-95
5.87596e-20 -6.47134e-94 -6.47134e-94
5.2816e-21 -1.77881e-92 -1.77881e-92
4.58127e-22 -4.78708e-91 -4.78708e-91
3.83861e-23 -1.26023e-89 -1.26023e-89
3.10991e-24 -3.24237e-88 -3.24237e-88
2.43844e-25 -8.14422e-87 -8.14422e-87
1.85206e-26 -1.99484e-85 -1.99484e-85
1.3638e-27 -4.7585e-84 -4.7585e-84
9.74452e-29 -1.1038e-82 -1.1038e-82
6.76122e-30 -2.48568e-81 -2.48568e-81
4.55907e-31 -5.42362e-80 -5.42362e-80
2.98972e-32 -1.14409e-78 -1.14409e-78
1.90804e-33 -2.32714e-77 -2.32714e-77
1.18588e-34 -4.55042e-76 -4.55042e-76
7.18239e-36 -8.52231e-75 -8.52231e-75
4.24165e-37 -1.52204e-73 -1.52204e-73
2.44397e-38 -2.57815e-72 -2.57815e-72
1.37466e-39 -4.11412e-71 -4.11412e-71
7.55206e-41 -6.13201e-70 -6.13201e-70
4.05448e-42 -8.44161e-69 -8.44161e-69
2.12823e-43 -1.05733e-67 -1.05733e-67
1.09275e-44 -1.17988e-66 -1.17988e-66
5.49094e-46 -1.13746e-65 -1.13746e-65
2.70136e-47 -9.0266e-65 -9.0266e-65
1.30184e-48 -5.42358e-64 -5.42358e-64
6.43087e-50 -2.08256e-63 -2.08256e-63
6.41872e-50 -3.23698e-63 -3.23698e-63
0.0196 -5.41872e-137 8.78651e-134
0.0221148 -8.56169e-133 -6.14286e-130
0.0232782 -2.11508e-131 8.93885e-129
0.0204523 -8.93066e-130 -5.60684e-127
0.0237174 -2.68324e-128 -3.18171e-124
0.00726959 -2.59596e-128 -2.85847e-122
0 0 -2.82671e-122
0 0 0
0 0 -4.2129e-117
1.2684e-07 2.07289e-115 1.45217e-115
4.73076e-08 -2.90326e-114 -2.96388e-114
1.17067e-08 -1.13183e-112 -1.13186e-112
2.38589e-09 -3.93269e-111 -3.93269e-111
4.27893e-10 -1.34694e-109 -1.34694e-109
6.96553e-11 -4.54656e-108 -4.54656e-108
1.04745e-11 -1.51203e-106 -1.51203e-106
1.47119e-12 -4.95259e-105 -4.95259e-105
1.94437e-13 -1.59714e-103 -1.59714e-103
2.43083e-14 -5.06904e-102 -5.06904e-102
2.88606e-15 -1.58272e-100 -1.58272e-100
3.26414e-16 -4.85942e-99 -4.85942e-99
3.52561e-17 -1.46644e-97 -1.46644e-97
3.64439e-18 -4.3473e-96 -4.3473e-96
3.612e-19 -1.26536e-94 -1.26536e-94
3.4381e-20 -3.61395e-93 -3.61395e-93
3.14769e-21 -1.01215e-91 -1.01215e-91
2.77566e-22 -2.77772e-90 -2.77772e-90
2.36046e-23 -7.46401e-89 -7.46401e-89
1.93823e-24 -1.96208e-87 -1.96208e-87
1.53842e-25 -5.04082e-86 -5.04082e-86
1.18158e-26 -1.26432e-84 -1.26432e-84
8.79024e-28 -3.09212e-83 -3.09212e-83
6.3401e-29 -7.36382e-82 -7.36382e-82
4.43745e-30 -1.70497e-80 -1.70497e-80
3.01633e-31 -3.83103e-79 -3.83103e-79
1.99286e-32 -8.33678e-78 -8.33678e-78
1.28072e-33 -1.7527e-76 -1.7527e-76
8.01176e-35 -3.54974e-75 -3.54974e-75
4.88193e-36 -6.90199e-74 -6.90199e-74
2.89955e-37 -1.28302e-72 -1.28302e-72
1.67963e-38 -2.26859e-71 -2.26859e-71
9.49505e-40 -3.79104e-70 -3.79104e-70
5.24119e-41 -5.9386e-69 -5.9386e-69
2.82648e-42 -8.62719e-68 -8.62719e-68
1.48994e-43 -1.14553e-66 -1.14553e-66
7.68101e-45 -1.36215e-65 -1.36215e-65
3.87433e-46 -1.40734e-64 -1.40734e-64
1.91296e-47 -1.20418e-63 -1.20418e-63
9.25071e-49 -7.84162e-63 -7.84162e-63
4.58533e-50 -3.25791e-62 -3.25791e-62
4.57657e-50 -5.15741e-62 -5.15741e-62
0.0196 -1.2285e-135 6.42396e-134
0.0222824 -1.75759e-131 -3.52228e-130
0.0229541 -6.90352e-130 6.99949e-129
0.0213352 -2.87501e-128 7.42365e-127
0.021599 -1.1077e-126 -3.66274e-125
0.0165411 -4.05697e-125 1.46835e-122
0.00390997 -3.949e-125 -3.23058e-120
0 0 -3.24531e-120
0 0 0
0 0 1.59852e-115
5.16349e-09 -1.14258e-113 -1.13184e-113
4.14258e-09 -4.28991e-112 -4.29045e-112
1.23925e-09 -1.50862e-110 -1.50862e-110
2.67372e-10 -5.22864e-109 -5.22864e-109
4.8227e-11 -1.78677e-107 -1.78677e-107
7.71577e-12 -6.01851e-106 -6.01851e-106
1.1278e-12 -1.99764e-104 -1.99764e-104
1.53152e-13 -6.53146e-103 -6.53146e-103
1.95221e-14 -2.10288e-101 -2.10288e-101
2.35177e-15 -6.66448e-100 -6.66448e-100
2.69027e-16 -2.07822e-98 -2.07822e-98
2.93266e-17 -6.37384e-97 -6.37384e-97
3.05486e-18 -1.92174e-95 -1.92174e-95
3.04766e-19 -5.69312e-94 -5.69312e-94
2.91758e-20 -1.65627e-92 -1.65627e-92
2.68467e-21 -4.72911e-91 -4.72911e-91
2.37809e-22 -1.32437e-89 -1.32437e-89
2.03062e-23 -3.63504e-88 -3.63504e-88
1.67358e-24 -9.77088e-87 -9.77088e-87
1.33286e-25 -2.5698e-85 -2.5698e-85
1.02689e-26 -6.6066e-84 -6.6066e-84
7.66145e-28 -1.65839e-82 -1.65839e-82
5.54065e-29 -4.05959e-81 -4.05959e-81
3.8875e-30 -9.67701e-80 -9.67701e-80
2.64858e-31 -2.24258e-78 -2.24258e-78
1.75366e-32 -5.04283e-77 -5.04283e-77
1.12927e-33 -1.09786e-75 -1.09786e-75
7.07765e-35 -2.30791e-74 -2.30791e-74
4.32039e-36 -4.66992e-73 -4.66992e-73
2.57032e-37 -9.06032e-72 -9.06032e-72
1.49126e-38 -1.67746e-70 -1.67746e-70
8.44278e-40 -2.94601e-69 -2.94601e-69
4.66692e-41 -4.87015e-68 -4.87015e-68
2.52015e-42 -7.50178e-67 -7.50178e-67
1.33015e-43 -1.06191e-65 -1.06191e-65
6.86553e-45 -1.35451e-64 -1.35451e-64
3.46698e-46 -1.51179e-63 -1.51179e-63
1.7137e-47 -1.40826e-62 -1.40826e-62
8.29578e-49 -1.00575e-61 -1.00575e-61
4.11626e-50 -4.58519e-61 -4.58519e-61
4.10841e-50 -7.40536e-61 -7.40536e-61
0.018 -2.76317e-134 -3.32145e-133
0.0204832 -5.25993e-130 3.65868e-129
0.0206045 -2.38074e-128 -1.5839e-127
0.0194396 -1.06298e-126 7.66062e-126
0.0183554 -4.50696e-125 -4.34579e-124
0.0163121 -1.68391e-123 2.19867e-122
0.00760739 -4.13252e-122 1.18596e-120
0.000766859 -3.96853e-122 6.03582e-118
0 0 6.02419e-118
0 0 0
0 -3.39148e-113 -3.36593e-113
1.91442e-08 -1.25625e-111 -1.25599e-111
4.74941e-09 -4.46566e-110 -4.46566e-110
8.55313e-10 -1.56624e-108 -1.56624e-108
1.32881e-10 -5.41878e-107 -5.41878e-107
1.88102e-11 -1.84883e-105 -1.84883e-105
2.48551e-12 -6.21903e-104 -6.21903e-104
3.10407e-13 -2.06181e-102 -2.06181e-102
3.68958e-14 -6.73501e-101 -6.73501e-101
4.1915e-15 -2.16692e-99 -2.16692e-99
4.56319e-16 -6.86444e-98 -6.86444e-98
4.76961e-17 -2.14021e-96 -2.14021e-96
4.79317e-18 -6.56471e-95 -6.56471e-95
4.63657e-19 -1.98009e-93 -1.98009e-93
4.32174e-20 -5.87019e-92 -5.87019e-92
3.88537e-21 -1.70956e-90 -1.70956e-90
3.37228e-22 -4.88799e-89 -4.88799e-89
2.82833e-23 -1.37122e-87 -1.37122e-87
2.29422e-24 -3.77148e-86 -3.77148e-86
1.80141e-25 -1.01624e-84 -1.01624e-84
1.37036e-26 -2.68031e-83 -2.68031e-83
1.01076e-27 -6.91263e-82 -6.91263e-82
7.23444e-29 -1.74134e-80 -1.74134e-80
5.02845e-30 -4.27912e-79 -4.27912e-79
3.3967e-31 -1.02426e-77 -1.02426e-77
2.23143e-32 -2.38405e-76 -2.38405e-76
1.42663e-33 -5.38504e-75 -5.38504e-75
8.88229e-35 -1.17761e-73 -1.17761e-73
5.3889e-36 -2.48601e-72 -2.48601e-72
3.18788e-37 -5.04868e-71 -5.04868e-71
1.83985e-38 -9.82065e-70 -9.82065e-70
1.03653e-39 -1.81974e-68 -1.81974e-68
5.70351e-41 -3.18934e-67 -3.18934e-67
3.06677e-42 -5.23751e-66 -5.23751e-66
1.61219e-43 -7.95526e-65 -7.95526e-65
8.28997e-45 -1.09706e-63 -1.09706e-63
4.17151e-46 -1.33549e-62 -1.33549e-62
2.05508e-47 -1.37062e-61 -1.37062e-61
9.91711e-49 -1.08985e-60 -1.08985e-60
4.90554e-50 -5.55521e-60 -5.55521e-60
4.89632e-50 -9.17115e-60 -9.17115e-60
0.0148 -7.51743e-133 1.46082e-134
0.016492 -1.53577e-128 -4.01801e-130
0.0160168 -7.18905e-127 -2.27042e-128
0.0147811 -3.19536e-125 -5.45935e-126
0.0132783 -1.34862e-123 -7.97719e-124
0.0106497 -5.18438e-122 -1.59452e-121
0.00539103 -1.63653e-120 -8.31197e-120
0.00121823 -3.50122e-119 -8.85643e-119
6.2262e-05 -3.34262e-119 -2.89221e-116
7.93572e-06 0 -1.16128e-114
1.08246e-06 -6.8404e-113 -6.95278e-113
1.58921e-07 -2.55979e-111 -2.55978e-111
2.19988e-08 -9.20135e-110 -9.20135e-110
2.90191e-09 -3.26482e-108 -3.26482e-108
3.67334e-10 -1.14325e-106 -1.14325e-106
4.48173e-11 -3.94996e-105 -3.94996e-105
5.28396e-12 -1.34619e-103 -1.34619e-103
6.02785e-13 -4.5245e-102 -4.5245e-102
6.65668e-14 -1.4992e-100 -1.4992e-100
7.11617e-15 -4.89601e-99 -4.89601e-99
7.3628e-16 -1.57537e-97 -1.57537e-97
7.37146e-17 -4.99267e-96 -4.99267e-96
7.1403e-18 -1.55788e-94 -1.55788e-94
6.69155e-19 -4.78424e-93 -4.78424e-93
6.06789e-20 -1.44539e-91 -1.44539e-91
5.32547e-21 -4.29389e-90 -4.29389e-90
4.52526e-22 -1.25369e-88 -1.25369e-88
3.72468e-23 -3.59549e-87 -3.59549e-87
2.97111e-24 -1.01226e-85 -1.01226e-85
2.29814e-25 -2.79572e-84 -2.79572e-84
1.72472e-26 -7.56898e-83 -7.56898e-83
1.25665e-27 -2.00701e-81 -2.00701e-81
8.89478e-29 -5.20729e-80 -5.20729e-80
6.11997e-30 -1.32052e-78 -1.32052e-78
4.09568e-31 -3.26883e-77 -3.26883e-77