# vtk DataFile Version 2.0
Tobias Weinzierl: CPU, Manycore and Cluster Computing
ASCII

DATASET STRUCTURED_POINTS
DIMENSIONS  51 11 6

ORIGIN 0 0 0 

SPACING 0.1 0.1 0.1 

POINT_DATA 3366

VECTORS velocity float
0 0 0
2.37727e-09 0 0
6.98776e-09 0 0
1.33881e-08 0 0
1.64536e-08 0 0
1.0237e-08 0 0
3.91861e-09 0 0
1.10239e-09 0 0
2.54032e-10 0 0
5.08983e-11 0 0
9.17946e-12 0 0
1.52264e-12 0 0
2.35579e-13 0 0
3.4314e-14 0 0
4.73434e-15 0 0
6.21225e-16 0 0
7.77318e-17 0 0
9.29193e-18 0 0
1.06258e-18 0 0
1.16371e-19 0 0
1.22178e-20 0 0
1.23092e-21 0 0
1.19118e-22 0 0
1.10829e-23 0 0
9.92416e-25 0 0
8.56107e-26 0 0
7.12172e-27 0 0
5.71858e-28 0 0
4.43664e-29 0 0
3.32881e-30 0 0
2.4176e-31 0 0
1.70108e-32 0 0
1.16058e-33 0 0
7.68398e-35 0 0
4.94085e-36 0 0
3.08779e-37 0 0
1.87687e-38 0 0
1.11036e-39 0 0
6.3977e-41 0 0
3.59242e-42 0 0
1.96707e-43 0 0
1.05093e-44 0 0
5.48139e-46 0 0
2.79258e-47 0 0
1.3904e-48 0 0
6.76878e-50 0 0
3.22345e-51 0 0
1.50235e-52 0 0
6.85621e-54 0 0
3.19857e-55 0 0
1.58183e-52 0 0
0 -1.65834e-137 0
6.08376e-09 -7.14138e-136 0
2.07622e-08 -3.83661e-134 0
4.64036e-08 -1.99395e-132 0
6.97185e-08 -9.3634e-131 0
4.52551e-08 -3.5924e-129 0
1.6959e-08 -8.3304e-128 0
4.58741e-09 -6.31882e-128 0
1.02013e-09 -2.27891e-126 0
1.98614e-10 -8.42391e-125 0
3.50181e-11 -3.05567e-123 0
5.70594e-12 -1.09089e-121 0
8.70529e-13 -3.83337e-120 0
1.25422e-13 -1.32546e-118 0
1.71595e-14 -4.50785e-117 0
2.23727e-15 -1.50732e-115 0
2.78609e-16 -4.95312e-114 0
3.31878e-17 -1.59877e-112 0
3.78561e-18 -5.06645e-111 0
4.13855e-19 -1.57542e-109 0
4.33983e-20 -4.80406e-108 0
4.36885e-21 -1.43571e-106 0
4.22577e-22 -4.20221e-105 0
3.93077e-23 -1.2037e-103 0
3.51953e-24 -3.37163e-102 0
3.03626e-25 -9.2271e-101 0
2.52612e-26 -2.46478e-99 0
2.02882e-27 -6.41984e-98 0
1.5744e-28 -1.62854e-96 0
1.18159e-29 -4.01832e-95 0
8.58398e-31 -9.63034e-94 0
6.0417e-32 -2.23818e-92 0
4.12327e-33 -5.0353e-91 0
2.73079e-34 -1.09432e-89 0
1.75646e-35 -2.29215e-88 0
1.09803e-36 -4.61488e-87 0
6.67625e-38 -8.90334e-86 0
3.95084e-39 -1.64001e-84 0
2.27705e-40 -2.872e-83 0
1.27896e-41 -4.75709e-82 0
7.00496e-43 -7.4066e-81 0
3.74346e-44 -1.07571e-79 0
1.95299e-45 -1.44342e-78 0
9.95228e-47 -1.76749e-77 0
4.95634e-48 -1.94313e-76 0
2.41341e-49 -1.87566e-75 0
1.14958e-50 -1.53984e-74 0
5.35896e-52 -1.02435e-73 0
2.44616e-53 -5.09699e-73 0
1.14143e-54 -1.63299e-72 0
5.64401e-52 -9.94997e-70 0
0 -9.61407e-137 0
5.77866e-09 -4.09971e-135 0
2.51265e-08 -2.70747e-133 0
6.01125e-08 -1.87003e-131 0
1.35227e-07 -1.25321e-129 0
8.78829e-08 -7.87866e-128 0
3.15563e-08 -3.52918e-126 0
8.05852e-09 -4.58044e-127 0
1.71973e-09 -1.64615e-125 0
3.2505e-10 -6.24643e-124 0
5.60886e-11 -2.2919e-122 0
8.99651e-12 -8.26277e-121 0
1.35702e-12 -2.93247e-119 0
1.9395e-13 -1.0244e-117 0
2.63917e-14 -3.52102e-116 0
3.42927e-15 -1.1903e-114 0
4.26247e-16 -3.95591e-113 0
5.07366e-17 -1.29193e-111 0
5.78772e-18 -4.14407e-110 0
6.33136e-19 -1.3049e-108 0
6.64606e-20 -4.03137e-107 0
6.69899e-21 -1.2212e-105 0
6.48875e-22 -3.62489e-104 0
6.04476e-23 -1.05359e-102 0
5.42058e-24 -2.99631e-101 0
4.68334e-25 -8.33052e-100 0
3.90226e-26 -2.2622e-98 0
3.13857e-27 -5.99414e-97 0
2.43898e-28 -1.54802e-95 0
1.83291e-29 -3.89173e-94 0
1.33327e-30 -9.51113e-93 0
9.3955e-32 -2.25618e-91 0
6.41963e-33 -5.18583e-90 0
4.25638e-34 -1.15268e-88 0
2.74063e-35 -2.47214e-87 0
1.71501e-36 -5.10258e-86 0
1.04376e-37 -1.01055e-84 0
6.1824e-39 -1.91359e-83 0
3.56632e-40 -3.45035e-82 0
2.00478e-41 -5.89431e-81 0
1.09891e-42 -9.48262e-80 0
5.87707e-44 -1.42593e-78 0
3.06835e-45 -1.98541e-77 0
1.56469e-46 -2.52874e-76 0
7.79754e-48 -2.89915e-75 0
3.79931e-49 -2.92646e-74 0
1.81083e-50 -2.51946e-73 0
8.44648e-52 -1.76209e-72 0
3.85768e-53 -9.22903e-72 0
1.80108e-54 -3.0987e-71 0
8.89111e-52 -1.94691e-68 0
0 -6.69951e-138 0
4.94626e-10 -2.88554e-136 0
2.478e-08 -1.48098e-134 0
3.32184e-08 -7.30199e-133 0
1.62126e-07 -2.60575e-131 0
5.28648e-08 -2.53418e-131 0
1.85159e-08 0 0
4.57349e-09 1.49874e-124 0
1.1067e-09 -9.28024e-125 0
2.2632e-10 -3.99871e-123 0
4.12642e-11 -1.502e-121 0
6.89759e-12 -5.47698e-120 0
1.07471e-12 -1.96418e-118 0
1.57704e-13 -6.93576e-117 0
2.19361e-14 -2.41061e-115 0
2.9039e-15 -8.24352e-114 0
3.66769e-16 -2.77252e-112 0
4.42675e-17 -9.16689e-111 0
5.11152e-18 -2.9782e-109 0
5.65184e-19 -9.50286e-108 0
5.98934e-20 -2.97639e-106 0
6.08833e-21 -9.14561e-105 0
5.94214e-22 -2.75519e-103 0
5.57348e-23 -8.13228e-102 0
5.02892e-24 -2.35006e-100 0
4.36942e-25 -6.64363e-99 0
3.65938e-26 -1.83574e-97 0
2.95707e-27 -4.95311e-96 0
2.30786e-28 -1.30361e-94 0
1.74129e-29 -3.34276e-93 0
1.2713e-30 -8.34035e-92 0
8.98943e-32 -2.02183e-90 0
6.16172e-33 -4.75409e-89 0
4.0975e-34 -1.08226e-87 0
2.64565e-35 -2.38016e-86 0
1.65988e-36 -5.04442e-85 0
1.01268e-37 -1.02729e-83 0
6.01206e-39 -2.00349e-82 0
3.47557e-40 -3.72688e-81 0
1.95776e-41 -6.58073e-80 0
1.07521e-42 -1.09652e-78 0
5.76084e-44 -1.71165e-77 0
3.01289e-45 -2.48007e-76 0
1.53895e-46 -3.29607e-75 0
7.68125e-48 -3.95481e-74 0
3.74824e-49 -4.19128e-73 0
1.78903e-50 -3.80108e-72 0
8.35613e-52 -2.80922e-71 0
3.82137e-53 -1.55764e-70 0
1.78643e-54 -5.51399e-70 0
8.77241e-52 -3.57754e-67 0
0 -3.04181e-139 0
-7.90853e-09 -1.32333e-137 0
2.87552e-08 -5.55259e-136 0
3.64441e-09 -2.1693e-134 0
1.36936e-07 -5.4413e-133 0
0 -5.22979e-133 0
0 0 0
0 0 0
1.53072e-10 -6.70816e-123 0
5.57835e-11 -2.0149e-122 0
1.33549e-11 -8.4846e-121 0
2.64034e-12 -3.15656e-119 0
4.62337e-13 -1.1442e-117 0
7.40049e-14 -4.08519e-116 0
1.10126e-14 -1.43617e-114 0
1.53859e-15 -4.96965e-113 0
2.0305e-16 -1.69201e-111 0
2.54141e-17 -5.66575e-110 0
3.02531e-18 -1.86509e-108 0
3.43265e-19 -6.03286e-107 0
3.71908e-20 -1.9165e-105 0
3.8537e-21 -5.97613e-104 0
3.82464e-22 -1.82811e-102 0
3.64061e-23 -5.48248e-101 0
3.32813e-24 -1.61081e-99 0
2.92564e-25 -4.63316e-98 0
2.47608e-26 -1.30351e-96 0
2.01994e-27 -3.58395e-95 0
1.59013e-28 -9.62019e-94 0
1.20924e-29 -2.51822e-92 0
8.89252e-31 -6.42028e-91 0
6.32988e-32 -1.59205e-89 0
4.36547e-33 -3.8337e-88 0
2.91957e-34 -8.94868e-87 0
1.89509e-35 -2.02065e-85 0
1.19485e-36 -4.40337e-84 0
7.32335e-38 -9.2352e-83 0
4.36652e-39 -1.85809e-81 0
2.53452e-40 -3.57251e-80 0
1.43313e-41 -6.53358e-79 0
7.89912e-43 -1.13015e-77 0
4.24662e-44 -1.83599e-76 0
2.2281e-45 -2.7763e-75 0
1.14154e-46 -3.86266e-74 0
5.71416e-48 -4.86834e-73 0
2.796e-49 -5.43985e-72 0
1.33801e-50 -5.22223e-71 0
6.26502e-52 -4.10146e-70 0
2.87186e-53 -2.42324e-69 0
1.3457e-54 -9.10844e-69 0
6.54044e-52 -6.11121e-66 0
0 -6.25109e-140 0
-1.21786e-08 -2.72417e-138 0
2.66371e-08 -9.3745e-137 0
4.81936e-09 -2.97993e-135 0
9.53914e-08 -6.68635e-134 0
7.05174e-08 -6.39746e-134 0
0 0 0
0 0 0
0 0 0
6.79816e-12 2.72883e-121 0
2.63518e-12 -3.74771e-120 0
6.70672e-13 -1.54126e-118 0
1.39631e-13 -5.64866e-117 0
2.54488e-14 -2.03966e-115 0
4.19172e-15 -7.25479e-114 0
6.35274e-16 -2.54097e-112 0
8.95886e-17 -8.76036e-111 0
1.18452e-17 -2.97183e-109 0
1.47627e-18 -9.91579e-108 0
1.74134e-19 -3.25266e-106 0
1.95028e-20 -1.04846e-104 0
2.07955e-21 -3.31927e-103 0
2.11594e-22 -1.03151e-101 0
2.05863e-23 -3.14475e-100 0
1.91866e-24 -9.3993e-99 0
1.71588e-25 -2.7523e-97 0
1.47475e-26 -7.88951e-96 0
1.21988e-27 -2.21201e-94 0
9.72448e-29 -6.06034e-93 0
7.4801e-30 -1.62079e-91 0
5.55843e-31 -4.22635e-90 0
3.99466e-32 -1.07312e-88 0
2.77934e-33 -2.64926e-87 0
1.87398e-34 -6.34843e-86 0
1.2256e-35 -1.47378e-84 0
7.78174e-37 -3.30715e-83 0
4.80071e-38 -7.15476e-82 0
2.8799e-39 -1.48773e-80 0
1.68119e-40 -2.96242e-79 0
9.55716e-42 -5.624e-78 0
5.29428e-43 -1.01242e-76 0
2.85976e-44 -1.71656e-75 0
1.50716e-45 -2.71766e-74 0
7.75446e-47 -3.97272e-73 0
3.89714e-48 -5.28166e-72 0
1.91414e-49 -6.25268e-71 0
9.19299e-51 -6.38996e-70 0
4.31921e-52 -5.36868e-69 0
1.98635e-53 -3.40634e-68 0
9.33773e-55 -1.3714e-67 0
4.48277e-52 -9.52985e-65 0
0 -1.43238e-138 0
-8.65687e-09 -6.17365e-137 0
2.0803e-08 -2.3257e-135 0
2.02458e-08 -8.37604e-134 0
7.66434e-08 -2.59782e-132 0
2.10661e-07 -5.68509e-131 0
9.1292e-08 -5.43346e-131 0
0 0 0
0 0 0
0 0 0
2.94422e-13 -1.5544e-119 0
2.37914e-13 -6.13997e-118 0
7.22448e-14 -2.27652e-116 0
1.57895e-14 -8.31505e-115 0
2.87705e-15 -2.9929e-113 0
4.63613e-16 -1.06125e-111 0
6.80419e-17 -3.70588e-110 0
9.24762e-18 -1.27397e-108 0
1.17588e-18 -4.30973e-107 0
1.40843e-19 -1.43413e-105 0
1.59674e-20 -4.69225e-104 0
1.71968e-21 -1.50877e-102 0
1.76457e-22 -4.76529e-101 0
1.72929e-23 -1.47755e-99 0
1.62196e-24 -4.49487e-98 0
1.45872e-25 -1.3407e-96 0
1.26005e-26 -3.91806e-95 0
1.04702e-27 -1.12097e-93 0
8.38093e-29 -3.13704e-92 0
6.4709e-30 -8.57879e-91 0
4.82508e-31 -2.29004e-89 0
3.47864e-32 -5.95992e-88 0
2.42741e-33 -1.51015e-86 0
1.64114e-34 -3.71964e-85 0
1.07603e-35 -8.88995e-84 0
6.84817e-37 -2.05736e-82 0
4.23407e-38 -4.59911e-81 0
2.54521e-39 -9.90238e-80 0
1.48868e-40 -2.04651e-78 0
8.47818e-42 -4.04282e-77 0
4.7046e-43 -7.59493e-76 0
2.54534e-44 -1.34816e-74 0
1.3435e-45 -2.2427e-73 0
6.92241e-47 -3.45881e-72 0
3.48375e-48 -4.87388e-71 0
1.71332e-49 -6.14746e-70 0
8.23867e-51 -6.7324e-69 0
3.87539e-52 -6.09905e-68 0
1.78424e-53 -4.19531e-67 0
8.39693e-55 -1.82905e-66 0
4.03428e-52 -1.31862e-63 0
0 -3.44486e-137 0
-2.36439e-09 -1.47151e-135 0
1.83473e-08 -6.00869e-134 0
2.84628e-08 -2.35495e-132 0
9.75125e-08 -8.39985e-131 0
2.84255e-07 -2.48727e-129 0
2.02403e-07 -4.89076e-128 0
2.67432e-08 -4.6502e-128 0
0 0 0
0 0 0
0 -4.8355e-119 0
1.06045e-12 -1.88599e-117 0
2.69353e-13 -7.06642e-116 0
4.94052e-14 -2.61093e-114 0
7.78709e-15 -9.51074e-113 0
1.1146e-15 -3.41452e-111 0
1.48445e-16 -1.20783e-109 0
1.86247e-17 -4.20818e-108 0
2.21659e-18 -1.4436e-106 0
2.51269e-19 -4.87413e-105 0
2.72028e-20 -1.61908e-103 0
2.81803e-21 -5.289e-102 0
2.79772e-22 -1.69827e-100 0
2.66544e-23 -5.35737e-99 0
2.43992e-24 -1.65945e-97 0
2.14848e-25 -5.04416e-96 0
1.82192e-26 -1.50362e-94 0
1.48949e-27 -4.39234e-93 0
1.17523e-28 -1.25638e-91 0
8.95834e-30 -3.51581e-90 0
6.60359e-31 -9.61569e-89 0
4.71189e-32 -2.56745e-87 0
3.25738e-33 -6.68412e-86 0
2.18363e-34 -1.69427e-84 0
1.42068e-35 -4.17446e-83 0
8.97766e-37 -9.97851e-82 0
5.51463e-38 -2.3089e-80 0
3.29514e-39 -5.15784e-79 0
1.91663e-40 -1.10884e-77 0
1.08593e-41 -2.28523e-76 0
5.99716e-43 -4.49343e-75 0
3.23022e-44 -8.37918e-74 0
1.69791e-45 -1.47044e-72 0
8.71449e-47 -2.40371e-71 0
4.36962e-48 -3.60972e-70 0
2.14163e-49 -4.88257e-69 0
1.0265e-50 -5.77527e-68 0
4.81386e-52 -5.6956e-67 0
2.20994e-53 -4.29765e-66 0
1.0371e-54 -2.05772e-65 0
5.06403e-52 -1.54191e-62 0
0 -6.40861e-136 0
2.31776e-09 -2.71436e-134 0
1.61112e-08 -1.17952e-132 0
3.85771e-08 -4.90721e-131 0
1.25511e-07 -1.9251e-129 0
2.38058e-07 -6.82221e-128 0
1.70493e-07 -2.03985e-126 0
4.50254e-08 -4.40012e-125 0
2.78241e-09 -4.20277e-125 0
3.83353e-10 0 0
5.55692e-11 -1.02012e-118 0
8.54529e-12 -4.01872e-117 0
1.22169e-12 -1.52216e-115 0
1.6503e-13 -5.68795e-114 0
2.12732e-14 -2.09637e-112 0
2.63224e-15 -7.61874e-111 0
3.13637e-16 -2.72946e-109 0
3.60387e-17 -9.63647e-108 0
3.9952e-18 -3.35173e-106 0
4.27269e-19 -1.1481e-104 0
4.40714e-20 -3.87163e-103 0
4.38355e-21 -1.28481e-101 0
4.20426e-22 -4.19407e-100 0
3.88871e-23 -1.34612e-98 0
3.46982e-24 -4.24591e-97 0
2.98805e-25 -1.31542e-95 0
2.48478e-26 -4.00043e-94 0
1.99658e-27 -1.1935e-92 0
1.55128e-28 -3.49058e-91 0
1.1663e-29 -9.99983e-90 0
8.49145e-31 -2.80365e-88 0
5.9914e-32 -7.68526e-87 0
4.09995e-33 -2.05736e-85 0
2.72305e-34 -5.37182e-84 0
1.75661e-35 -1.366e-82 0
1.1014e-36 -3.37717e-81 0
6.71681e-38 -8.10132e-80 0
3.98677e-39 -1.88114e-78 0
2.30461e-40 -4.21599e-77 0
1.29825e-41 -9.08806e-76 0
7.13129e-43 -1.87606e-74 0
3.82184e-44 -3.68843e-73 0
1.99947e-45 -6.85749e-72 0
1.0217e-46 -1.1943e-70 0
5.10178e-48 -1.92326e-69 0
2.49071e-49 -2.81094e-68 0
1.18942e-50 -3.62475e-67 0
5.55845e-52 -3.9373e-66 0
2.54336e-53 -3.30777e-65 0
1.18968e-54 -1.77207e-64 0
5.89382e-52 -1.38297e-61 0
0 -6.88662e-135 0
3.25851e-09 -2.8941e-133 0
1.22103e-08 -1.29786e-131 0
3.69087e-08 -5.63096e-130 0
9.26792e-08 -2.41618e-128 0
1.22174e-07 -1.0253e-126 0
7.51901e-08 -4.30281e-125 0
2.34177e-08 -1.78586e-123 0
3.84646e-09 -7.3303e-122 0
5.62557e-10 -2.97528e-120 0
8.28244e-11 -1.19331e-118 0
1.14498e-11 -4.62633e-117 0
1.50505e-12 -1.76964e-115 0
1.89753e-13 -6.68103e-114 0
2.3079e-14 -2.48895e-112 0
2.71731e-15 -9.14738e-111 0
3.10224e-16 -3.31572e-109 0
3.43548e-17 -1.18506e-107 0
3.68888e-18 -4.17508e-106 0
3.8376e-19 -1.4495e-104 0
3.86467e-20 -4.95749e-103 0
3.76476e-21 -1.66973e-101 0
3.54578e-22 -5.53622e-100 0
3.22787e-23 -1.8063e-98 0
2.8401e-24 -5.7968e-97 0
2.41564e-25 -1.82898e-95 0
1.98677e-26 -5.6706e-94 0
1.58078e-27 -1.72667e-92 0
1.2174e-28 -5.16036e-91 0
9.08013e-30 -1.51268e-89 0
6.56331e-31 -4.34593e-88 0
4.60059e-32 -1.22268e-86 0
3.12936e-33 -3.36526e-85 0
2.067e-34 -9.05148e-84 0
1.32666e-35 -2.3761e-82 0
8.27942e-37 -6.07873e-81 0
5.02737e-38 -1.51288e-79 0
2.97204e-39 -3.65549e-78 0
1.71162e-40 -8.55356e-77 0
9.60852e-42 -1.93232e-75 0
5.26078e-43 -4.19844e-74 0
2.8108e-44 -8.73095e-73 0
1.46631e-45 -1.72684e-71 0
7.47249e-47 -3.2209e-70 0
3.72187e-48 -5.59908e-69 0
1.81269e-49 -8.91751e-68 0
8.63674e-51 -1.2674e-66 0
4.02752e-52 -1.53817e-65 0
1.83911e-53 -1.4665e-64 0
8.5854e-55 -9.01793e-64 0
4.28814e-52 -7.34577e-61 0
0 0 0
1.38562e-09 0 0
4.95326e-09 0 0
1.38451e-08 0 0
2.66562e-08 0 0
2.82275e-08 0 0
1.58073e-08 0 0
5.13556e-09 0 0
1.06405e-09 0 0
1.79204e-10 0 0
2.72551e-11 0 0
3.84178e-12 0 0
5.10404e-13 0 0
6.4644e-14 0 0
7.86444e-15 0 0
9.2343e-16 0 0
1.04928e-16 0 0
1.15511e-17 0 0
1.23218e-18 0 0
1.27319e-19 0 0
1.2736e-20 0 0
1.23269e-21 0 0
1.15394e-22 0 0
1.04453e-23 0 0
9.14221e-25 0 0
7.73824e-26 0 0
6.33606e-27 0 0
5.02068e-28 0 0
3.85202e-29 0 0
2.86313e-30 0 0
2.06293e-31 0 0
1.44177e-32 0 0
9.78032e-34 0 0
6.44379e-35 0 0
4.12613e-36 0 0
2.56942e-37 0 0
1.55701e-38 0 0
9.18716e-40 0 0
5.28156e-41 0 0
2.95997e-42 0 0
1.61809e-43 0 0
8.63261e-45 0 0
4.49714e-46 0 0
2.28879e-47 0 0
1.13858e-48 0 0
5.53883e-50 0 0
2.63611e-51 0 0
1.22799e-52 0 0
5.60182e-54 0 0
2.61247e-55 0 0
1.30991e-52 0 0
0 0 -2.63128e-138
6.40625e-09 0 -1.1244e-136
2.14335e-08 0 -6.03695e-135
4.61494e-08 0 -3.06338e-133
6.44252e-08 0 -1.36658e-131
4.28922e-08 0 -4.72441e-130
1.65406e-08 0 -9.02627e-129
4.58016e-09 0 -3.41282e-128
1.03565e-09 0 -1.26006e-126
2.04059e-10 0 -4.63587e-125
3.62897e-11 0 -1.67786e-123
5.94981e-12 0 -5.9784e-122
9.11671e-13 0 -2.09669e-120
1.3173e-13 0 -7.2352e-119
1.80551e-14 0 -2.45563e-117
2.35632e-15 0 -8.19384e-116
2.93539e-16 0 -2.68677e-114
3.49635e-17 0 -8.65333e-113
3.98664e-18 0 -2.73606e-111
4.3558e-19 0 -8.48825e-110
4.56442e-20 0 -2.5823e-108
4.59138e-21 0 -7.69871e-107
4.43742e-22 0 -2.24778e-105
4.12427e-23 0 -6.42234e-104
3.68981e-24 0 -1.79427e-102
3.18065e-25 0 -4.8973e-101
2.64423e-26 0 -1.30462e-99
2.12213e-27 0 -3.38855e-98
1.64565e-28 0 -8.57117e-97
1.23424e-29 0 -2.10866e-95
8.96081e-31 0 -5.03837e-94
6.30312e-32 0 -1.16734e-92
4.29921e-33 0 -2.61783e-91
2.84577e-34 0 -5.67073e-90
1.82947e-35 0 -1.1838e-88
1.14311e-36 0 -2.37518e-87
6.94709e-38 0 -4.56614e-86
4.10928e-39 0 -8.38035e-85
2.36736e-40 0 -1.46209e-83
1.32915e-41 0 -2.41246e-82
7.27707e-43 0 -3.7413e-81
3.88744e-44 0 -5.41174e-80
2.0274e-45 0 -7.23151e-79
1.0328e-46 0 -8.81734e-78
5.1418e-48 0 -9.65131e-77
2.50295e-49 0 -9.27476e-76
1.19188e-50 0 -7.57983e-75
5.55459e-52 0 -5.01952e-74
2.53477e-53 0 -2.48668e-73
1.18245e-54 0 -7.93671e-73
5.85464e-52 0 -4.82347e-70
0.0036 -1.70574e-137 -3.72118e-138
0.00496616 -1.89646e-133 -6.47316e-134
0.00491185 -1.19106e-131 -6.33267e-132
0.0041774 -8.72296e-130 -6.02319e-130
0.00290577 -6.411e-128 -5.01006e-128
0.00117867 -4.43391e-126 -3.20957e-126
0.000322273 -1.14366e-124 -9.33243e-125
6.96068e-05 -8.26555e-125 -8.22225e-125
1.3067e-05 -3.01769e-123 -3.01847e-123
2.22581e-06 -1.13461e-121 -1.13464e-121
3.51542e-07 -4.18545e-120 -4.18545e-120
5.2137e-08 -1.51995e-118 -1.51995e-118
7.31927e-09 -5.43482e-117 -5.43482e-117
9.77629e-10 -1.91285e-115 -1.91285e-115
1.24649e-10 -6.62451e-114 -6.62451e-114
1.52026e-11 -2.25646e-112 -2.25646e-112
1.7761e-12 -7.5564e-111 -7.5564e-111
1.9896e-13 -2.48668e-109 -2.48668e-109
2.1388e-14 -8.03761e-108 -8.03761e-108
2.20802e-15 -2.55042e-106 -2.55042e-106
2.19076e-16 -7.94014e-105 -7.94014e-105
2.09066e-17 -2.4239e-103 -2.4239e-103
1.92056e-18 -7.2508e-102 -7.2508e-102
1.6998e-19 -2.12391e-100 -2.12391e-100
1.45068e-20 -6.08734e-99 -6.08734e-99
1.19491e-21 -1.70569e-97 -1.70569e-97
9.50761e-23 -4.66822e-96 -4.66822e-96
7.31415e-24 -1.24665e-94 -1.24665e-94
5.44488e-25 -3.24485e-93 -3.24485e-93
3.92565e-26 -8.22181e-92 -8.22181e-92
2.74342e-27 -2.02518e-90 -2.02518e-90
1.85985e-28 -4.84188e-89 -4.84188e-89
1.22406e-29 -1.12167e-87 -1.12167e-87
7.82692e-31 -2.51282e-86 -2.51282e-86
4.86582e-32 -5.43159e-85 -5.43159e-85
2.94305e-33 -1.1299e-83 -1.1299e-83
1.73302e-34 -2.25524e-82 -2.25524e-82
9.9415e-36 -4.30392e-81 -4.30392e-81
5.55916e-37 -7.82064e-80 -7.82064e-80
3.03201e-38 -1.34636e-78 -1.34636e-78
1.61385e-39 -2.18267e-77 -2.18267e-77
8.38768e-41 -3.30725e-76 -3.30725e-76
4.25886e-42 -4.6398e-75 -4.6398e-75
2.11367e-43 -5.95392e-74 -5.95392e-74
1.02584e-44 -6.87666e-73 -6.87666e-73
4.87109e-46 -6.99206e-72 -6.99206e-72
2.26396e-47 -6.06254e-71 -6.06254e-71
1.03037e-48 -4.26925e-70 -4.26925e-70
4.59424e-50 -2.25044e-69 -2.25044e-69
2.09324e-51 -7.59677e-69 -7.59677e-69
2.08902e-51 -1.14243e-68 -1.14243e-68
0.01 -9.4769e-137 -1.41881e-138
0.0111721 -1.04463e-132 -2.60599e-134
0.0108278 -6.15048e-131 -5.24247e-132
0.00961881 -5.1351e-129 -6.74876e-130
0.00777935 -3.99162e-127 -1.78416e-127
0.00282413 -1.00574e-124 -6.23654e-125
0.000686863 -4.93456e-123 -4.00568e-123
0.000133567 -6.17054e-124 -6.23806e-124
2.33224e-05 -2.2147e-122 -2.2193e-122
3.78065e-06 -8.54855e-121 -8.55099e-121
5.76911e-07 -3.19072e-119 -3.19079e-119
8.35209e-08 -1.17052e-117 -1.17052e-117
1.15287e-08 -4.22863e-116 -4.22862e-116
1.52203e-09 -1.5042e-114 -1.5042e-114
1.92545e-10 -5.26678e-113 -5.26678e-113
2.33654e-11 -1.81446e-111 -1.81446e-111
2.72152e-12 -6.14805e-110 -6.14805e-110
3.04391e-13 -2.04797e-108 -2.04797e-108
3.27041e-14 -6.70355e-107 -6.70355e-107
3.37686e-15 -2.15508e-105 -2.15508e-105
3.35269e-16 -6.80093e-104 -6.80093e-104
3.20267e-17 -2.10556e-102 -2.10556e-102
2.9456e-18 -6.3913e-101 -6.3913e-101
2.61045e-19 -1.90083e-99 -1.90083e-99
2.23094e-20 -5.53487e-98 -5.53487e-98
1.84018e-21 -1.57666e-96 -1.57666e-96
1.46624e-22 -4.38987e-95 -4.38987e-95
1.12953e-23 -1.19352e-93 -1.19352e-93
8.41987e-25 -3.1653e-92 -3.1653e-92
6.07847e-26 -8.17881e-91 -8.17881e-91
4.25325e-27 -2.0563e-89 -2.0563e-89
2.88689e-28 -5.023e-88 -5.023e-88
1.90221e-29 -1.19014e-86 -1.19014e-86
1.21767e-30 -2.73008e-85 -2.73008e-85
7.57805e-32 -6.04997e-84 -6.04997e-84
4.58818e-33 -1.29198e-82 -1.29198e-82
2.70439e-34 -2.6511e-81 -2.6511e-81
1.55282e-35 -5.2095e-80 -5.2095e-80
8.69092e-37 -9.76373e-79 -9.76373e-79
4.74414e-38 -1.73696e-77 -1.73696e-77
2.52723e-39 -2.9158e-76 -2.9158e-76
1.3145e-40 -4.58518e-75 -4.58518e-75
6.67941e-42 -6.69236e-74 -6.69236e-74
3.31736e-43 -8.95883e-73 -8.95883e-73
1.61115e-44 -1.08263e-71 -1.08263e-71
7.65539e-46 -1.15544e-70 -1.15544e-70
3.56028e-47 -1.05509e-69 -1.05509e-69
1.62134e-48 -7.84958e-69 -7.84958e-69
7.2335e-50 -4.37957e-68 -4.37957e-68
3.29767e-51 -1.55853e-67 -1.55853e-67
3.29101e-51 -2.37635e-67 -2.37635e-67
0.0148 -5.89981e-138 -3.18224e-137
0.0166849 -8.60406e-134 4.86585e-133
0.0166251 -2.81437e-132 -1.92235e-131
0.0149406 -2.06062e-130 5.65698e-130
0.0146991 -7.55874e-129 -1.80385e-127
0.00188225 -7.3554e-129 -5.93195e-125
0.000433418 0 -3.91454e-123
7.98302e-05 2.13225e-121 1.68209e-121
1.52589e-05 -1.26954e-121 -1.2974e-121
2.63639e-06 -5.56421e-120 -5.57931e-120
4.22082e-07 -2.1267e-118 -2.12726e-118
6.34547e-08 -7.89388e-117 -7.89387e-117
9.03118e-09 -2.88272e-115 -2.88272e-115
1.22305e-09 -1.03695e-113 -1.03695e-113
1.58094e-10 -3.67289e-112 -3.67289e-112
1.95431e-11 -1.28055e-110 -1.28055e-110
2.31317e-12 -4.39289e-109 -4.39289e-109
2.6238e-13 -1.48216e-107 -1.48216e-107
2.85417e-14 -4.91629e-106 -4.91629e-106
2.97961e-15 -1.6024e-104 -1.6024e-104
2.98739e-16 -5.12951e-103 -5.12951e-103
2.87886e-17 -1.61181e-101 -1.61181e-101
2.66879e-18 -4.96858e-100 -4.96858e-100
2.3821e-19 -1.50158e-98 -1.50158e-98
2.04905e-20 -4.44596e-97 -4.44596e-97
1.70019e-21 -1.2887e-95 -1.2887e-95
1.36206e-22 -3.65382e-94 -3.65382e-94
1.05451e-23 -1.01241e-92 -1.01241e-92
7.89682e-25 -2.73868e-91 -2.73868e-91
5.72512e-26 -7.22466e-90 -7.22466e-90
4.02179e-27 -1.85627e-88 -1.85627e-88
2.73979e-28 -4.63881e-87 -4.63881e-87
1.81145e-29 -1.12571e-85 -1.12571e-85
1.16327e-30 -2.64802e-84 -2.64802e-84
7.26111e-32 -6.0256e-83 -6.0256e-83
4.4086e-33 -1.32322e-81 -1.32322e-81
2.60539e-34 -2.79654e-80 -2.79654e-80
1.49969e-35 -5.66963e-79 -5.66963e-79
8.41315e-37 -1.0984e-77 -1.0984e-77
4.60267e-38 -2.02402e-76 -2.02402e-76
2.45699e-39 -3.52742e-75 -3.52742e-75
1.2805e-40 -5.77324e-74 -5.77324e-74
6.5189e-42 -8.79459e-73 -8.79459e-73
3.24343e-43 -1.23253e-71 -1.23253e-71
1.57792e-44 -1.56463e-70 -1.56463e-70
7.50967e-46 -1.76069e-69 -1.76069e-69
3.49791e-47 -1.70196e-68 -1.70196e-68
1.59528e-48 -1.34564e-67 -1.34564e-67
7.12731e-50 -8.00044e-67 -8.00044e-67
3.25382e-51 -3.02331e-66 -3.02331e-66
3.24722e-51 -4.67945e-66 -4.67945e-66
0.018 -2.01494e-139 -6.80995e-136
0.0204117 -4.91235e-135 7.68179e-132
0.0210604 -7.76275e-134 -3.7475e-130
0.0183609 -6.50918e-132 1.73254e-128
0.0212999 -1.43009e-130 -1.93023e-126
0 -1.36572e-130 -1.94794e-126
0 0 0
0 0 1.68758e-121
1.86405e-06 -9.69869e-120 -7.77894e-120
5.91296e-07 -2.85143e-119 -2.91342e-119
1.26991e-07 -1.22212e-117 -1.22465e-117
2.28982e-08 -4.6298e-116 -4.62981e-116
3.69642e-09 -1.70959e-114 -1.70959e-114
5.49444e-10 -6.22044e-113 -6.22044e-113
7.63111e-11 -2.22956e-111 -2.22956e-111
9.98726e-12 -7.86927e-110 -7.86927e-110
1.2382e-12 -2.73407e-108 -2.73407e-108
1.45935e-13 -9.3471e-107 -9.3471e-107
1.63937e-14 -3.14307e-105 -3.14307e-105
1.75888e-15 -1.03908e-103 -1.03908e-103
1.80543e-16 -3.37564e-102 -3.37564e-102
1.77575e-17 -1.07709e-100 -1.07709e-100
1.67592e-18 -3.37359e-99 -3.37359e-99
1.51975e-19 -1.03662e-97 -1.03662e-97
1.32582e-20 -3.12287e-96 -3.12287e-96
1.11407e-21 -9.21686e-95 -9.21686e-95
9.02719e-23 -2.66299e-93 -2.66299e-93
7.06133e-24 -7.52559e-92 -7.52559e-92
5.33786e-25 -2.0782e-90 -2.0782e-90
3.9033e-26 -5.60212e-89 -5.60212e-89
2.76372e-27 -1.47241e-87 -1.47241e-87
1.8965e-28 -3.76826e-86 -3.76826e-86
1.26237e-29 -9.37663e-85 -9.37663e-85
8.15739e-31 -2.2647e-83 -2.2647e-83
5.12149e-32 -5.29895e-82 -5.29895e-82
3.12643e-33 -1.19843e-80 -1.19843e-80
1.85704e-34 -2.61302e-79 -2.61302e-79
1.07402e-35 -5.47575e-78 -5.47575e-78
6.05216e-37 -1.09881e-76 -1.09881e-76
3.32495e-38 -2.1021e-75 -2.1021e-75
1.78196e-39 -3.81309e-74 -3.81309e-74
9.32183e-41 -6.51406e-73 -6.51406e-73
4.76246e-42 -1.03904e-71 -1.03904e-71
2.37749e-43 -1.53013e-70 -1.53013e-70
1.16033e-44 -2.04912e-69 -2.04912e-69
5.53897e-46 -2.44322e-68 -2.44322e-68
2.58741e-47 -2.51433e-67 -2.51433e-67
1.18327e-48 -2.12676e-66 -2.12676e-66
5.30039e-50 -1.358e-65 -1.358e-65
2.42606e-51 -5.49729e-65 -5.49729e-65
2.42108e-51 -8.64834e-65 -8.64834e-65
0.0196 -5.20487e-140 1.70477e-136
0.0222855 -8.17127e-136 -1.15787e-132
0.0232499 -2.18189e-134 2.02339e-131
0.0204812 -9.91534e-133 -9.71629e-130
0.0235396 -3.37316e-131 -6.89904e-127
0.00697779 -3.27611e-131 -7.10897e-125
0 0 -7.04008e-125
0 0 0
0 0 -7.66868e-120
6.61216e-08 4.0249e-118 2.91395e-118
2.32435e-08 -5.49283e-117 -5.60084e-117
5.4369e-09 -2.30091e-115 -2.30095e-115
1.04918e-09 -8.59383e-114 -8.59383e-114
1.78322e-10 -3.16376e-112 -3.16376e-112
2.75114e-11 -1.14781e-110 -1.14781e-110
3.91825e-12 -4.10246e-109 -4.10246e-109
5.2062e-13 -1.44405e-107 -1.44405e-107
6.49976e-14 -5.00407e-106 -5.00407e-106
7.66413e-15 -1.70648e-104 -1.70648e-104
8.56894e-16 -5.72446e-103 -5.72446e-103
9.11298e-17 -1.88814e-101 -1.88814e-101
9.24283e-18 -6.12054e-100 -6.12054e-100
8.96071e-19 -1.94885e-98 -1.94885e-98
8.32028e-20 -6.09202e-97 -6.09202e-97
7.41253e-21 -1.86842e-95 -1.86842e-95
6.34646e-22 -5.61861e-94 -5.61861e-94
5.22975e-23 -1.65544e-92 -1.65544e-92
4.15345e-24 -4.77512e-91 -4.77512e-91
3.18326e-25 -1.34728e-89 -1.34728e-89
2.35713e-26 -3.7146e-88 -3.7146e-88
1.68823e-27 -9.99711e-87 -9.99711e-87
1.17075e-28 -2.62309e-85 -2.62309e-85
7.86885e-30 -6.70085e-84 -6.70085e-84
5.13066e-31 -1.66394e-82 -1.66394e-82
3.2481e-32 -4.00917e-81 -4.00917e-81
1.99819e-33 -9.35339e-80 -9.35339e-80
1.19547e-34 -2.10776e-78 -2.10776e-78
6.96065e-36 -4.57466e-77 -4.57466e-77
3.94713e-37 -9.52974e-76 -9.52974e-76
2.18133e-38 -1.89747e-74 -1.89747e-74
1.17557e-39 -3.5926e-73 -3.5926e-73
6.18187e-41 -6.42669e-72 -6.42669e-72
3.17389e-42 -1.0773e-70 -1.0773e-70
1.59185e-43 -1.67406e-69 -1.67406e-69
7.80331e-45 -2.37653e-68 -2.37653e-68
3.74061e-46 -3.01943e-67 -3.01943e-67
1.75429e-47 -3.33031e-66 -3.33031e-66
8.053e-49 -3.03779e-65 -3.03779e-65
3.62024e-50 -2.10317e-64 -2.10317e-64
1.66292e-51 -9.22095e-64 -9.22095e-64
1.65947e-51 -1.47657e-63 -1.47657e-63
0.0196 -1.26774e-138 1.04165e-136
0.0223939 -1.82473e-134 -4.22262e-133
0.022996 -7.68526e-133 -1.1653e-133
0.021195 -3.53121e-131 2.41263e-129
0.02169 -1.46749e-129 -1.56301e-127
0.0157469 -6.03066e-128 4.06898e-125
0.00321031 -5.88737e-128 -9.22648e-123
0 0 -9.26733e-123
0 0 0
0 0 3.15703e-118
2.42729e-09 -2.3199e-116 -2.29769e-116
1.80271e-09 -9.3305e-115 -9.33146e-115
5.12869e-10 -3.52701e-113 -3.52701e-113
1.0561e-10 -1.31401e-111 -1.31401e-111
1.81872e-11 -4.82647e-110 -4.82647e-110
2.77506e-12 -1.74731e-108 -1.74731e-108
3.86135e-13 -6.23284e-107 -6.23284e-107
4.98053e-14 -2.18993e-105 -2.18993e-105
6.01605e-15 -7.57614e-104 -7.57614e-104
6.85207e-16 -2.57974e-102 -2.57974e-102
7.39508e-17 -8.64245e-101 -8.64245e-101
7.59097e-18 -2.84735e-99 -2.84735e-99
7.43327e-19 -9.22111e-98 -9.22111e-98
6.96093e-20 -2.93388e-96 -2.93388e-96
6.24712e-21 -9.166e-95 -9.166e-95
5.38303e-22 -2.81017e-93 -2.81017e-93
4.46098e-23 -8.44916e-92 -8.44916e-92
3.56078e-24 -2.48948e-90 -2.48948e-90
2.74138e-25 -7.18241e-89 -7.18241e-89
2.03823e-26 -2.02727e-87 -2.02727e-87
1.46524e-27 -5.59241e-86 -5.59241e-86
1.01956e-28 -1.50609e-84 -1.50609e-84
6.87395e-30 -3.9547e-83 -3.9547e-83
4.49478e-31 -1.01103e-81 -1.01103e-81
2.85305e-32 -2.51235e-80 -2.51235e-80
1.75946e-33 -6.05661e-79 -6.05661e-79
1.05504e-34 -1.4133e-77 -1.4133e-77
6.15603e-36 -3.18375e-76 -3.18375e-76
3.49778e-37 -6.90173e-75 -6.90173e-75
1.93659e-38 -1.43419e-73 -1.43419e-73
1.04549e-39 -2.84319e-72 -2.84319e-72
5.50687e-41 -5.34492e-71 -5.34492e-71
2.8317e-42 -9.45479e-70 -9.45479e-70
1.4223e-43 -1.55776e-68 -1.55776e-68
6.9818e-45 -2.35747e-67 -2.35747e-67
3.35118e-46 -3.21294e-66 -3.21294e-66
1.5736e-47 -3.82844e-65 -3.82844e-65
7.23207e-49 -3.80252e-64 -3.80252e-64
3.25484e-50 -2.88853e-63 -2.88853e-63
1.49674e-51 -1.39116e-62 -1.39116e-62
1.49363e-51 -2.27114e-62 -2.27114e-62
0.018 -3.03086e-137 -7.19229e-136
0.0205446 -5.84243e-133 7.99429e-132
0.0206093 -2.87059e-131 -3.69764e-130
0.0192931 -1.40106e-129 1.88592e-128
0.0183844 -6.52523e-128 -1.19992e-126
0.0151425 -2.67587e-126 7.46387e-125
0.00599883 -6.68152e-125 3.42668e-123
0.000495406 -6.42032e-125 1.23135e-120
0 0 1.22799e-120
0 0 0
0 -7.33887e-116 -7.28933e-116
8.53461e-09 -2.91688e-114 -2.91638e-114
2.01866e-09 -1.11475e-112 -1.11476e-112
3.47498e-10 -4.20319e-111 -4.20319e-111
5.16566e-11 -1.56321e-109 -1.56321e-109
6.99387e-12 -5.73289e-108 -5.73289e-108
8.82588e-13 -2.07266e-106 -2.07266e-106
1.05039e-13 -7.38495e-105 -7.38495e-105
1.18678e-14 -2.59235e-103 -2.59235e-103
1.27821e-15 -8.9622e-102 -8.9622e-102
1.31596e-16 -3.05037e-100 -3.05037e-100
1.29773e-17 -1.02173e-98 -1.02173e-98
1.22786e-18 -3.36655e-97 -3.36655e-97
1.11624e-19 -1.09068e-95 -1.09068e-95
9.76276e-21 -3.47261e-94 -3.47261e-94
8.22461e-22 -1.086e-92 -1.086e-92
6.6816e-23 -3.33394e-91 -3.33394e-91
5.24006e-24 -1.00407e-89 -1.00407e-89
3.97128e-25 -2.96439e-88 -2.96439e-88
2.91135e-26 -8.57283e-87 -8.57283e-87
2.06651e-27 -2.42632e-85 -2.42632e-85
1.42151e-28 -6.71383e-84 -6.71383e-84
9.48445e-30 -1.81427e-82 -1.81427e-82
6.14298e-31 -4.78169e-81 -4.78169e-81
3.86541e-32 -1.22734e-79 -1.22734e-79
2.36476e-33 -3.06269e-78 -3.06269e-78
1.40757e-34 -7.41514e-77 -7.41514e-77
8.15721e-36 -1.73768e-75 -1.73768e-75
4.60562e-37 -3.93009e-74 -3.93009e-74
2.53503e-38 -8.54853e-73 -8.54853e-73
1.3611e-39 -1.7805e-71 -1.7805e-71
7.13275e-41 -3.53149e-70 -3.53149e-70
3.65027e-42 -6.62286e-69 -6.62286e-69
1.82525e-43 -1.1633e-67 -1.1633e-67
8.92222e-45 -1.88904e-66 -1.88904e-66
4.26565e-46 -2.78348e-65 -2.78348e-65
1.99555e-47 -3.61779e-64 -3.61779e-64
9.13906e-49 -3.9597e-63 -3.9597e-63
4.09942e-50 -3.35052e-62 -3.35052e-62
1.87896e-51 -1.80632e-61 -1.80632e-61
1.87512e-51 -3.0118e-61 -3.0118e-61
0.0148 -8.86654e-136 7.54887e-138
0.016512 -1.8396e-131 -3.56879e-133
0.01598 -9.32849e-130 -4.05688e-131
0.0146792 -4.51019e-128 -9.1497e-129
0.0130014 -2.07462e-126 -1.76411e-126
0.00940908 -8.57368e-125 -3.42782e-124
0.00398445 -2.83742e-123 -1.33164e-122
0.000772422 -6.39394e-122 -1.35743e-121
3.52671e-05 -6.11857e-122 -5.95604e-119
4.2144e-06 0 -2.55138e-117
5.39609e-07 -1.57414e-115 -1.59891e-115
7.44311e-08 -6.32219e-114 -6.32216e-114
9.75497e-09 -2.44368e-112 -2.44368e-112
1.22472e-09 -9.32301e-111 -9.32301e-111
1.48e-10 -3.51003e-109 -3.51003e-109
1.72578e-11 -1.30378e-107 -1.30378e-107
1.94387e-12 -4.77672e-106 -4.77672e-106
2.11535e-13 -1.7257e-104 -1.7257e-104
2.22352e-14 -6.14596e-103 -6.14596e-103
2.25685e-15 -2.1571e-101 -2.1571e-101
2.21135e-16 -7.45879e-100 -7.45879e-100
2.09151e-17 -2.53999e-98 -2.53999e-98
1.90959e-18 -8.51532e-97 -8.51532e-97
1.68346e-19 -2.80932e-95 -2.80932e-95
1.43355e-20 -9.11687e-94 -9.11687e-94
1.17973e-21 -2.9089e-92 -2.9089e-92
9.38786e-23 -9.12072e-91 -9.12072e-91
7.22838e-24 -2.80868e-89 -2.80868e-89
5.38889e-25 -8.4894e-88 -8.4894e-88
3.89267e-26 -2.51685e-86 -2.51685e-86
2.72642e-27 -7.31319e-85 -7.31319e-85
1.85287e-28 -2.08091e-83 -2.08091e-83
1.22267e-29 -5.79256e-82 -5.79256e-82
7.83942e-31 -1.57571e-80 -1.57571e-80