# vtk DataFile Version 2.0
Tobias Weinzierl: CPU, Manycore and Cluster Computing
ASCII

DATASET STRUCTURED_POINTS
DIMENSIONS  51 11 6

ORIGIN 0 0 0 

SPACING 0.1 0.1 0.1 

POINT_DATA 3366

VECTORS velocity float
0 0 0
2.90268e-09 0 0
8.3327e-09 0 0
1.51377e-08 0 0
1.68123e-08 0 0
9.45576e-09 0 0
3.34377e-09 0 0
8.84696e-10 0 0
1.939e-10 0 0
3.72204e-11 0 0
6.46306e-12 0 0
1.03565e-12 0 0
1.55104e-13 0 0
2.18886e-14 0 0
2.92601e-15 0 0
3.71765e-16 0 0
4.49971e-17 0 0
5.19673e-18 0 0
5.73419e-19 0 0
6.05216e-20 0 0
6.11675e-21 0 0
5.9262e-22 0 0
5.51e-23 0 0
4.92179e-24 0 0
4.22833e-25 0 0
3.49753e-26 0 0
2.78847e-27 0 0
2.14504e-28 0 0
1.59373e-29 0 0
1.1448e-30 0 0
7.95774e-32 0 0
5.35791e-33 0 0
3.49723e-34 0 0
2.21484e-35 0 0
1.36207e-36 0 0
8.14004e-38 0 0
4.73091e-39 0 0
2.67584e-40 0 0
1.47389e-41 0 0
7.91111e-43 0 0
4.14044e-44 0 0
2.11421e-45 0 0
1.05387e-46 0 0
5.13096e-48 0 0
2.44123e-49 0 0
1.13562e-50 0 0
5.16752e-52 0 0
2.30119e-53 0 0
1.00338e-54 0 0
4.46395e-56 0 0
2.09641e-53 0 0
0 -2.26454e-139 0
7.59677e-09 -1.02481e-137 0
2.53038e-08 -5.73749e-136 0
5.4902e-08 -3.10234e-134 0
7.40213e-08 -1.50862e-132 0
4.28628e-08 -5.93346e-131 0
1.47129e-08 -1.42532e-129 0
3.72684e-09 -9.45127e-130 0
7.85981e-10 -3.54181e-128 0
1.46273e-10 -1.3693e-126 0
2.47849e-11 -5.19539e-125 0
3.89584e-12 -1.94005e-123 0
5.74757e-13 -7.13049e-122 0
8.01746e-14 -2.57867e-120 0
1.0623e-14 -9.17212e-119 0
1.34075e-15 -3.20744e-117 0
1.6148e-16 -1.10222e-115 0
1.85821e-17 -3.72041e-114 0
2.04506e-18 -1.23283e-112 0
2.15449e-19 -4.00839e-111 0
2.17471e-20 -1.27801e-109 0
2.10517e-21 -3.99321e-108 0
1.95626e-22 -1.2219e-106 0
1.74689e-23 -3.65895e-105 0
1.50054e-24 -1.07135e-103 0
1.24118e-25 -3.06466e-102 0
9.89619e-27 -8.55644e-101 0
7.61373e-28 -2.32919e-99 0
5.6579e-29 -6.17468e-98 0
4.06501e-30 -1.59207e-96 0
2.82635e-31 -3.98682e-95 0
1.90345e-32 -9.68078e-94 0
1.24275e-33 -2.27525e-92 0
7.87256e-35 -5.16533e-91 0
4.84269e-36 -1.13006e-89 0
2.89487e-37 -2.37616e-88 0
1.68291e-38 -4.78713e-87 0
9.52111e-40 -9.20707e-86 0
5.24567e-41 -1.68325e-84 0
2.81631e-42 -2.91025e-83 0
1.47433e-43 -4.72888e-82 0
7.53002e-45 -7.16636e-81 0
3.75434e-46 -1.00314e-79 0
1.82828e-47 -1.28106e-78 0
8.70052e-49 -1.46826e-77 0
4.04819e-50 -1.47685e-76 0
1.84245e-51 -1.2625e-75 0
8.20634e-53 -8.73497e-75 0
3.57888e-54 -4.50999e-74 0
1.59251e-55 -1.49048e-73 0
7.47932e-53 -8.70146e-71 0
0 -1.36951e-138 0
7.89187e-09 -6.13592e-137 0
3.01606e-08 -4.22647e-135 0
7.66442e-08 -3.03836e-133 0
1.53314e-07 -2.11609e-131 0
8.69385e-08 -1.35919e-129 0
2.81873e-08 -6.33113e-128 0
6.6869e-09 -7.23922e-129 0
1.34534e-09 -2.67034e-127 0
2.41956e-10 -1.0598e-125 0
3.99842e-11 -4.06742e-124 0
6.1708e-12 -1.53382e-122 0
8.98409e-13 -5.69369e-121 0
1.2416e-13 -2.08029e-119 0
1.63478e-14 -7.47822e-118 0
2.05507e-15 -2.64389e-116 0
2.46947e-16 -9.18906e-115 0
2.83876e-17 -3.13822e-113 0
3.1237e-18 -1.05261e-111 0
3.29231e-19 -3.46573e-110 0
3.32604e-20 -1.11949e-108 0
3.22326e-21 -3.54555e-107 0
2.99907e-22 -1.10026e-105 0
2.68171e-23 -3.34314e-104 0
2.30675e-24 -9.93848e-103 0
1.91069e-25 -2.88822e-101 0
1.52554e-26 -8.19754e-100 0
1.17526e-27 -2.27009e-98 0
8.74489e-29 -6.12664e-97 0
6.29077e-30 -1.60948e-95 0
4.37913e-31 -4.10995e-94 0
2.95257e-32 -1.0186e-92 0
1.92983e-33 -2.44585e-91 0
1.22379e-34 -5.67886e-90 0
7.53546e-36 -1.2721e-88 0
4.50885e-37 -2.74211e-87 0
2.62356e-38 -5.67083e-86 0
1.48558e-39 -1.12119e-84 0
8.19158e-41 -2.11043e-83 0
4.40139e-42 -3.76316e-82 0
2.30585e-43 -6.31809e-81 0
1.17855e-44 -9.91307e-80 0
5.8801e-46 -1.43983e-78 0
2.86536e-47 -1.91251e-77 0
1.36445e-48 -2.2859e-76 0
6.35237e-50 -2.40444e-75 0
2.89284e-51 -2.15562e-74 0
1.2892e-52 -1.56819e-73 0
5.62536e-54 -8.52472e-73 0
2.50448e-55 -2.95383e-72 0
1.17458e-52 -1.77784e-69 0
0 -9.14538e-140 0
3.86497e-09 -4.13867e-138 0
2.80965e-08 -2.21725e-136 0
4.74883e-08 -1.1366e-134 0
1.99123e-07 -4.23398e-133 0
5.35315e-08 -4.12249e-133 0
1.68182e-08 0 0
3.84475e-09 2.81257e-126 0
8.68923e-10 -1.57286e-126 0
1.6833e-10 -7.08773e-125 0
2.93211e-11 -2.78465e-123 0
4.70891e-12 -1.0621e-121 0
7.07491e-13 -3.98392e-120 0
1.00319e-13 -1.47135e-118 0
1.34952e-14 -5.34836e-117 0
1.72765e-15 -1.91276e-115 0
2.10876e-16 -6.72752e-114 0
2.45724e-17 -2.32603e-112 0
2.73619e-18 -7.90205e-111 0
2.91419e-19 -2.63639e-109 0
2.97146e-20 -8.6336e-108 0
2.90352e-21 -2.77355e-106 0
2.72165e-22 -8.73516e-105 0
2.44993e-23 -2.69527e-103 0
2.12014e-24 -8.14165e-102 0
1.76578e-25 -2.40576e-100 0
1.41692e-26 -6.9477e-99 0
1.0966e-27 -1.95911e-97 0
8.19416e-29 -5.38823e-96 0
5.9176e-30 -1.44374e-94 0
4.13424e-31 -3.76369e-93 0
2.7968e-32 -9.53195e-92 0
1.83372e-33 -2.34137e-90 0
1.16622e-34 -5.56747e-89 0
7.20057e-36 -1.27882e-87 0
4.31945e-37 -2.83035e-86 0
2.51938e-38 -6.01864e-85 0
1.4298e-39 -1.22549e-83 0
7.90077e-41 -2.37971e-82 0
4.25366e-42 -4.38571e-81 0
2.23268e-43 -7.62602e-80 0
1.1432e-44 -1.24201e-78 0
5.71347e-46 -1.87718e-77 0
2.78867e-47 -2.60168e-76 0
1.32998e-48 -3.25428e-75 0
6.20096e-50 -3.59382e-74 0
2.82783e-51 -3.39407e-73 0
1.26191e-52 -2.60943e-72 0
5.51332e-54 -1.50203e-71 0
2.45771e-55 -5.48992e-71 0
1.14674e-52 -3.41126e-68 0
0 -3.97657e-141 0
-3.18542e-09 -1.81778e-139 0
3.45908e-08 -7.97346e-138 0
6.67371e-09 -3.23594e-136 0
1.83469e-07 -8.50873e-135 0
0 -8.19292e-135 0
0 0 0
0 0 0
1.15667e-10 -1.31109e-124 0
4.01706e-11 -3.73057e-124 0
9.23615e-12 -1.64282e-122 0
1.76076e-12 -6.39257e-121 0
2.97996e-13 -2.42365e-119 0
4.6154e-14 -9.05046e-118 0
6.64672e-15 -3.32764e-116 0
8.98223e-16 -1.20423e-114 0
1.14553e-16 -4.28762e-113 0
1.38396e-17 -1.50135e-111 0
1.58835e-18 -5.16788e-110 0
1.73552e-19 -1.74784e-108 0
1.80881e-20 -5.80537e-107 0
1.80128e-21 -1.8926e-105 0
1.71664e-22 -6.05245e-104 0
1.56797e-23 -1.89745e-102 0
1.37458e-24 -5.82739e-101 0
1.15817e-25 -1.75191e-99 0
9.3908e-27 -5.15138e-98 0
7.33669e-28 -1.48018e-96 0
5.52938e-29 -4.15186e-95 0
4.02456e-30 -1.1356e-93 0
2.83197e-31 -3.02495e-92 0
1.92854e-32 -7.83636e-91 0
1.2722e-33 -1.97118e-89 0
8.13704e-35 -4.8059e-88 0
5.05058e-36 -1.13335e-86 0
3.04466e-37 -2.5791e-85 0
1.78403e-38 -5.64786e-84 0
1.01684e-39 -1.18632e-82 0
5.64162e-41 -2.38091e-81 0
3.04894e-42 -4.5445e-80 0
1.6061e-43 -8.20283e-79 0
8.25161e-45 -1.39028e-77 0
4.13721e-46 -2.19286e-76 0
2.02546e-47 -3.18147e-75 0
9.6877e-49 -4.18004e-74 0
4.52923e-50 -4.86699e-73 0
2.07085e-51 -4.86567e-72 0
9.26407e-53 -3.9757e-71 0
4.05707e-54 -2.43906e-70 0
1.81279e-55 -9.47064e-70 0
8.37068e-53 -6.08371e-67 0
0 -8.11247e-142 0
-7.78172e-09 -3.71457e-140 0
3.67152e-08 -1.33771e-138 0
1.16897e-09 -4.43917e-137 0
1.40477e-07 -1.04277e-135 0
9.43358e-08 -9.99679e-136 0
0 0 0
0 0 0
0 0 0
4.74385e-12 5.60233e-123 0
1.76962e-12 -7.57618e-122 0
4.3467e-13 -3.25813e-120 0
8.74841e-14 -1.24895e-118 0
1.54266e-14 -4.71684e-117 0
2.45851e-15 -1.75466e-115 0
3.6032e-16 -6.42722e-114 0
4.90951e-17 -2.31729e-112 0
6.26491e-18 -8.22045e-111 0
7.52721e-19 -2.86807e-109 0
8.55014e-20 -9.8371e-108 0
9.2123e-21 -3.31529e-106 0
9.44121e-22 -1.09731e-104 0
9.22571e-23 -3.56494e-103 0
8.6142e-24 -1.13613e-101 0
7.70039e-25 -3.54952e-100 0
6.60175e-26 -1.08636e-98 0
5.43696e-27 -3.25459e-97 0
4.30781e-28 -9.53607e-96 0
3.28824e-29 -2.73012e-94 0
2.42127e-30 -7.62911e-93 0
1.72194e-31 -2.07845e-91 0
1.18409e-32 -5.5132e-90 0
7.88148e-34 -1.42175e-88 0
5.083e-35 -3.55843e-87 0
3.1793e-36 -8.62722e-86 0
1.93033e-37 -2.02155e-84 0
1.13864e-38 -4.56631e-83 0
6.53037e-40 -9.91226e-82 0
3.64434e-41 -2.06021e-80 0
1.98033e-42 -4.08185e-79 0
1.04856e-43 -7.66734e-78 0
5.41329e-45 -1.35622e-76 0
2.72655e-46 -2.23952e-75 0
1.34061e-47 -3.41372e-74 0
6.43836e-49 -4.73101e-73 0
3.02177e-50 -5.83605e-72 0
1.3867e-51 -6.21119e-71 0
6.2252e-53 -5.42967e-70 0
2.73532e-54 -3.57806e-69 0
1.22623e-55 -1.48893e-68 0
5.59039e-53 -9.90271e-66 0
0 -1.94893e-140 0
-4.93529e-09 -8.82705e-139 0
3.09628e-08 -3.48209e-137 0
1.7013e-08 -1.31321e-135 0
1.20285e-07 -4.25891e-134 0
2.6661e-07 -9.66139e-133 0
9.36762e-08 -9.2483e-133 0
0 0 0
0 0 0
0 0 0
1.92302e-13 -3.28383e-121 0
1.47933e-13 -1.35391e-119 0
4.35527e-14 -5.25042e-118 0
9.25262e-15 -2.00582e-116 0
1.63919e-15 -7.55101e-115 0
2.56605e-16 -2.80024e-113 0
3.65352e-17 -1.02262e-111 0
4.80932e-18 -3.67623e-110 0
5.91307e-19 -1.30045e-108 0
6.83737e-20 -4.52488e-107 0
7.47257e-21 -1.54793e-105 0
7.74843e-22 -5.20373e-104 0
7.64645e-23 -1.71822e-102 0
7.20001e-24 -5.56928e-101 0
6.48347e-25 -1.77098e-99 0
5.59429e-26 -5.5212e-98 0
4.63361e-27 -1.68635e-96 0
3.69008e-28 -5.04206e-95 0
2.82969e-29 -1.47447e-93 0
2.09231e-30 -4.21315e-92 0
1.49366e-31 -1.17503e-90 0
1.03069e-32 -3.19467e-89 0
6.88232e-34 -8.45556e-88 0
4.45169e-35 -2.17526e-86 0
2.79203e-36 -5.42937e-85 0
1.69949e-37 -1.31203e-83 0
1.00483e-38 -3.06223e-82 0
5.77564e-40 -6.88291e-81 0
3.22978e-41 -1.48473e-79 0
1.75844e-42 -3.06092e-78 0
9.32757e-44 -5.99994e-77 0
4.82367e-45 -1.11106e-75 0
2.43348e-46 -1.9277e-74 0
1.19833e-47 -3.1e-73 0
5.7633e-49 -4.55348e-72 0
2.70862e-50 -5.98454e-71 0
1.2446e-51 -6.82561e-70 0
5.59413e-53 -6.43436e-69 0
2.4609e-54 -4.59802e-68 0
1.10448e-55 -2.07318e-67 0
5.03919e-53 -1.42996e-64 0
0 -4.86864e-139 0
1.02846e-09 -2.1857e-137 0
2.46044e-08 -9.34628e-136 0
3.07111e-08 -3.83942e-134 0
1.43998e-07 -1.43314e-132 0
3.34931e-07 -4.40428e-131 0
1.97244e-07 -8.90445e-130 0
2.21583e-08 -8.47798e-130 0
0 0 0
0 0 0
0 -1.06314e-120 0
6.68353e-13 -4.33243e-119 0
1.64809e-13 -1.698e-117 0
2.94148e-14 -6.56235e-116 0
4.51523e-15 -2.50027e-114 0
6.29235e-16 -9.38835e-113 0
8.14993e-17 -3.4732e-111 0
9.92803e-18 -1.26551e-109 0
1.14507e-18 -4.5398e-108 0
1.25557e-19 -1.60281e-106 0
1.31251e-20 -5.56706e-105 0
1.31079e-21 -1.9014e-103 0
1.25283e-22 -6.38299e-102 0
1.14774e-23 -2.10501e-100 0
1.00926e-24 -6.81591e-99 0
8.53003e-26 -2.16556e-97 0
6.93797e-27 -6.74697e-96 0
5.43719e-28 -2.05979e-94 0
4.11034e-29 -6.15692e-93 0
3.00068e-30 -1.8003e-91 0
2.11768e-31 -5.14441e-90 0
1.44622e-32 -1.43499e-88 0
9.56658e-34 -3.90245e-87 0
6.13515e-35 -1.03317e-85 0
3.81783e-36 -2.65848e-84 0
2.30722e-37 -6.63573e-83 0
1.35515e-38 -1.6031e-81 0
7.7417e-40 -3.73844e-80 0
4.30474e-41 -8.38866e-79 0
2.33139e-42 -1.80419e-77 0
1.23062e-43 -3.70153e-76 0
6.33499e-45 -7.20062e-75 0
3.18227e-46 -1.3179e-73 0
1.56078e-47 -2.24636e-72 0
7.47827e-49 -3.51642e-71 0
3.50217e-50 -4.95618e-70 0
1.60387e-51 -6.10556e-69 0
7.18623e-53 -6.26632e-68 0
3.15186e-54 -4.91341e-67 0
1.41046e-55 -2.43461e-66 0
6.54311e-53 -1.74461e-63 0
0 -9.38535e-138 0
4.63113e-09 -4.17848e-136 0
1.9442e-08 -1.90003e-134 0
4.98869e-08 -8.27948e-133 0
1.6484e-07 -3.39518e-131 0
2.59219e-07 -1.25125e-129 0
1.55643e-07 -3.88091e-128 0
3.66e-08 -8.71276e-127 0
2.07147e-09 -8.33685e-127 0
2.72041e-10 0 0
3.77002e-11 -2.33127e-120 0
5.55881e-12 -9.5969e-119 0
7.67341e-13 -3.80269e-117 0
1.00536e-13 -1.48647e-115 0
1.26015e-14 -5.73085e-114 0
1.51756e-15 -2.17853e-112 0
1.75926e-16 -8.16332e-111 0
1.96444e-17 -3.01436e-109 0
2.11276e-18 -1.0965e-107 0
2.18801e-19 -3.9279e-106 0
2.18143e-20 -1.38512e-104 0
2.09364e-21 -4.80641e-103 0
1.93462e-22 -1.6405e-101 0
1.72176e-23 -5.50494e-100 0
1.47655e-24 -1.81526e-98 0
1.22093e-25 -5.87889e-97 0
9.74125e-27 -1.86883e-95 0
7.505e-28 -5.82744e-94 0
5.58792e-29 -1.78119e-92 0
4.02412e-30 -5.33238e-91 0
2.80524e-31 -1.56216e-89 0
1.89455e-32 -4.47391e-88 0
1.24058e-33 -1.25118e-86 0
7.88256e-35 -3.4124e-85 0
4.86369e-36 -9.06285e-84 0
2.91635e-37 -2.33984e-82 0
1.70059e-38 -5.86066e-81 0
9.65028e-40 -1.42071e-79 0
5.33273e-41 -3.32359e-78 0
2.87146e-42 -7.47701e-77 0
1.50753e-43 -1.61054e-75 0
7.72128e-45 -3.30329e-74 0
3.86029e-46 -6.4055e-73 0
1.88491e-47 -1.16325e-71 0
8.99351e-49 -1.95274e-70 0
4.19516e-50 -2.97406e-69 0
1.91407e-51 -3.9945e-68 0
8.54591e-53 -4.51611e-67 0
3.7357e-54 -3.94377e-66 0
1.66623e-55 -2.18808e-65 0
7.84278e-53 -1.63217e-62 0
0 -1.04169e-136 0
4.36696e-09 -4.60266e-135 0
1.51004e-08 -2.15552e-133 0
4.86005e-08 -9.77536e-132 0
1.11288e-07 -4.38411e-130 0
1.24061e-07 -1.94436e-128 0
6.55387e-08 -8.52758e-127 0
1.84262e-08 -3.69855e-125 0
2.84952e-09 -1.58624e-123 0
3.97173e-10 -6.72651e-122 0
5.59927e-11 -2.81835e-120 0
7.45745e-12 -1.14323e-118 0
9.48951e-13 -4.57562e-117 0
1.16221e-13 -1.80742e-115 0
1.37601e-14 -7.0447e-114 0
1.57829e-15 -2.70867e-112 0
1.75471e-16 -1.02714e-110 0
1.89011e-17 -3.8403e-109 0
1.97078e-18 -1.41527e-107 0
1.98709e-19 -5.13948e-106 0
1.93577e-20 -1.8385e-104 0
1.82087e-21 -6.47628e-103 0
1.65331e-22 -2.24565e-101 0
1.44893e-23 -7.66191e-100 0
1.22583e-24 -2.57114e-98 0
1.00151e-25 -8.48211e-97 0
7.90545e-27 -2.74946e-95 0
6.03251e-28 -8.75215e-94 0
4.45298e-29 -2.73424e-92 0
3.18189e-30 -8.37747e-91 0
2.20247e-31 -2.51544e-89 0
1.47789e-32 -7.39544e-88 0
9.6205e-34 -2.12687e-86 0
6.07977e-35 -5.97672e-85 0
3.73265e-36 -1.63898e-83 0
2.22786e-37 -4.37953e-82 0
1.29357e-38 -1.13832e-80 0
7.31146e-40 -2.87197e-79 0
4.02538e-41 -7.01593e-78 0
2.16003e-42 -1.65442e-76 0
1.13036e-43 -3.75141e-75 0
5.77198e-45 -8.13989e-74 0
2.87752e-46 -1.67942e-72 0
1.40128e-47 -3.26678e-71 0
6.66907e-49 -5.92063e-70 0
3.10348e-50 -9.82765e-69 0
1.41279e-51 -1.45506e-67 0
6.29431e-53 -1.83844e-66 0
2.74588e-54 -1.82266e-65 0
1.22229e-55 -1.16173e-64 0
5.79994e-53 -9.03957e-62 0
0 0 0
1.77048e-09 0 0
6.33142e-09 0 0
1.75153e-08 0 0
3.01884e-08 0 0
2.74981e-08 0 0
1.34628e-08 0 0
3.98463e-09 0 0
7.78049e-10 0 0
1.25131e-10 0 0
1.82925e-11 0 0
2.49127e-12 0 0
3.2109e-13 0 0
3.95655e-14 0 0
4.69085e-15 0 0
5.37019e-16 0 0
5.94634e-17 0 0
6.37094e-18 0 0
6.60279e-19 0 0
6.61569e-20 0 0
6.40468e-21 0 0
5.98836e-22 0 0
5.40637e-23 0 0
4.71285e-24 0 0
3.96752e-25 0 0
3.22669e-26 0 0
2.53628e-27 0 0
1.92789e-28 0 0
1.41801e-29 0 0
1.0099e-30 0 0
6.96915e-32 0 0
4.66323e-33 0 0
3.02765e-34 0 0
1.90871e-35 0 0
1.1692e-36 0 0
6.96379e-38 0 0
4.03546e-39 0 0
2.27672e-40 0 0
1.25131e-41 0 0
6.70369e-43 0 0
3.50276e-44 0 0
1.78606e-45 0 0
8.89207e-47 0 0
4.3247e-48 0 0
2.05575e-49 0 0
9.55557e-51 0 0
4.34525e-52 0 0
1.93391e-53 0 0
8.42838e-55 0 0
3.74815e-56 0 0
1.78527e-53 0 0
0 0 -3.7161e-140
7.94091e-09 0 -1.66831e-138
2.59721e-08 0 -9.32675e-137
5.35999e-08 0 -4.90729e-135
6.72686e-08 0 -2.24793e-133
4.01291e-08 0 -7.85047e-132
1.4218e-08 0 -1.51223e-130
3.69489e-09 0 -5.03861e-130
7.93829e-10 0 -1.94124e-128
1.49735e-10 0 -7.46995e-127
2.56217e-11 0 -2.82811e-125
4.05597e-12 0 -1.05409e-123
6.01375e-13 0 -3.86694e-122
8.41722e-14 0 -1.39575e-120
1.11769e-14 0 -4.9548e-119
1.41243e-15 0 -1.72918e-117
1.70214e-16 0 -5.93e-116
1.95895e-17 0 -1.99738e-114
2.15549e-18 0 -6.60445e-113
2.26987e-19 0 -2.14261e-111
2.28989e-20 0 -6.81593e-110
2.21524e-21 0 -2.12474e-108
2.05714e-22 0 -6.48619e-107
1.83567e-23 0 -1.93755e-105
1.57569e-24 0 -5.65908e-104
1.30243e-25 0 -1.61468e-102
1.03776e-26 0 -4.49635e-101
7.97886e-28 0 -1.22069e-99
5.92551e-29 0 -3.22715e-98
4.25473e-30 0 -8.29735e-97
2.95656e-31 0 -2.07178e-95
1.99005e-32 0 -5.01574e-94
1.29861e-33 0 -1.17524e-92
8.22234e-35 0 -2.6597e-91
5.05546e-36 0 -5.80012e-90
3.0207e-37 0 -1.21556e-88
1.7553e-38 0 -2.44061e-87
9.92662e-40 0 -4.67765e-86
5.46695e-41 0 -8.52115e-85
2.93402e-42 0 -1.46784e-83
1.5354e-43 0 -2.37609e-82
7.83928e-45 0 -3.58686e-81
3.90726e-46 0 -5.00087e-80
1.90215e-47 0 -6.36025e-79
9.04939e-49 0 -7.25922e-78
4.20931e-50 0 -7.27052e-77
1.91526e-51 0 -6.18831e-76
8.52839e-53 0 -4.26295e-75
3.71839e-54 0 -2.19172e-74
1.65417e-55 0 -7.21672e-74
7.77831e-53 0 -4.20281e-71
0.0036 -2.33499e-139 -5.40151e-140
0.00495195 -2.6181e-135 -9.65758e-136
0.00485218 -1.75036e-133 -1.00454e-133
0.00402206 -1.36837e-131 -1.00117e-131
0.00262941 -1.06303e-129 -8.56726e-130
0.000989786 -7.24515e-128 -5.38805e-128
0.000254164 -1.91241e-126 -1.57248e-126
5.22789e-05 -1.20876e-126 -1.20202e-126
9.41875e-06 -4.58214e-125 -4.58365e-125
1.5465e-06 -1.80178e-123 -1.80185e-123
2.36098e-07 -6.9528e-122 -6.95281e-122
3.39032e-08 -2.64127e-120 -2.64127e-120
4.61183e-09 -9.87923e-119 -9.87922e-119
5.9688e-10 -3.63712e-117 -3.63712e-117
7.36986e-11 -1.31751e-115 -1.31751e-115
8.69633e-12 -4.69388e-114 -4.69388e-114
9.81823e-13 -1.64402e-112 -1.64402e-112
1.06158e-13 -5.65825e-111 -5.65825e-111
1.10017e-14 -1.91268e-109 -1.91268e-109
1.09374e-15 -6.34684e-108 -6.34684e-108
1.04397e-16 -2.06626e-106 -2.06626e-106
9.57585e-18 -6.59569e-105 -6.59569e-105
8.44857e-19 -2.063e-103 -2.063e-103
7.17664e-20 -6.31817e-102 -6.31817e-102
5.87505e-21 -1.89323e-100 -1.89323e-100
4.63953e-22 -5.54584e-99 -5.54584e-99
3.53771e-23 -1.58667e-97 -1.58667e-97
2.60715e-24 -4.42912e-96 -4.42912e-96
1.85867e-25 -1.20497e-94 -1.20497e-94
1.28297e-26 -3.191e-93 -3.191e-93
8.58185e-28 -8.21426e-92 -8.21426e-92
5.56748e-29 -2.05225e-90 -2.05225e-90
3.50587e-30 -4.96769e-89 -4.96769e-89
2.1445e-31 -1.16275e-87 -1.16275e-87
1.27517e-32 -2.6257e-86 -2.6257e-86
7.3762e-34 -5.70566e-85 -5.70566e-85
4.15347e-35 -1.18949e-83 -1.18949e-83
2.27818e-36 -2.37074e-82 -2.37074e-82
1.21796e-37 -4.49837e-81 -4.49837e-81
6.35046e-39 -8.0855e-80 -8.0855e-80
3.23114e-40 -1.36834e-78 -1.36834e-78
1.60518e-41 -2.16399e-77 -2.16399e-77
7.79e-43 -3.16795e-76 -3.16795e-76
3.69503e-44 -4.24091e-75 -4.24091e-75
1.71386e-45 -5.10818e-74 -5.10818e-74
7.77706e-47 -5.41418e-73 -5.41418e-73
3.45408e-48 -4.89028e-72 -4.89028e-72
1.50215e-49 -3.58346e-71 -3.58346e-71
6.39987e-51 -1.96127e-70 -1.96127e-70
2.78107e-52 -6.83499e-70 -6.83499e-70
2.77516e-52 -1.03631e-69 -1.03631e-69
0.01 -1.35047e-138 -2.24671e-140
0.0111649 -1.48547e-134 -3.83433e-136
0.0107622 -9.15269e-133 -8.55133e-134
0.00947685 -8.1194e-131 -1.16792e-131
0.00725622 -7.48301e-129 -3.90196e-129
0.00243172 -1.71141e-126 -1.11482e-126
0.000551147 -8.6501e-125 -7.08037e-125
0.000101629 -9.53275e-126 -9.62465e-126
1.69751e-05 -3.51033e-124 -3.51828e-124
2.64529e-06 -1.41718e-122 -1.41763e-122
3.89345e-07 -5.5334e-121 -5.53355e-121
5.44889e-08 -2.12351e-119 -2.12351e-119
7.27971e-09 -8.0248e-118 -8.0248e-118
9.30528e-10 -2.98597e-116 -2.98597e-116
1.13938e-10 -1.09358e-114 -1.09358e-114
1.33718e-11 -3.94063e-113 -3.94063e-113
1.50471e-12 -1.39652e-111 -1.39652e-111
1.62402e-13 -4.86528e-110 -4.86528e-110
1.6818e-14 -1.66549e-108 -1.66549e-108
1.67194e-15 -5.59934e-107 -5.59934e-107
1.59664e-16 -1.8478e-105 -1.8478e-105
1.46571e-17 -5.98197e-104 -5.98197e-104
1.29449e-18 -1.89861e-102 -1.89861e-102
1.10088e-19 -5.90381e-101 -5.90381e-101
9.02329e-21 -1.79729e-99 -1.79729e-99
7.1347e-22 -5.35229e-98 -5.35229e-98
5.44723e-23 -1.55783e-96 -1.55783e-96
4.01943e-24 -4.42727e-95 -4.42727e-95
2.86902e-25 -1.22723e-93 -1.22723e-93
1.98274e-26 -3.31419e-92 -3.31419e-92
1.3278e-27 -8.70792e-91 -8.70792e-91
8.62375e-29 -2.22278e-89 -2.22278e-89
5.43625e-30 -5.50303e-88 -5.50303e-88
3.32871e-31 -1.31888e-86 -1.31888e-86
1.98129e-32 -3.05331e-85 -3.05331e-85
1.14716e-33 -6.81104e-84 -6.81104e-84
6.46538e-35 -1.45975e-82 -1.45975e-82
3.54934e-36 -2.99563e-81 -2.99563e-81
1.89912e-37 -5.86262e-80 -5.86262e-80
9.90996e-39 -1.0889e-78 -1.0889e-78
5.04608e-40 -1.90813e-77 -1.90813e-77
2.50865e-41 -3.13168e-76 -3.13168e-76
1.21831e-42 -4.76959e-75 -4.76959e-75
5.78269e-44 -6.66076e-74 -6.66076e-74
2.68391e-45 -8.3943e-73 -8.3943e-73
1.21865e-46 -9.33901e-72 -9.33901e-72
5.41567e-48 -8.88416e-71 -8.88416e-71
2.35658e-49 -6.87857e-70 -6.87857e-70
1.00457e-50 -3.98578e-69 -3.98578e-69
4.36775e-52 -1.46506e-68 -1.46506e-68
4.35847e-52 -2.25169e-68 -2.25169e-68
0.0148 -8.09091e-140 -5.47105e-139
0.0167142 -1.16607e-135 8.36741e-135
0.0165297 -4.06805e-134 -3.41215e-133
0.0149721 -3.02118e-132 1.07621e-131
0.0141001 -1.39915e-130 -4.03647e-129
0.00163816 -1.36933e-130 -1.0637e-126
0.000350807 0 -6.92661e-125
6.11909e-05 3.91039e-123 3.11563e-123
1.11244e-05 -2.10248e-123 -2.14708e-123
1.84175e-06 -9.63803e-122 -9.66336e-122
2.83847e-07 -3.85347e-120 -3.85446e-120
4.11997e-08 -1.49626e-118 -1.49625e-118
5.67061e-09 -5.71578e-117 -5.71578e-117
7.43083e-10 -2.15067e-115 -2.15067e-115
9.29257e-11 -7.96799e-114 -7.96799e-114
1.11053e-11 -2.90565e-112 -2.90565e-112
1.26948e-12 -1.04253e-110 -1.04253e-110
1.38912e-13 -3.67878e-109 -3.67878e-109
1.45609e-14 -1.27613e-107 -1.27613e-107
1.4632e-15 -4.34971e-106 -4.34971e-106
1.41074e-16 -1.45604e-104 -1.45604e-104
1.30622e-17 -4.78407e-103 -4.78407e-103
1.16258e-18 -1.54197e-101 -1.54197e-101
9.95635e-20 -4.87227e-100 -4.87227e-100
8.21265e-21 -1.5082e-98 -1.5082e-98
6.53146e-22 -4.57015e-97 -4.57015e-97
5.01319e-23 -1.35451e-95 -1.35451e-95
3.71723e-24 -3.923e-94 -3.923e-94
2.66526e-25 -1.10917e-92 -1.10917e-92
1.8496e-26 -3.058e-91 -3.058e-91
1.24342e-27 -8.21087e-90 -8.21087e-90
8.10469e-29 -2.14411e-88 -2.14411e-88
5.12613e-30 -5.4365e-87 -5.4365e-87
3.14863e-31 -1.33607e-85 -1.33607e-85
1.87959e-32 -3.17597e-84 -3.17597e-84
1.09126e-33 -7.28504e-83 -7.28504e-83
6.16623e-35 -1.60803e-81 -1.60803e-81
3.39334e-36 -3.40446e-80 -3.40446e-80
1.81982e-37 -6.88677e-79 -6.88677e-79
9.51671e-39 -1.32487e-77 -1.32487e-77
4.85578e-40 -2.41015e-76 -2.41015e-76
2.41873e-41 -4.11679e-75 -4.11679e-75
1.17681e-42 -6.54361e-74 -6.54361e-74
5.59551e-44 -9.5665e-73 -9.5665e-73
2.60137e-45 -1.26645e-71 -1.26645e-71
1.18305e-46 -1.48561e-70 -1.48561e-70
5.26544e-48 -1.49609e-69 -1.49609e-69
2.29453e-49 -1.23114e-68 -1.23114e-68
9.79471e-51 -7.60372e-68 -7.60372e-68
4.26448e-52 -2.96948e-67 -2.96948e-67
4.25537e-52 -4.63162e-67 -4.63162e-67
0.018 -2.70645e-141 -1.23888e-137
0.0205079 -6.29268e-137 1.39668e-133
0.0209169 -1.12993e-135 -6.9914e-132
0.0184991 -8.87546e-134 3.40865e-130
0.0208219 -2.61861e-132 -3.86463e-128
0 -2.53092e-132 -3.89943e-128
0 0 0
0 0 3.12416e-123
1.31729e-06 -1.85293e-121 -1.49708e-121
4.01801e-07 -5.15997e-121 -5.26791e-121
8.33485e-08 -2.31305e-119 -2.31765e-119
1.45437e-08 -9.16616e-118 -9.16619e-118
2.27366e-09 -3.54059e-116 -3.54059e-116
3.27272e-10 -1.34756e-114 -1.34756e-114
4.39885e-11 -5.05209e-113 -5.05209e-113
5.56589e-12 -1.86507e-111 -1.86507e-111
6.66366e-13 -6.77734e-110 -6.77734e-110
7.57524e-14 -2.42324e-108 -2.42324e-108
8.1984e-15 -8.52162e-107 -8.52162e-107
8.4652e-16 -2.94608e-105 -2.94608e-105
8.35448e-17 -1.00082e-103 -1.00082e-103
7.89393e-18 -3.33913e-102 -3.33913e-102
7.15191e-19 -1.09354e-100 -1.09354e-100
6.22192e-20 -3.51313e-99 -3.51313e-99
5.2046e-21 -1.10646e-97 -1.10646e-97
4.19146e-22 -3.41382e-96 -3.41382e-96
3.25376e-23 -1.03104e-94 -1.03104e-94
2.43752e-24 -3.04556e-93 -3.04556e-93
1.76414e-25 -8.79023e-92 -8.79023e-92
1.23477e-26 -2.47639e-90 -2.47639e-90
8.36654e-28 -6.8016e-89 -6.8016e-89
5.49306e-29 -1.81888e-87 -1.81888e-87
3.49771e-30 -4.7288e-86 -4.7288e-86
2.16183e-31 -1.1932e-84 -1.1932e-84
1.29802e-32 -2.9164e-83 -2.9164e-83
7.57699e-34 -6.88932e-82 -6.88932e-82
4.30315e-35 -1.56878e-80 -1.56878e-80
2.37934e-36 -3.43294e-79 -3.43294e-79
1.28172e-37 -7.19265e-78 -7.19265e-78
6.73093e-39 -1.43648e-76 -1.43648e-76
3.44799e-40 -2.71978e-75 -2.71978e-75
1.72393e-41 -4.84888e-74 -4.84888e-74
8.41733e-43 -8.06982e-73 -8.06982e-73
4.01572e-44 -1.23965e-71 -1.23965e-71
1.87287e-45 -1.73119e-70 -1.73119e-70
8.5432e-47 -2.1517e-69 -2.1517e-69
3.81332e-48 -2.30698e-68 -2.30698e-68
1.6663e-49 -2.0312e-67 -2.0312e-67
7.13157e-51 -1.34764e-66 -1.34764e-66
3.11304e-52 -5.64094e-66 -5.64094e-66
3.10632e-52 -8.94001e-66 -8.94001e-66
0.0196 -6.80723e-142 3.07891e-138
0.0224094 -1.05118e-137 -2.08134e-134
0.0231389 -2.99964e-136 4.25982e-133
0.0205245 -1.40357e-134 -1.56386e-131
0.0233519 -5.24448e-133 -1.29536e-128
0.00668162 -5.10702e-133 -1.51211e-126
0 0 -1.49918e-126
0 0 0
0 0 -1.47871e-121
4.37168e-08 8.07653e-120 5.95649e-120
1.48523e-08 -1.0856e-118 -1.10615e-118
3.36168e-09 -4.75593e-117 -4.75602e-117
6.2792e-10 -1.85816e-115 -1.85816e-115
1.03284e-10 -7.15565e-114 -7.15565e-114
1.5412e-11 -2.71547e-112 -2.71547e-112
2.12116e-12 -1.01516e-110 -1.01516e-110
2.72073e-13 -3.73734e-109 -3.73734e-109
3.27549e-14 -1.35449e-107 -1.35449e-107
3.72048e-15 -4.83065e-106 -4.83065e-106
4.0031e-16 -1.69461e-104 -1.69461e-104
4.09334e-17 -5.84489e-103 -5.84489e-103
3.98869e-18 -1.98114e-101 -1.98114e-101
3.71258e-19 -6.59575e-100 -6.59575e-100
3.30764e-20 -2.15566e-98 -2.15566e-98
2.82597e-21 -6.91189e-97 -6.91189e-97
2.31931e-22 -2.17284e-95 -2.17284e-95
1.83132e-23 -6.69207e-94 -6.69207e-94
1.39316e-24 -2.01765e-92 -2.01765e-92
1.02245e-25 -5.94979e-91 -5.94979e-91
7.24811e-27 -1.71437e-89 -1.71437e-89
4.96868e-28 -4.82144e-88 -4.82144e-88
3.2973e-29 -1.32187e-86 -1.32187e-86
2.12037e-30 -3.52806e-85 -3.52806e-85
1.32256e-31 -9.15236e-84 -9.15236e-84
8.00847e-33 -2.30352e-82 -2.30352e-82
4.71177e-34 -5.61308e-81 -5.61308e-81
2.69564e-35 -1.32098e-79 -1.32098e-79
1.50075e-36 -2.99378e-78 -2.99378e-78
8.13647e-38 -6.51134e-77 -6.51134e-77
4.29869e-39 -1.3534e-75 -1.3534e-75
2.21457e-40 -2.67456e-74 -2.67456e-74
1.11317e-41 -4.99281e-73 -4.99281e-73
5.46266e-43 -8.73213e-72 -8.73213e-72
2.61856e-44 -1.41539e-70 -1.41539e-70
1.22677e-45 -2.09529e-69 -2.09529e-69
5.61994e-47 -2.77501e-68 -2.77501e-68
2.5187e-48 -3.18888e-67 -3.18888e-67
1.10484e-49 -3.02809e-66 -3.02809e-66
4.74597e-51 -2.17891e-65 -2.17891e-65
2.07921e-52 -9.88394e-65 -9.88394e-65
2.07467e-52 -1.59384e-64 -1.59384e-64
0.0196 -1.72369e-140 1.36439e-138
0.0224849 -2.48617e-136 -1.78859e-135
0.0229359 -1.09875e-134 -3.22151e-133
0.0211133 -5.34819e-133 6.44476e-131
0.0217374 -2.34992e-131 -4.73027e-129
0.0149654 -1.03193e-129 9.42626e-127
0.00273122 -1.00895e-129 -2.26228e-124
0 0 -2.27175e-124
0 0 0
0 0 6.3992e-120
1.51114e-09 -4.79245e-118 -4.74628e-118
1.07363e-09 -2.01216e-116 -2.01234e-116
2.96574e-10 -7.95644e-115 -7.95644e-115
5.93698e-11 -3.10078e-113 -3.10078e-113
9.93344e-12 -1.19136e-111 -1.19136e-111
1.47069e-12 -4.51138e-110 -4.51138e-110
1.98256e-13 -1.68317e-108 -1.68317e-108
2.47345e-14 -6.18522e-107 -6.18522e-107
2.88542e-15 -2.23788e-105 -2.23788e-105
3.16942e-16 -7.969e-104 -7.969e-104
3.29472e-17 -2.79178e-102 -2.79178e-102
3.254e-18 -9.61784e-101 -9.61784e-101
3.06293e-19 -3.25677e-99 -3.25677e-99
2.75493e-20 -1.08339e-97 -1.08339e-97
2.37308e-21 -3.53863e-96 -3.53863e-96
1.96153e-22 -1.13415e-94 -1.13415e-94
1.55853e-23 -3.56454e-93 -3.56454e-93
1.19223e-24 -1.09779e-91 -1.09779e-91
8.79335e-26 -3.31028e-90 -3.31028e-90
6.26138e-27 -9.76461e-89 -9.76461e-89
4.3096e-28 -2.81485e-87 -2.81485e-87
2.87042e-29 -7.92094e-86 -7.92094e-86
1.85205e-30 -2.17305e-84 -2.17305e-84
1.15875e-31 -5.8037e-83 -5.8037e-83
7.03643e-33 -1.50647e-81 -1.50647e-81
4.1507e-34 -3.79312e-80 -3.79312e-80
2.38041e-35 -9.24351e-79 -9.24351e-79
1.32824e-36 -2.1743e-77 -2.1743e-77
7.21634e-38 -4.92101e-76 -4.92101e-76
3.82006e-39 -1.06746e-74 -1.06746e-74
1.97161e-40 -2.20867e-73 -2.20867e-73
9.92757e-42 -4.33278e-72 -4.33278e-72
4.87969e-43 -7.99629e-71 -7.99629e-71
2.34269e-44 -1.37419e-69 -1.37419e-69
1.09912e-45 -2.1686e-68 -2.1686e-68
5.04203e-47 -3.08088e-67 -3.08088e-67
2.26262e-48 -3.82492e-66 -3.82492e-66
9.9373e-50 -3.95527e-65 -3.95527e-65
4.27367e-51 -3.12356e-64 -3.12356e-64
1.87446e-52 -1.55749e-63 -1.55749e-63
1.87036e-52 -2.55937e-63 -2.55937e-63
0.018 -4.27503e-139 -1.39201e-137
0.0205887 -8.30789e-135 1.55927e-133
0.0205507 -4.30551e-133 -7.55629e-132
0.0192215 -2.22217e-131 4.06472e-130
0.0183506 -1.10437e-129 -2.87996e-128
0.0141013 -4.77303e-128 2.03888e-126
0.00497913 -1.19688e-126 7.56461e-125
0.00036415 -1.15023e-126 2.52669e-122
0 0 2.51933e-122
0 0 0
0 -1.5782e-117 -1.56826e-117
5.15327e-09 -6.55474e-116 -6.55373e-116
1.18701e-09 -2.6207e-114 -2.6207e-114
1.99091e-10 -1.03371e-112 -1.03371e-112
2.88219e-11 -4.02164e-111 -4.02164e-111
3.79566e-12 -1.5428e-109 -1.5428e-109
4.65147e-13 -5.83432e-108 -5.83432e-108
5.36601e-14 -2.17428e-106 -2.17428e-106
5.8661e-15 -7.98264e-105 -7.98264e-105
6.10249e-16 -2.88623e-103 -2.88623e-103
6.05902e-17 -1.02733e-101 -1.02733e-101
5.75453e-18 -3.59838e-100 -3.59838e-100
5.23759e-19 -1.23977e-98 -1.23977e-98
4.57578e-20 -4.19965e-97 -4.19965e-97
3.84272e-21 -1.39799e-95 -1.39799e-95
3.10623e-22 -4.57065e-94 -4.57065e-94
2.41985e-23 -1.46682e-92 -1.46682e-92
1.81893e-24 -4.61764e-91 -4.61764e-91
1.32068e-25 -1.42492e-89 -1.42492e-89
9.2723e-27 -4.30671e-88 -4.30671e-88
6.30118e-28 -1.27378e-86 -1.27378e-86
4.14869e-29 -3.68299e-85 -3.68299e-85
2.64879e-30 -1.03985e-83 -1.03985e-83
1.64136e-31 -2.86317e-82 -2.86317e-82
9.87942e-33 -7.67672e-81 -7.67672e-81
5.78057e-34 -2.00082e-79 -2.00082e-79
3.29034e-35 -5.05898e-78 -5.05898e-78
1.82326e-36 -1.23792e-76 -1.23792e-76
9.84206e-38 -2.92309e-75 -2.92309e-75
5.17883e-39 -6.63713e-74 -6.63713e-74
2.65797e-40 -1.4428e-72 -1.4428e-72
1.33137e-41 -2.98618e-71 -2.98618e-71
6.51205e-43 -5.84265e-70 -5.84265e-70
3.11201e-44 -1.07044e-68 -1.07044e-68
1.45375e-45 -1.81258e-67 -1.81258e-67
6.64174e-47 -2.78411e-66 -2.78411e-66
2.96905e-48 -3.77042e-65 -3.77042e-65
1.29926e-49 -4.29697e-64 -4.29697e-64
5.56846e-51 -3.78097e-63 -3.78097e-63
2.43411e-52 -2.11191e-62 -2.11191e-62
2.42888e-52 -3.54255e-62 -3.54255e-62
0.0148 -1.30818e-137 -1.86055e-139
0.0165184 -2.74176e-133 -1.02021e-135
0.0159329 -1.46314e-131 -9.53334e-133
0.0146213 -7.4676e-130 -1.55346e-130
0.012711 -3.62818e-128 -4.08579e-128
0.00846083 -1.5616e-126 -6.99763e-126
0.00317935 -5.31089e-125 -2.26944e-124
0.000563172 -1.23854e-123 -2.32285e-123
2.42487e-05 -1.18696e-123 -1.24096e-120
2.79683e-06 0 -5.53954e-119
3.46052e-07 -3.5197e-117 -3.57359e-117
4.61647e-08 -1.47738e-115 -1.47737e-115
5.87386e-09 -5.97465e-114 -5.97465e-114
7.17424e-10 -2.38481e-112 -2.38481e-112
8.43956e-11 -9.39332e-111 -9.39332e-111
9.57557e-12 -3.65011e-109 -3.65011e-109
1.04819e-12 -1.39895e-107 -1.39895e-107
1.10673e-13 -5.28676e-106 -5.28676e-106
1.12669e-14 -1.96944e-104 -1.96944e-104
1.10561e-15 -7.2299e-103 -7.2299e-103
1.04562e-16 -2.61465e-101 -2.61465e-101
9.5312e-18 -9.31186e-100 -9.31186e-100
8.3761e-19 -3.26466e-98 -3.26466e-98
7.09967e-20 -1.12627e-96 -1.12627e-96
5.80731e-21 -3.82176e-95 -3.82176e-95
4.58701e-22 -1.27494e-93 -1.27494e-93
3.50113e-23 -4.17931e-92 -4.17931e-92
2.58424e-24 -1.34541e-90 -1.34541e-90
1.84602e-25 -4.25082e-89 -4.25082e-89
1.27719e-26 -1.31722e-87 -1.31722e-87
8.56493e-28 -4.00011e-86 -4.00011e-86
5.5715e-29 -1.18943e-84 -1.18943e-84