# vtk DataFile Version 2.0
Tobias Weinzierl: CPU, Manycore and Cluster Computing
ASCII

DATASET STRUCTURED_POINTS
DIMENSIONS  51 11 6

ORIGIN 0 0 0 

SPACING 0.1 0.1 0.1 

POINT_DATA 3366

VECTORS velocity float
0 0 0
6.46819e-09 0 0
1.15109e-09 0 0
1.01613e-10 0 0
5.97766e-12 0 0
2.63827e-13 0 0
9.32113e-15 0 0
2.74602e-16 0 0
6.93775e-18 0 0
1.53434e-19 0 0
3.01721e-21 0 0
5.34115e-23 0 0
8.59692e-25 0 0
1.26856e-26 0 0
1.72801e-28 0 0
2.18581e-30 0 0
2.58057e-32 0 0
2.85616e-34 0 0
2.9751e-36 0 0
2.92665e-38 0 0
2.72727e-40 0 0
2.41418e-42 0 0
2.03507e-44 0 0
1.63734e-46 0 0
1.25992e-48 0 0
9.28977e-51 0 0
6.57477e-53 0 0
4.47364e-55 0 0
2.93079e-57 0 0
1.85117e-59 0 0
1.12875e-61 0 0
6.652e-64 0 0
3.79306e-66 0 0
2.09488e-68 0 0
1.12172e-70 0 0
5.82853e-73 0 0
2.94143e-75 0 0
1.44289e-77 0 0
6.88526e-80 0 0
3.19838e-82 0 0
1.44732e-84 0 0
6.38415e-87 0 0
2.74674e-89 0 0
1.15336e-91 0 0
4.72919e-94 0 0
1.8946e-96 0 0
7.41955e-99 0 0
2.84172e-101 0 0
1.06495e-103 0 0
3.92081e-106 0 0
1.37665e-104 0 0
0 -5.2014e-246 0
5.50689e-08 -3.10946e-243 0
9.85955e-09 -1.49122e-240 0
8.65064e-10 -6.5727e-238 0
5.06367e-11 -2.67569e-235 0
2.22265e-12 -9.56587e-233 0
7.81748e-14 -2.53418e-230 0
2.2949e-15 -1.03363e-232 0
5.7819e-17 -3.60519e-231 0
1.27588e-18 -1.62416e-228 0
2.50449e-20 -7.1771e-226 0
4.427e-22 -3.11846e-223 0
7.11682e-24 -1.33229e-220 0
1.04907e-25 -5.59467e-218 0
1.42777e-27 -2.30824e-215 0
1.80465e-29 -9.35248e-213 0
2.12916e-31 -3.71969e-210 0
2.35517e-33 -1.45145e-207 0
2.45198e-35 -5.55366e-205 0
2.41095e-37 -2.08251e-202 0
2.24578e-39 -7.64819e-200 0
1.98724e-41 -2.74918e-197 0
1.67462e-43 -9.6652e-195 0
1.34693e-45 -3.32079e-192 0
1.03616e-47 -1.11412e-189 0
7.63808e-50 -3.6465e-187 0
5.40458e-52 -1.16317e-184 0
3.67666e-54 -3.61206e-182 0
2.40823e-56 -1.09063e-179 0
1.52085e-58 -3.19765e-177 0
9.27192e-61 -9.08992e-175 0
5.4634e-63 -2.50114e-172 0
3.11491e-65 -6.64884e-170 0
1.72015e-67 -1.70394e-167 0
9.20972e-70 -4.19957e-165 0
4.78501e-72 -9.92617e-163 0
2.41461e-74 -2.24271e-160 0
1.18439e-76 -4.82532e-158 0
5.65138e-79 -9.84205e-156 0
2.62508e-81 -1.8928e-153 0
1.18784e-83 -3.40979e-151 0
5.23943e-86 -5.70711e-149 0
2.25418e-88 -8.78405e-147 0
9.46518e-91 -1.22675e-144 0
3.88104e-93 -1.52692e-142 0
1.55482e-95 -1.65195e-140 0
6.08896e-98 -1.4969e-138 0
2.33213e-100 -1.07023e-136 0
8.74002e-103 -5.40812e-135 0
3.2179e-105 -1.48064e-133 0
1.1457e-103 -8.59702e-132 0
0 -4.80411e-244 0
1.51067e-07 -2.84221e-241 0
2.73734e-08 -1.63567e-238 0
2.38559e-09 -8.91678e-236 0
1.38666e-10 -4.78293e-233 0
5.8619e-12 -2.53417e-230 0
2.01165e-13 -1.32639e-227 0
5.80403e-15 -2.59192e-230 0
1.44397e-16 -3.09814e-229 0
3.15592e-18 -1.43169e-226 0
6.14808e-20 -6.39585e-224 0
1.08007e-21 -2.80498e-221 0
1.72743e-23 -1.20971e-218 0
2.53529e-25 -5.1296e-216 0
3.43753e-27 -2.13776e-213 0
4.33062e-29 -8.75234e-211 0
5.09442e-31 -3.51868e-208 0
5.62041e-33 -1.3884e-205 0
5.83755e-35 -5.37412e-203 0
5.72741e-37 -2.03945e-200 0
5.32437e-39 -7.58361e-198 0
4.70268e-41 -2.76132e-195 0
3.95605e-43 -9.83863e-193 0
3.17679e-45 -3.42773e-190 0
2.44012e-47 -1.16675e-187 0
1.79615e-49 -3.87674e-185 0
1.26919e-51 -1.25618e-182 0
8.62291e-54 -3.96523e-180 0
5.64104e-56 -1.2179e-177 0
3.55821e-58 -3.63512e-175 0
2.16681e-60 -1.05283e-172 0
1.27538e-62 -2.95414e-170 0
7.26382e-65 -8.01576e-168 0
4.00723e-67 -2.09896e-165 0
2.14337e-69 -5.29156e-163 0
1.11256e-71 -1.28088e-160 0
5.60902e-74 -2.96765e-158 0
2.74882e-76 -6.55681e-156 0
1.31048e-78 -1.37546e-153 0
6.08211e-81 -2.72521e-151 0
2.74989e-83 -5.06713e-149 0
1.21198e-85 -8.77166e-147 0
5.21033e-88 -1.39953e-144 0
2.18614e-90 -2.03125e-142 0
8.95734e-93 -2.63499e-140 0
3.58591e-95 -2.98055e-138 0
1.40334e-97 -2.83394e-136 0
5.37127e-100 -2.13469e-134 0
2.01163e-102 -1.14157e-132 0
7.40162e-105 -3.32136e-131 0
2.64425e-103 -1.96577e-129 0
0 -3.36336e-246 0
2.55325e-07 -2.00979e-243 0
4.70096e-08 -8.92115e-241 0
4.06962e-09 -3.2859e-238 0
2.34565e-10 -8.91903e-236 0
3.90307e-12 -8.88626e-236 0
1.32311e-13 0 0
3.78372e-15 6.8569e-225 0
9.55274e-17 -2.10185e-227 0
2.11121e-18 -1.10054e-224 0
4.14881e-20 -5.02743e-222 0
7.33934e-22 -2.22838e-219 0
1.1805e-23 -9.70442e-217 0
1.74072e-25 -4.15663e-214 0
2.36947e-27 -1.7504e-211 0
2.995e-29 -7.244e-209 0
3.53325e-31 -2.94493e-206 0
3.90757e-33 -1.17551e-203 0
4.06713e-35 -4.60486e-201 0
3.99774e-37 -1.76935e-198 0
3.7224e-39 -6.66458e-196 0
3.29241e-41 -2.45938e-193 0
2.77312e-43 -8.88556e-191 0
2.22931e-45 -3.1408e-188 0
1.71402e-47 -1.08531e-185 0
1.26275e-49 -3.66319e-183 0
8.92965e-52 -1.20657e-180 0
6.07092e-54 -3.87429e-178 0
3.97392e-56 -1.21141e-175 0
2.50797e-58 -3.68391e-173 0
1.52798e-60 -1.08804e-170 0
8.99736e-63 -3.11619e-168 0
5.12624e-65 -8.6395e-166 0
2.82891e-67 -2.31408e-163 0
1.51354e-69 -5.97461e-161 0
7.85825e-72 -1.48303e-158 0
3.96264e-74 -3.52843e-156 0
1.94234e-76 -8.01789e-154 0
9.26141e-79 -1.73281e-151 0
4.29891e-81 -3.54359e-149 0
1.94387e-83 -6.81462e-147 0
8.56817e-86 -1.22289e-144 0
3.68374e-88 -2.02776e-142 0
1.5457e-90 -3.06736e-140 0
6.33351e-93 -4.16042e-138 0
2.53557e-95 -4.93841e-136 0
9.92301e-98 -4.94771e-134 0
3.79804e-100 -3.94558e-132 0
1.42241e-102 -2.24557e-130 0
5.23354e-105 -6.98916e-129 0
1.8669e-103 -4.21813e-127 0
0 -1.46246e-248 0
3.41082e-07 -8.8262e-246 0
6.37101e-08 -3.21495e-243 0
5.48932e-09 -8.99616e-241 0
3.14148e-10 -1.6486e-238 0
0 -1.63963e-238 0
0 0 0
0 0 0
2.0115e-18 -3.51426e-222 0
7.90923e-20 -6.64187e-223 0
2.08855e-21 -3.3921e-220 0
4.45581e-23 -1.5323e-217 0
8.1734e-25 -6.74053e-215 0
1.32932e-26 -2.91733e-212 0
1.95279e-28 -1.24182e-209 0
2.62387e-30 -5.19684e-207 0
3.25467e-32 -2.13723e-204 0
3.75373e-34 -8.63376e-202 0
4.04872e-36 -3.42438e-199 0
4.10349e-38 -1.33283e-196 0
3.92404e-40 -5.08798e-194 0
3.55286e-42 -1.90388e-191 0
3.05503e-44 -6.97884e-189 0
2.50161e-46 -2.50427e-186 0
1.9554e-48 -8.79046e-184 0
1.46219e-50 -3.01596e-181 0
1.04804e-52 -1.01051e-178 0
7.21321e-55 -3.30319e-176 0
4.77489e-57 -1.05231e-173 0
3.04462e-59 -3.2633e-171 0
1.87256e-61 -9.83784e-169 0
1.11232e-63 -2.87893e-166 0
6.38885e-66 -8.16446e-164 0
3.55222e-68 -2.23959e-161 0
1.91385e-70 -5.92944e-159 0
1.00015e-72 -1.51141e-156 0
5.07415e-75 -3.6984e-154 0
2.50134e-77 -8.65821e-152 0
1.19907e-79 -1.93136e-149 0
5.59373e-82 -4.08503e-147 0
2.54131e-84 -8.14371e-145 0
1.12514e-86 -1.51881e-142 0
4.85765e-89 -2.62485e-140 0
2.04636e-91 -4.15167e-138 0
8.41636e-94 -5.90942e-136 0
3.38138e-96 -7.39183e-134 0
1.32776e-98 -7.8415e-132 0
5.0982e-101 -6.65771e-130 0
1.91512e-103 -4.05961e-128 0
7.0667e-106 -1.36241e-126 0
2.47521e-104 -8.38781e-125 0
0 -1.23527e-248 0
3.89131e-07 -7.38327e-246 0
7.32965e-08 -2.41967e-243 0
6.30016e-09 -6.24982e-241 0
3.59725e-10 -1.13238e-238 0
7.52182e-12 -1.12616e-238 0
0 0 0
0 0 0
0 0 0
1.3504e-21 1.77781e-219 0
5.43969e-23 -1.78184e-218 0
1.43971e-24 -8.86963e-216 0
3.0395e-26 -3.94253e-213 0
5.47432e-28 -1.72481e-210 0
8.69943e-30 -7.42428e-208 0
1.24486e-31 -3.14305e-205 0
1.62626e-33 -1.30816e-202 0
1.95909e-35 -5.35058e-200 0
2.19308e-37 -2.1497e-197 0
2.29539e-39 -8.47975e-195 0
2.2576e-41 -3.28242e-192 0
2.0954e-43 -1.24615e-189 0
1.84199e-45 -4.63721e-187 0
1.53841e-47 -1.69033e-184 0
1.2241e-49 -6.0313e-182 0
9.30222e-52 -2.10497e-179 0
6.76593e-54 -7.17982e-177 0
4.7195e-56 -2.39122e-174 0
3.16277e-58 -7.76828e-172 0
2.03962e-60 -2.45892e-169 0
1.26762e-62 -7.57424e-167 0
7.60291e-65 -2.26726e-164 0
4.40631e-67 -6.58489e-162 0
2.47048e-69 -1.85227e-159 0
1.34145e-71 -5.03592e-157 0
7.06151e-74 -1.32023e-154 0
3.60713e-76 -3.32825e-152 0
1.78959e-78 -8.04223e-150 0
8.63057e-81 -1.85546e-147 0
4.04911e-83 -4.06832e-145 0
1.84942e-85 -8.42909e-143 0
8.22956e-88 -1.63847e-140 0
3.56999e-90 -2.96086e-138 0
1.51072e-92 -4.9147e-136 0
6.23997e-95 -7.37217e-134 0
2.51718e-97 -9.76488e-132 0
9.92226e-100 -1.10307e-129 0
3.82382e-102 -1.0038e-127 0
1.44141e-104 -6.61029e-126 0
5.33643e-107 -2.41524e-124 0
1.83226e-105 -1.51749e-122 0
0 -3.19266e-246 0
3.8913e-07 -1.88915e-243 0
7.32962e-08 -7.06946e-241 0
6.30015e-09 -2.2527e-238 0
3.60228e-10 -6.04798e-236 0
1.5032e-11 -1.1467e-233 0
2.46356e-13 -1.14067e-233 0
0 0 0
0 0 0
0 0 0
7.80337e-25 -9.06045e-217 0
1.9463e-25 -4.15054e-214 0
7.42257e-27 -1.86488e-211 0
1.82506e-28 -8.25007e-209 0
3.52961e-30 -3.59239e-206 0
5.78785e-32 -1.53914e-203 0
8.35934e-34 -6.48601e-201 0
1.08775e-35 -2.68728e-198 0
1.29445e-37 -1.09421e-195 0
1.42386e-39 -4.37669e-193 0
1.45929e-41 -1.71886e-190 0
1.40224e-43 -6.62459e-188 0
1.26969e-45 -2.50415e-185 0
1.08789e-47 -9.2786e-183 0
8.8514e-50 -3.36777e-180 0
6.85959e-52 -1.19655e-177 0
5.0768e-54 -4.15824e-175 0
3.59664e-56 -1.41225e-172 0
2.4441e-58 -4.68298e-170 0
1.59611e-60 -1.51458e-167 0
1.00336e-62 -4.7722e-165 0
6.08084e-65 -1.46296e-162 0
3.55786e-67 -4.35705e-160 0
2.01229e-69 -1.25857e-157 0
1.10149e-71 -3.51927e-155 0
5.84163e-74 -9.50515e-153 0
3.00465e-76 -2.47328e-150 0
1.50028e-78 -6.18122e-148 0
7.27869e-81 -1.47837e-145 0
3.43399e-83 -3.36889e-143 0
1.57669e-85 -7.27501e-141 0
7.05045e-88 -1.47868e-138 0
3.07263e-90 -2.80428e-136 0
1.30591e-92 -4.90556e-134 0
5.41616e-95 -7.79239e-132 0
2.19333e-97 -1.09917e-129 0
8.67744e-100 -1.33105e-127 0
3.35573e-102 -1.30868e-125 0
1.26914e-104 -9.39814e-124 0
4.71342e-107 -3.78372e-122 0
1.61779e-105 -2.4271e-120 0
0 -6.50599e-244 0
3.41046e-07 -3.81129e-241 0
6.37034e-08 -1.60166e-238 0
5.48876e-09 -6.04024e-236 0
3.14834e-10 -2.05922e-233 0
1.36177e-11 -5.99334e-231 0
4.5906e-13 -1.24159e-228 0
5.87751e-15 -1.23561e-228 0
0 0 0
0 0 0
0 -3.18672e-215 0
1.13689e-23 -1.47263e-212 0
3.32819e-25 -6.69078e-210 0
6.7529e-27 -2.99431e-207 0
1.13192e-28 -1.31953e-204 0
1.6613e-30 -5.72403e-202 0
2.19561e-32 -2.44341e-199 0
2.65632e-34 -1.02598e-196 0
2.97419e-36 -4.23611e-194 0
3.10631e-38 -1.71908e-191 0
3.04462e-40 -6.85377e-189 0
2.81403e-42 -2.68326e-186 0
2.4624e-44 -1.03103e-183 0
2.04685e-46 -3.88608e-181 0
1.62094e-48 -1.4359e-178 0
1.22603e-50 -5.19783e-176 0
8.87686e-53 -1.84202e-173 0
6.16472e-55 -6.38559e-171 0
4.11382e-57 -2.16353e-168 0
2.64219e-59 -7.15754e-166 0
1.63576e-61 -2.30961e-163 0
9.77477e-64 -7.26048e-161 0
5.64511e-66 -2.22052e-158 0
3.15445e-68 -6.5969e-156 0
1.70739e-70 -1.90043e-153 0
8.96063e-73 -5.2979e-151 0
4.56404e-75 -1.4258e-148 0
2.25814e-77 -3.69397e-146 0
1.08618e-79 -9.18213e-144 0
5.08327e-82 -2.18087e-141 0
2.31629e-84 -4.92449e-139 0
1.02839e-86 -1.05045e-136 0
4.4516e-89 -2.09951e-134 0
1.87995e-91 -3.88939e-132 0
7.74998e-94 -6.57971e-130 0
3.12052e-96 -9.95017e-128 0
1.22788e-98 -1.30205e-125 0
4.72402e-101 -1.39666e-123 0
1.77789e-103 -1.10709e-121 0
6.57206e-106 -4.98715e-120 0
2.30202e-104 -3.2675e-118 0
0 -9.45233e-242 0
2.54692e-07 -5.48169e-239 0
4.68941e-08 -2.58226e-236 0
4.05957e-09 -1.14312e-233 0
2.34208e-10 -4.78967e-231 0
1.01888e-11 -1.85821e-228 0
3.5577e-13 -6.32926e-226 0
1.00603e-14 -1.59748e-223 0
9.97968e-17 -1.59117e-223 0
2.11034e-18 0 0
4.07242e-20 -7.53967e-214 0
7.21185e-22 -3.52313e-211 0
1.161e-23 -1.61928e-208 0
1.71321e-25 -7.3339e-206 0
2.33346e-27 -3.27223e-203 0
2.95104e-29 -1.43787e-200 0
3.48299e-31 -6.22043e-198 0
3.85354e-33 -2.64851e-195 0
4.01231e-35 -1.10945e-192 0
3.94509e-37 -4.5706e-190 0
3.67442e-39 -1.85106e-187 0
3.2508e-41 -7.36643e-185 0
2.7387e-43 -2.87926e-182 0
2.20211e-45 -1.10477e-179 0
1.69342e-47 -4.15904e-177 0
1.2478e-49 -1.53526e-174 0
8.82532e-52 -5.55339e-172 0
6.00088e-54 -1.96703e-169 0
3.92862e-56 -6.81712e-167 0
2.4797e-58 -2.30967e-164 0
1.51093e-60 -7.6425e-162 0
8.89797e-63 -2.46711e-159 0
5.07014e-65 -7.76026e-157 0
2.79822e-67 -2.37517e-154 0
1.49726e-69 -7.06238e-152 0
7.77439e-72 -2.0363e-149 0
3.92067e-74 -5.68107e-147 0
1.92191e-76 -1.5297e-144 0
9.16469e-79 -3.96313e-142 0
4.25431e-81 -9.84259e-140 0
1.92383e-83 -2.33247e-137 0
8.48036e-86 -5.24359e-135 0
3.6462e-88 -1.10987e-132 0
1.53004e-90 -2.18973e-130 0
6.26967e-93 -3.97159e-128 0
2.51014e-95 -6.49071e-126 0
9.82399e-98 -9.26807e-124 0
3.76032e-100 -1.09782e-121 0
1.40835e-102 -9.75427e-120 0
5.18203e-105 -5.0167e-118 0
1.84909e-103 -3.35872e-116 0
0 -7.49873e-240 0
1.43339e-07 -4.3048e-237 0
2.59804e-08 -2.28573e-234 0
2.2636e-09 -1.19687e-231 0
1.31548e-10 -6.19012e-229 0
5.75641e-12 -3.16157e-226 0
2.02136e-13 -1.59433e-223 0
5.92085e-15 -7.93683e-221 0
1.43573e-16 -3.89961e-218 0
3.07504e-18 -1.89066e-215 0
5.96379e-20 -9.04329e-213 0
1.04395e-21 -4.26568e-210 0
1.66476e-23 -1.98413e-207 0
2.43734e-25 -9.09837e-205 0
3.29789e-27 -4.11205e-202 0
4.14734e-29 -1.83119e-199 0
4.87133e-31 -8.03279e-197 0
5.36707e-33 -3.46994e-194 0
5.56782e-35 -1.47557e-191 0
5.45701e-37 -6.1749e-189 0
5.06822e-39 -2.54199e-186 0
4.47264e-41 -1.02902e-183 0
3.75963e-43 -4.0944e-181 0
3.01695e-45 -1.6006e-178 0
2.31586e-47 -6.14451e-176 0
1.70368e-49 -2.31512e-173 0
1.2032e-51 -8.55638e-171 0
8.17044e-54 -3.10002e-168 0
5.34255e-56 -1.10026e-165 0
3.36847e-58 -3.8225e-163 0
2.05044e-60 -1.29884e-160 0
1.20643e-62 -4.3122e-158 0
6.86865e-65 -1.39738e-155 0
3.78796e-67 -4.4144e-153 0
2.02545e-69 -1.35757e-150 0
1.05104e-71 -4.05769e-148 0
5.29738e-74 -1.17653e-145 0
2.59541e-76 -3.30184e-143 0
1.23703e-78 -8.94475e-141 0
5.73985e-81 -2.33138e-138 0
2.59455e-83 -5.82258e-136 0
1.14327e-85 -1.38621e-133 0
4.91393e-88 -3.12487e-131 0
2.06138e-90 -6.61006e-129 0
8.44456e-93 -1.29569e-126 0
3.38003e-95 -2.31081e-124 0
1.32254e-97 -3.64431e-122 0
5.06119e-100 -4.84093e-120 0
1.8952e-102 -4.91989e-118 0
6.97219e-105 -2.97005e-116 0
2.49394e-103 -2.03291e-114 0
0 0 0
4.14707e-08 0 0
7.42465e-09 0 0
6.50966e-10 0 0
3.80821e-11 0 0
1.67519e-12 0 0
5.90694e-14 0 0
1.73803e-15 0 0
4.37766e-17 0 0
9.647e-19 0 0
1.89136e-20 0 0
3.33966e-22 0 0
5.3638e-24 0 0
7.90015e-26 0 0
1.07442e-27 0 0
1.35715e-29 0 0
1.60027e-31 0 0
1.76922e-33 0 0
1.8411e-35 0 0
1.80953e-37 0 0
1.68492e-39 0 0
1.49043e-41 0 0
1.25557e-43 0 0
1.00959e-45 0 0
7.76451e-48 0 0
5.72222e-50 0 0
4.04804e-52 0 0
2.75325e-54 0 0
1.80304e-56 0 0
1.13846e-58 0 0
6.93952e-61 0 0
4.08843e-63 0 0
2.33065e-65 0 0
1.28689e-67 0 0
6.88917e-70 0 0
3.57894e-72 0 0
1.80582e-74 0 0
8.85681e-77 0 0
4.22569e-79 0 0
1.96268e-81 0 0
8.88041e-84 0 0
3.91677e-86 0 0
1.68502e-88 0 0
7.07488e-91 0 0
2.90078e-93 0 0
1.16205e-95 0 0
4.55061e-98 0 0
1.74286e-100 0 0
6.53141e-103 0 0
2.40466e-105 0 0
8.60361e-104 0 0
0 0 -1.35017e-246
5.34751e-08 0 -8.06971e-244
9.56929e-09 0 -3.49216e-241
8.3965e-10 0 -1.31013e-238
4.91597e-11 0 -4.34812e-236
2.16285e-12 0 -1.18904e-233
7.62524e-14 0 -2.1439e-231
2.24308e-15 0 -1.54633e-233
5.66099e-17 0 -1.63745e-231
1.25097e-18 0 -7.35422e-229
2.45846e-20 0 -3.24814e-226
4.34994e-22 0 -1.41105e-223
6.99882e-24 0 -6.02743e-221
1.03242e-25 0 -2.53066e-218
1.406e-27 0 -1.04392e-215
1.77811e-29 0 -4.229e-213
2.09887e-31 0 -1.68167e-210
2.32267e-33 0 -6.56079e-208
2.4191e-35 0 -2.50987e-205
2.37946e-37 0 -9.40973e-203
2.21716e-39 0 -3.45512e-200
1.96249e-41 0 -1.24171e-197
1.65421e-43 0 -4.36454e-195
1.33085e-45 0 -1.49926e-192
1.02403e-47 0 -5.02889e-190
7.55031e-50 0 -1.64559e-187
5.34357e-52 0 -5.24797e-185
3.63584e-54 0 -1.6293e-182
2.38192e-56 0 -4.91835e-180
1.50449e-58 0 -1.44166e-177
9.17366e-61 0 -4.09717e-175
5.40633e-63 0 -1.12707e-172
3.08282e-65 0 -2.9953e-170
1.70266e-67 0 -7.67415e-168
9.11729e-70 0 -1.89086e-165
4.73758e-72 0 -4.46796e-163
2.39097e-74 0 -1.00918e-160
1.17293e-76 0 -2.17065e-158
5.5973e-79 0 -4.42602e-156
2.60024e-81 0 -8.50924e-154
1.17672e-83 0 -1.53239e-151
5.1909e-86 0 -2.56393e-149
2.23352e-88 0 -3.94485e-147
9.37927e-91 0 -5.50722e-145
3.84615e-93 0 -6.85218e-143
1.54097e-95 0 -7.41036e-141
6.03525e-98 0 -6.71211e-139
2.31175e-100 0 -4.79696e-137
8.6643e-103 0 -2.42297e-135
3.19026e-105 0 -6.63079e-134
1.13577e-103 0 -3.84948e-132
0.0036 -4.29368e-245 -5.59197e-245
0.000834784 -1.99136e-240 -2.03676e-240
7.51682e-05 -1.18466e-237 -1.17896e-237
4.345e-06 -5.39795e-235 -5.33877e-235
1.89305e-07 -2.23916e-232 -2.20674e-232
6.62043e-09 -8.15331e-230 -8.01672e-230
1.93523e-10 -2.20065e-227 -2.16136e-227
4.85987e-12 -8.78624e-230 -8.64987e-230
1.06973e-13 -3.01541e-228 -3.01556e-228
2.0957e-15 -1.38351e-225 -1.38352e-225
3.6987e-17 -6.22873e-223 -6.22874e-223
5.93878e-19 -2.75836e-220 -2.75836e-220
8.74581e-21 -1.20156e-217 -1.20156e-217
1.18939e-22 -5.14672e-215 -5.14672e-215
1.50247e-24 -2.16688e-212 -2.16688e-212
1.77186e-26 -8.96339e-210 -8.96339e-210
1.95929e-28 -3.64122e-207 -3.64122e-207
2.03935e-30 -1.45194e-204 -1.45194e-204
2.00493e-32 -5.68009e-202 -5.68009e-202
1.86743e-34 -2.17884e-199 -2.17884e-199
1.65242e-36 -8.19031e-197 -8.19031e-197
1.39252e-38 -3.01512e-194 -3.01512e-194
1.12013e-40 -1.08628e-191 -1.08628e-191
8.61804e-43 -3.82721e-189 -3.82721e-189
6.35385e-45 -1.31759e-186 -1.31759e-186
4.49678e-47 -4.42841e-184 -4.42841e-184
3.0598e-49 -1.45168e-181 -1.45168e-181
2.0047e-51 -4.63645e-179 -4.63645e-179
1.26637e-53 -1.44107e-176 -1.44107e-176
7.72288e-56 -4.35321e-174 -4.35321e-174
4.55214e-58 -1.27623e-171 -1.27623e-171
2.59626e-60 -3.62533e-169 -3.62533e-169
1.43426e-62 -9.9603e-167 -9.9603e-167
7.68203e-65 -2.64125e-164 -2.64125e-164
3.99288e-67 -6.74432e-162 -6.74432e-162
2.01573e-69 -1.6538e-159 -1.6538e-159
9.89156e-72 -3.8822e-157 -3.8822e-157
4.72191e-74 -8.69211e-155 -8.69211e-155
2.19434e-76 -1.8481e-152 -1.8481e-152
9.93399e-79 -3.71191e-150 -3.71191e-150
4.38388e-81 -6.99781e-148 -6.99781e-148
1.88702e-83 -1.22848e-145 -1.22848e-145
7.92748e-86 -1.98809e-143 -1.98809e-143
3.2522e-88 -2.92737e-141 -2.92737e-141
1.30357e-90 -3.85333e-139 -3.85333e-139
5.10777e-93 -4.42374e-137 -4.42374e-137
1.95739e-95 -4.2698e-135 -4.2698e-135
7.33965e-98 -3.26557e-133 -3.26557e-133
2.69415e-100 -1.77337e-131 -1.77337e-131
9.71911e-103 -5.23903e-130 -5.23903e-130
9.4572e-103 -9.96708e-130 -9.96708e-130
0.01 2.09321e-243 3.88253e-243
0.00244719 -1.61145e-238 -1.5647e-238
0.00022063 -1.31048e-235 -1.32057e-235
1.24714e-05 -7.45234e-233 -7.44084e-233
5.34581e-07 -4.07643e-230 -4.0337e-230
1.7994e-08 -2.20064e-227 -2.16534e-227
5.12217e-10 -1.17396e-224 -1.15276e-224
1.26153e-11 -2.24894e-227 -2.21375e-227
2.73636e-13 -2.63909e-226 -2.63987e-226
5.29964e-15 -1.2425e-223 -1.24255e-223
9.26738e-17 -5.65729e-221 -5.65731e-221
1.47672e-18 -2.52972e-218 -2.52972e-218
2.16084e-20 -1.11285e-215 -1.11285e-215
2.92262e-22 -4.81543e-213 -4.81543e-213
3.67443e-24 -2.04882e-210 -2.04882e-210
4.31517e-26 -8.56768e-208 -8.56768e-208
4.75397e-28 -3.51986e-205 -3.51986e-205
4.93179e-30 -1.42001e-202 -1.42001e-202
4.83395e-32 -5.62268e-200 -5.62268e-200
4.49007e-34 -2.18401e-197 -2.18401e-197
3.96308e-36 -8.31719e-195 -8.31719e-195
3.33198e-38 -3.10345e-192 -3.10345e-192
2.6744e-40 -1.1339e-189 -1.1339e-189
2.05347e-42 -4.05373e-187 -4.05373e-187
1.5111e-44 -1.41693e-184 -1.41693e-184
1.06753e-46 -4.83829e-182 -4.83829e-182
7.25171e-49 -1.61243e-179 -1.61243e-179
4.74353e-51 -5.23934e-177 -5.23934e-177
2.99194e-53 -1.65803e-174 -1.65803e-174
1.82197e-55 -5.10377e-172 -5.10377e-172
1.07245e-57 -1.52606e-169 -1.52606e-169
6.10849e-60 -4.42549e-167 -4.42549e-167
3.37024e-62 -1.24252e-164 -1.24252e-164
1.80292e-64 -3.37087e-162 -3.37087e-162
9.36001e-67 -8.8164e-160 -8.8164e-160
4.71986e-69 -2.21729e-157 -2.21729e-157
2.31359e-71 -5.3459e-155 -5.3459e-155
1.10326e-73 -1.23124e-152 -1.23124e-152
5.12179e-76 -2.69746e-150 -2.69746e-150
2.31639e-78 -5.59309e-148 -5.59309e-148
1.02124e-80 -1.09078e-145 -1.09078e-145
4.39179e-83 -1.98542e-143 -1.98542e-143
1.84335e-85 -3.33995e-141 -3.33995e-141
7.55558e-88 -5.12669e-139 -5.12669e-139
3.0259e-90 -7.05745e-137 -7.05745e-137
1.18465e-92 -8.50414e-135 -8.50414e-135
4.53613e-95 -8.65111e-133 -8.65111e-133
1.69959e-97 -7.00633e-131 -7.00633e-131
6.23385e-100 -4.05032e-129 -4.05032e-129
2.24718e-102 -1.2804e-127 -1.2804e-127
2.18682e-102 -2.44198e-127 -2.44198e-127
0.0148 3.56875e-245 5.41483e-242
0.00415326 -1.00056e-240 -9.5076e-238
0.000385768 -6.98011e-238 -8.84398e-235
2.15485e-05 -2.69688e-235 -3.6459e-232
9.12985e-07 -7.46381e-233 -1.18876e-229
1.20605e-08 -7.43691e-233 -2.1652e-227
3.39311e-10 0 -1.1506e-224
8.28328e-12 6.18803e-222 6.06338e-222
1.81858e-13 -1.82411e-224 -1.82792e-224
3.55571e-15 -9.73454e-222 -9.73707e-222
6.26528e-17 -4.53407e-219 -4.53419e-219
1.00457e-18 -2.04995e-216 -2.04995e-216
1.47755e-20 -9.11006e-214 -9.11006e-214
2.00709e-22 -3.98369e-211 -3.98369e-211
2.53266e-24 -1.71347e-208 -1.71347e-208
2.98365e-26 -7.24643e-206 -7.24643e-206
3.29594e-28 -3.01197e-203 -3.01197e-203
3.42725e-30 -1.22988e-200 -1.22988e-200
3.36614e-32 -4.93125e-198 -4.93125e-198
3.13228e-34 -1.9405e-195 -1.9405e-195
2.76901e-36 -7.49035e-193 -7.49035e-193
2.3313e-38 -2.83443e-190 -2.83443e-190
1.87352e-40 -1.05083e-187 -1.05083e-187
1.4401e-42 -3.81428e-185 -3.81428e-185
1.06077e-44 -1.35451e-182 -1.35451e-182
7.50038e-47 -4.7021e-180 -4.7021e-180
5.09889e-49 -1.59427e-177 -1.59427e-177
3.3376e-51 -5.27442e-175 -5.27442e-175
2.10644e-53 -1.70085e-172 -1.70085e-172
1.28343e-55 -5.33978e-170 -5.33978e-170
7.55819e-58 -1.62996e-167 -1.62996e-167
4.30687e-60 -4.83045e-165 -4.83045e-165
2.37714e-62 -1.3875e-162 -1.3875e-162
1.27209e-64 -3.8556e-160 -3.8556e-160
6.6061e-67 -1.03426e-157 -1.03426e-157
3.33205e-69 -2.67156e-155 -2.67156e-155
1.63368e-71 -6.62585e-153 -6.62585e-153
7.79198e-74 -1.57246e-150 -1.57246e-150
3.61797e-76 -3.55646e-148 -3.55646e-148
1.6365e-78 -7.62845e-146 -7.62845e-146
7.21586e-81 -1.54254e-143 -1.54254e-143
3.10347e-83 -2.91862e-141 -2.91862e-141
1.30271e-85 -5.11835e-139 -5.11835e-139
5.33997e-88 -8.21657e-137 -8.21657e-137
2.13869e-90 -1.18727e-134 -1.18727e-134
8.37337e-93 -1.50796e-132 -1.50796e-132
3.20631e-95 -1.62467e-130 -1.62467e-130
1.20135e-97 -1.40124e-128 -1.40124e-128
4.40638e-100 -8.68101e-127 -8.68101e-127
1.58839e-102 -2.9599e-125 -2.9599e-125
1.54567e-102 -5.65969e-125 -5.65969e-125
0.018 1.86034e-247 7.30689e-240
0.00554119 -3.98155e-243 -8.55119e-236
0.000528523 -2.46237e-240 -1.3603e-232
2.92894e-05 -7.25372e-238 -7.85593e-230
1.2298e-06 -1.35504e-235 -4.20434e-227
0 -1.34781e-235 -4.1965e-227
0 0 0
0 0 6.06341e-222
3.40483e-15 -3.23478e-219 -3.16887e-219
1.19983e-16 -5.99006e-220 -6.00243e-220
2.87182e-18 -3.12048e-217 -3.12109e-217
5.6029e-20 -1.43845e-214 -1.43845e-214
9.46799e-22 -6.46006e-212 -6.46006e-212
1.42745e-23 -2.85577e-209 -2.85577e-209
1.95428e-25 -1.24223e-206 -1.24223e-206
2.45866e-27 -5.31512e-204 -5.31512e-204
2.86721e-29 -2.23607e-201 -2.23607e-201
3.12018e-31 -9.2457e-199 -9.2457e-199
3.18562e-33 -3.75562e-196 -3.75562e-196
3.06508e-35 -1.49797e-193 -1.49797e-193
2.78973e-37 -5.86389e-191 -5.86389e-191
2.40972e-39 -2.25159e-188 -2.25159e-188
1.98105e-41 -8.47531e-186 -8.47531e-186
1.55396e-43 -3.12542e-183 -3.12542e-183
1.16567e-45 -1.12835e-180 -1.12835e-180
8.37885e-48 -3.98507e-178 -3.98507e-178
5.78174e-50 -1.3757e-175 -1.3757e-175
3.8364e-52 -4.63778e-173 -4.63778e-173
2.45157e-54 -1.52532e-170 -1.52532e-170
1.51088e-56 -4.8887e-168 -4.8887e-168
8.99183e-59 -1.52499e-165 -1.52499e-165
5.17389e-61 -4.62358e-163 -4.62358e-163
2.88155e-63 -1.36033e-160 -1.36033e-160
1.55498e-65 -3.87698e-158 -3.87698e-158
8.13845e-68 -1.06816e-155 -1.06816e-155
4.13494e-70 -2.83825e-153 -2.83825e-153
2.04119e-72 -7.25342e-151 -7.25342e-151
9.7979e-75 -1.77708e-148 -1.77708e-148
4.57668e-77 -4.15787e-146 -4.15787e-146
2.08184e-79 -9.24717e-144 -9.24717e-144
9.22827e-82 -1.94373e-141 -1.94373e-141
3.98887e-84 -3.83396e-139 -3.83396e-139
1.68229e-86 -7.03188e-137 -7.03188e-137
6.92674e-89 -1.18493e-134 -1.18493e-134
2.78595e-91 -1.80479e-132 -1.80479e-132
1.09512e-93 -2.42793e-130 -2.42793e-130
4.20935e-96 -2.78618e-128 -2.78618e-128
1.58286e-98 -2.57625e-126 -2.57625e-126
5.82564e-101 -1.72416e-124 -1.72416e-124
2.10688e-103 -6.40226e-123 -6.40226e-123
2.04918e-103 -1.22746e-122 -1.22746e-122
0.0196 1.642e-247 5.3364e-241
0.00631464 -3.49597e-243 -1.25801e-236
0.000611401 -1.88772e-240 -1.59725e-234
3.37473e-05 -5.12542e-238 -3.14546e-232
1.41158e-06 -9.46886e-236 -7.94427e-230
2.35518e-08 -9.4178e-236 2.2117e-224
0 0 2.21171e-224
0 0 0
0 0 -3.16886e-219
1.86175e-18 1.66984e-216 1.6348e-216
6.85311e-20 -1.67269e-215 -1.67589e-215
1.67047e-21 -8.50053e-213 -8.50053e-213
3.26857e-23 -3.85932e-210 -3.85932e-210
5.48551e-25 -1.72538e-207 -1.72538e-207
8.16092e-27 -7.59322e-205 -7.59322e-205
1.09777e-28 -3.2884e-202 -3.2884e-202
1.353e-30 -1.40087e-199 -1.40087e-199
1.5427e-32 -5.86812e-197 -5.86812e-197
1.6393e-34 -2.41605e-194 -2.41605e-194
1.63294e-36 -9.77287e-192 -9.77287e-192
1.53213e-38 -3.88188e-189 -3.88188e-189
1.35951e-40 -1.51336e-186 -1.51336e-186
1.14478e-42 -5.7874e-184 -5.7874e-184
9.17506e-45 -2.16972e-181 -2.16972e-181
7.0174e-47 -7.96932e-179 -7.96932e-179
5.1337e-49 -2.86569e-176 -2.86569e-176
3.59976e-51 -1.00807e-173 -1.00807e-173
2.42391e-53 -3.46607e-171 -3.46607e-171
1.56998e-55 -1.16376e-168 -1.16376e-168
9.79672e-58 -3.81166e-166 -3.81166e-166
5.89779e-60 -1.21643e-163 -1.21643e-163
3.42994e-62 -3.77766e-161 -3.77766e-161
1.92929e-64 -1.13993e-158 -1.13993e-158
1.05077e-66 -3.33682e-156 -3.33682e-156
5.54709e-69 -9.45701e-154 -9.45701e-154
2.84117e-71 -2.58931e-151 -2.58931e-151
1.41317e-73 -6.83134e-149 -6.83134e-149
6.83174e-76 -1.7314e-146 -1.7314e-146
3.21256e-78 -4.2003e-144 -4.2003e-144
1.47057e-80 -9.71064e-142 -9.71064e-142
6.55751e-83 -2.12789e-139 -2.12789e-139
2.85041e-85 -4.38971e-137 -4.38971e-137
1.20856e-87 -8.45138e-135 -8.45138e-135
5.00128e-90 -1.50119e-132 -1.50119e-132
2.02115e-92 -2.42192e-130 -2.42192e-130
7.98096e-95 -3.47057e-128 -3.47057e-128
3.08091e-97 -4.27048e-126 -4.27048e-126
1.16328e-99 -4.26743e-124 -4.26743e-124
4.29813e-102 -3.1154e-122 -3.1154e-122
1.56025e-104 -1.2751e-120 -1.2751e-120
1.51667e-104 -2.45145e-120 -2.45145e-120
0.0196 3.59807e-245 4.75605e-241
0.00631464 -1.00127e-240 -1.19021e-236
0.0006114 -5.64226e-238 -8.48313e-235
3.37473e-05 -1.8814e-235 -2.4002e-233
1.41288e-06 -5.15114e-233 -6.53786e-232
4.67873e-08 -9.95047e-231 -1.213e-230
6.34779e-10 -9.89914e-231 -1.15585e-221
0 0 -1.15585e-221
0 0 0
0 0 1.63539e-216
9.0706e-22 -8.68408e-214 -8.66795e-214
2.23005e-22 -4.0629e-211 -4.06291e-211
7.91907e-24 -1.86548e-208 -1.86548e-208
1.81789e-25 -8.43774e-206 -8.43774e-206
3.29516e-27 -3.75849e-203 -3.75849e-203
5.08332e-29 -1.64821e-200 -1.64821e-200
6.93059e-31 -7.11333e-198 -7.11333e-198
8.53966e-33 -3.02021e-195 -3.02021e-195
9.65008e-35 -1.26106e-192 -1.26106e-192
1.01053e-36 -5.17597e-190 -5.17597e-190
9.88248e-39 -2.08742e-187 -2.08742e-187
9.0804e-41 -8.26768e-185 -8.26768e-185
7.87733e-43 -3.21433e-182 -3.21433e-182
6.47791e-45 -1.226e-179 -1.226e-179
5.06691e-47 -4.58484e-177 -4.58484e-177
3.78066e-49 -1.67999e-174 -1.67999e-174
2.69778e-51 -6.02736e-172 -6.02736e-172
1.84514e-53 -2.11567e-169 -2.11567e-169
1.21197e-55 -7.25924e-167 -7.25924e-167
7.65903e-58 -2.43245e-164 -2.43245e-164
4.66408e-60 -7.95135e-162 -7.95135e-162
2.74097e-62 -2.53258e-159 -2.53258e-159
1.55657e-64 -7.84918e-157 -7.84918e-157
8.55252e-67 -2.3635e-154 -2.3635e-154
4.55166e-69 -6.90232e-152 -6.90232e-152
2.34883e-71 -1.95099e-149 -1.95099e-149
1.17642e-73 -5.32478e-147 -5.32478e-147
5.72398e-76 -1.39931e-144 -1.39931e-144
2.70788e-78 -3.52882e-142 -3.52882e-142
1.24652e-80 -8.50498e-140 -8.50498e-140
5.58775e-83 -1.94919e-137 -1.94919e-137
2.44089e-85 -4.22099e-135 -4.22099e-135
1.03973e-87 -8.56646e-133 -8.56646e-133
4.32145e-90 -1.6118e-130 -1.6118e-130
1.75362e-92 -2.77004e-128 -2.77004e-128
6.95155e-95 -4.25663e-126 -4.25663e-126
2.69342e-97 -5.66144e-124 -5.66144e-124
1.02053e-99 -6.17393e-122 -6.17393e-122
3.78319e-102 -4.97647e-120 -4.97647e-120
1.37766e-104 -2.27975e-118 -2.27975e-118
1.33917e-104 -4.39556e-118 -4.39556e-118
0.018 3.09515e-243 -2.14995e-241
0.00554104 -2.33906e-238 3.34806e-236
0.0005285 -1.31175e-235 2.1141e-234
2.92879e-05 -5.13953e-233 1.01322e-233
1.23157e-06 -1.7869e-230 -1.66088e-230
4.20607e-08 -5.30077e-228 -5.27976e-228
1.17673e-09 -1.11961e-225 -1.11939e-225
1.28456e-11 -1.11433e-225 5.96713e-219
0 0 5.96713e-219
0 0 0
0 -3.11954e-212 -3.11908e-212
1.42807e-20 -1.47308e-209 -1.47308e-209
3.85228e-22 -6.8429e-207 -6.8429e-207
7.24691e-24 -3.13272e-204 -3.13272e-204
1.13224e-25 -1.41302e-201 -1.41302e-201
1.5561e-27 -6.27758e-199 -6.27758e-199
1.93364e-29 -2.74609e-196 -2.74609e-196
2.20745e-31 -1.18242e-193 -1.18242e-193
2.33971e-33 -5.00967e-191 -5.00967e-191
2.31989e-35 -2.08766e-188 -2.08766e-188
2.16426e-37 -8.55361e-186 -8.55361e-186
1.90844e-39 -3.4442e-183 -3.4442e-183
1.59665e-41 -1.36231e-180 -1.36231e-180
1.27141e-43 -5.29042e-178 -5.29042e-178
9.66259e-46 -2.01603e-175 -2.01603e-175
7.0254e-48 -7.53419e-173 -7.53419e-173
4.89707e-50 -2.7595e-170 -2.7595e-170
3.27876e-52 -9.89846e-168 -9.89846e-168
2.11218e-54 -3.47465e-165 -3.47465e-165
1.31121e-56 -1.19257e-162 -1.19257e-162
7.85494e-59 -3.99825e-160 -3.99825e-160
4.54684e-61 -1.30797e-157 -1.30797e-157
2.54619e-63 -4.17e-155 -4.17e-155
1.38092e-65 -1.29385e-152 -1.29385e-152
7.26083e-68 -3.90078e-150 -3.90078e-150
3.7048e-70 -1.14061e-147 -1.14061e-147
1.83608e-72 -3.2278e-145 -3.2278e-145
8.84572e-75 -8.8176e-143 -8.8176e-143
4.14603e-77 -2.31816e-140 -2.31816e-140
1.89197e-79 -5.84342e-138 -5.84342e-138
8.41166e-82 -1.4058e-135 -1.4058e-135
3.64607e-84 -3.20911e-133 -3.20911e-133
1.54177e-86 -6.8989e-131 -6.8989e-131
6.36385e-89 -1.38278e-128 -1.38278e-128
2.56552e-91 -2.54852e-126 -2.54852e-126
1.0107e-93 -4.23341e-124 -4.23341e-124
3.89297e-96 -6.14571e-122 -6.14571e-122
1.46678e-98 -7.40307e-120 -7.40307e-120
5.40854e-101 -6.69074e-118 -6.69074e-118
1.95953e-103 -3.50061e-116 -3.50061e-116
1.90586e-103 -6.76969e-116 -6.76969e-116
0.0148 -8.43197e-241 -2.36839e-240
0.00414976 -3.93522e-236 -8.01759e-236
0.000385282 -2.17445e-233 -2.43088e-233
2.15162e-05 -9.91426e-231 -9.98712e-231
9.12031e-07 -4.23618e-228 -4.23774e-228
3.13509e-08 -1.67572e-225 -1.67575e-225
9.05028e-10 -5.82195e-223 -5.82195e-223
2.18967e-11 -1.49947e-220 -1.49947e-220
1.89238e-13 -1.49367e-220 -3.04292e-216
3.55755e-15 0 -1.49707e-213
6.16545e-17 -7.54217e-211 -7.55711e-211
9.893e-19 -3.60314e-208 -3.60314e-208
1.45599e-20 -1.69409e-205 -1.69409e-205