# vtk DataFile Version 2.0
Tobias Weinzierl: CPU, Manycore and Cluster Computing
ASCII

DATASET STRUCTURED_POINTS
DIMENSIONS  51 11 6

ORIGIN 0 0 0 

SPACING 0.1 0.1 0.1 

POINT_DATA 3366

VECTORS velocity float
0 0 0
8.89184e-09 0 0
2.09241e-09 0 0
2.43279e-10 0 0
1.88455e-11 0 0
1.09537e-12 0 0
5.09839e-14 0 0
1.97953e-15 0 0
6.59359e-17 0 0
1.92307e-18 0 0
4.98832e-20 0 0
1.16503e-21 0 0
2.47437e-23 0 0
4.8184e-25 0 0
8.66262e-27 0 0
1.4463e-28 0 0
2.25387e-30 0 0
3.29293e-32 0 0
4.52797e-34 0 0
5.88016e-36 0 0
7.23387e-38 0 0
8.45367e-40 0 0
9.40792e-42 0 0
9.993e-44 0 0
1.01519e-45 0 0
9.88233e-48 0 0
9.23398e-50 0 0
8.29518e-52 0 0
7.1748e-54 0 0
5.98322e-56 0 0
4.81673e-58 0 0
3.7478e-60 0 0
2.82155e-62 0 0
2.05749e-64 0 0
1.45462e-66 0 0
9.97968e-69 0 0
6.64992e-71 0 0
4.30727e-73 0 0
2.71397e-75 0 0
1.66473e-77 0 0
9.94757e-80 0 0
5.7944e-82 0 0
3.29222e-84 0 0
1.82564e-86 0 0
9.88627e-89 0 0
5.23088e-91 0 0
2.70561e-93 0 0
1.36873e-95 0 0
6.7754e-98 0 0
3.29891e-100 0 0
1.53804e-98 0 0
0 -1.64442e-233 0
6.42179e-08 -7.3752e-231 0
1.52562e-08 -2.70401e-228 0
1.75989e-09 -9.00452e-226 0
1.35385e-10 -2.76232e-223 0
7.80486e-12 -7.44081e-221 0
3.60826e-13 -1.48541e-218 0
1.39354e-14 -8.50755e-221 0
4.6225e-16 -3.76096e-219 0
1.34378e-17 -1.27671e-216 0
3.47653e-19 -4.25176e-214 0
8.10218e-21 -1.39245e-211 0
1.71776e-22 -4.48457e-209 0
3.34011e-24 -1.41984e-206 0
5.99741e-26 -4.41729e-204 0
1.00025e-27 -1.34981e-201 0
1.55732e-29 -4.04938e-199 0
2.27343e-31 -1.19201e-196 0
3.1239e-33 -3.44126e-194 0
4.05425e-35 -9.73753e-192 0
4.98484e-37 -2.69901e-189 0
5.82251e-39 -7.32315e-187 0
6.47687e-41 -1.94363e-184 0
6.8769e-43 -5.04217e-182 0
6.98367e-45 -1.27744e-179 0
6.79601e-47 -3.1578e-177 0
6.34823e-49 -7.60871e-175 0
5.70124e-51 -1.78502e-172 0
4.92997e-53 -4.07239e-170 0
4.11025e-55 -9.02292e-168 0
3.30821e-57 -1.93858e-165 0
2.57354e-59 -4.03213e-163 0
1.93716e-61 -8.10356e-161 0
1.41235e-63 -1.5703e-158 0
9.98357e-66 -2.92681e-156 0
6.84844e-68 -5.23235e-154 0
4.56284e-70 -8.94292e-152 0
2.95507e-72 -1.45577e-149 0
1.86176e-74 -2.24687e-147 0
1.14187e-76 -3.27036e-145 0
6.82258e-79 -4.45956e-143 0
3.97377e-81 -5.65111e-141 0
2.25761e-83 -6.58647e-139 0
1.25183e-85 -6.96713e-137 0
6.77849e-88 -6.57013e-135 0
3.58633e-90 -5.38726e-133 0
1.85489e-92 -3.7017e-131 0
9.38317e-95 -2.00869e-129 0
4.64461e-97 -7.7191e-128 0
2.26135e-99 -1.61862e-126 0
1.06766e-97 -1.22858e-124 0
0 -1.13583e-231 0
1.72041e-07 -5.04141e-229 0
4.16442e-08 -2.23116e-226 0
4.76326e-09 -9.20179e-224 0
3.62916e-10 -3.72033e-221 0
1.99207e-11 -1.4854e-218 0
8.92318e-13 -5.85939e-216 0
3.37146e-14 -1.54565e-218 0
1.101e-15 -2.43561e-217 0
3.16352e-17 -8.48223e-215 0
8.11083e-19 -2.85613e-212 0
1.87669e-20 -9.44256e-210 0
3.95546e-22 -3.07033e-207 0
7.65355e-24 -9.81735e-205 0
1.36854e-25 -3.0856e-202 0
2.27428e-27 -9.52878e-200 0
3.52983e-29 -2.88993e-197 0
5.13875e-31 -8.60363e-195 0
7.04372e-33 -2.51301e-192 0
9.12122e-35 -7.19751e-190 0
1.11923e-36 -2.02018e-187 0
1.30491e-38 -5.55312e-185 0
1.44911e-40 -1.49391e-182 0
1.53621e-42 -3.93031e-180 0
1.5578e-44 -1.0104e-177 0
1.51388e-46 -2.53592e-175 0
1.41233e-48 -6.2078e-173 0
1.26687e-50 -1.48059e-170 0
1.09424e-52 -3.43653e-168 0
9.11315e-55 -7.75228e-166 0
7.32737e-57 -1.69721e-163 0
5.69459e-59 -3.60027e-161 0
4.28242e-61 -7.38652e-159 0
3.11944e-63 -1.46269e-156 0
2.20316e-65 -2.78901e-154 0
1.51005e-67 -5.10689e-152 0
1.00528e-69 -8.95172e-150 0
6.50555e-72 -1.49658e-147 0
4.09557e-74 -2.37595e-145 0
2.51012e-76 -3.56319e-143 0
1.49872e-78 -5.01563e-141 0
8.72326e-81 -6.57429e-139 0
4.95264e-83 -7.94396e-137 0
2.74443e-85 -8.73385e-135 0
1.48514e-87 -8.58462e-133 0
7.8527e-90 -7.36019e-131 0
4.05908e-92 -5.30696e-129 0
2.05213e-94 -3.03402e-127 0
1.01522e-96 -1.23373e-125 0
4.9401e-99 -2.74769e-124 0
2.34196e-97 -2.12733e-122 0
0 -1.04728e-233 0
2.9231e-07 -4.69394e-231 0
7.25056e-08 -1.61296e-228 0
8.22642e-09 -4.5006e-226 0
6.19422e-10 -9.20775e-224 0
1.32112e-11 -9.16291e-224 0
5.82476e-13 0 0
2.17587e-14 2.2832e-213 0
7.2451e-16 -1.24532e-215 0
2.11264e-17 -4.91479e-213 0
5.47925e-19 -1.69249e-210 0
1.27954e-20 -5.65602e-208 0
2.71726e-22 -1.85736e-205 0
5.29071e-24 -5.9998e-203 0
9.51032e-26 -1.90574e-200 0
1.58755e-27 -5.94973e-198 0
2.47349e-29 -1.82495e-195 0
3.61297e-31 -5.49693e-193 0
4.96679e-33 -1.62514e-190 0
6.44822e-35 -4.71336e-188 0
7.9303e-37 -1.34028e-185 0
9.26454e-39 -3.73434e-183 0
1.03068e-40 -1.01883e-180 0
1.09438e-42 -2.71987e-178 0
1.11136e-44 -7.0993e-176 0
1.08143e-46 -1.81023e-173 0
1.01007e-48 -4.50509e-171 0
9.06995e-51 -1.09315e-168 0
7.84157e-53 -2.58332e-166 0
6.53638e-55 -5.93824e-164 0
5.25969e-57 -1.32592e-161 0
4.0906e-59 -2.87132e-159 0
3.07822e-61 -6.01996e-157 0
2.24361e-63 -1.21953e-154 0
1.58545e-65 -2.38176e-152 0
1.08721e-67 -4.47274e-150 0
7.24112e-70 -8.05207e-148 0
4.68794e-72 -1.3847e-145 0
2.9524e-74 -2.26506e-143 0
1.81011e-76 -3.50653e-141 0
1.0811e-78 -5.10567e-139 0
6.29429e-81 -6.93829e-137 0
3.57451e-83 -8.71403e-135 0
1.98122e-85 -9.98619e-133 0
1.07236e-87 -1.0264e-130 0
5.67118e-90 -9.23528e-129 0
2.93194e-92 -7.01706e-127 0
1.48252e-94 -4.24709e-125 0
7.3352e-97 -1.83776e-123 0
3.56978e-99 -4.3759e-122 0
1.68947e-97 -3.45716e-120 0
0 -6.0063e-236 0
3.93132e-07 -2.71832e-233 0
9.96698e-08 -7.70797e-231 0
1.12454e-08 -1.63603e-228 0
8.3811e-10 -2.26061e-226 0
0 -2.24433e-226 0
0 0 0
0 0 0
1.98239e-17 -8.83295e-211 0
1.02884e-18 -2.23611e-211 0
3.58091e-20 -8.6103e-209 0
1.00703e-21 -2.9329e-206 0
2.43553e-23 -9.73004e-204 0
5.22409e-25 -3.1764e-201 0
1.01233e-26 -1.01999e-198 0
1.79463e-28 -3.22058e-196 0
2.93745e-30 -9.99453e-194 0
4.47105e-32 -3.04712e-191 0
6.36493e-34 -9.12246e-189 0
8.51518e-36 -2.68045e-186 0
1.0749e-37 -7.7258e-184 0
1.28478e-39 -2.18305e-181 0
1.4585e-41 -6.04359e-179 0
1.57675e-43 -1.63811e-176 0
1.62723e-45 -4.34395e-174 0
1.60656e-47 -1.12608e-171 0
1.52041e-49 -2.85115e-169 0
1.38168e-51 -7.04383e-167 0
1.20768e-53 -1.6962e-164 0
1.0168e-55 -3.97656e-162 0
8.25767e-58 -9.06423e-160 0
6.47703e-60 -2.00588e-157 0
4.91252e-62 -4.30233e-155 0
3.6068e-64 -8.92711e-153 0
2.56612e-66 -1.78807e-150 0
1.77088e-68 -3.44863e-148 0
1.18645e-70 -6.38609e-146 0
7.72381e-73 -1.13154e-143 0
4.88969e-75 -1.91071e-141 0
3.01252e-77 -3.05973e-139 0
1.80753e-79 -4.61891e-137 0
1.05693e-81 -6.52416e-135 0
6.02687e-84 -8.54109e-133 0
3.35339e-86 -1.02355e-130 0
1.82171e-88 -1.10412e-128 0
9.66754e-91 -1.04699e-126 0
5.01446e-93 -8.42367e-125 0
2.54345e-95 -5.42821e-123 0
1.26218e-97 -2.51619e-121 0
6.15998e-100 -6.45622e-120 0
2.86423e-98 -5.20711e-118 0
0 -3.87902e-236 0
4.50225e-07 -1.7392e-233 0
1.15602e-07 -4.43499e-231 0
1.30071e-08 -8.68712e-229 0
9.66504e-10 -1.18655e-226 0
2.59521e-11 -1.17791e-226 0
0 0 0
0 0 0
0 0 0
2.29288e-20 3.37255e-208 0
1.22006e-21 -3.41082e-207 0
4.26e-23 -1.28046e-204 0
1.18658e-24 -4.29302e-202 0
2.82015e-26 -1.41684e-199 0
5.91499e-28 -4.60134e-197 0
1.11728e-29 -1.46992e-194 0
1.9269e-31 -4.61722e-192 0
3.06469e-33 -1.42547e-189 0
4.52978e-35 -4.32351e-187 0
6.26021e-37 -1.28767e-184 0
8.13031e-39 -3.7639e-182 0
9.96473e-41 -1.0792e-179 0
1.15674e-42 -3.03343e-177 0
1.27577e-44 -8.35325e-175 0
1.34054e-46 -2.25198e-172 0
1.34529e-48 -5.93922e-170 0
1.29219e-50 -1.53105e-167 0
1.19033e-52 -3.85432e-165 0
1.05345e-54 -9.46603e-163 0
8.97172e-57 -2.2655e-160 0
7.3637e-59 -5.27709e-158 0
5.83275e-61 -1.19469e-155 0
4.46434e-63 -2.62459e-153 0
3.30565e-65 -5.5852e-151 0
2.37055e-67 -1.14894e-148 0
1.64807e-69 -2.27937e-146 0
1.11186e-71 -4.34904e-144 0
7.28549e-74 -7.9548e-142 0
4.64054e-76 -1.38946e-139 0
2.87556e-78 -2.30685e-137 0
1.73478e-80 -3.61964e-135 0
1.01962e-82 -5.3294e-133 0
5.84245e-85 -7.29609e-131 0
3.2658e-87 -9.17685e-129 0
1.7819e-89 -1.04332e-126 0
9.49559e-92 -1.04772e-124 0
4.94473e-94 -8.97663e-123 0
2.51751e-96 -6.19994e-121 0
1.25378e-98 -3.10331e-119 0
6.13997e-101 -8.66365e-118 0
2.7986e-99 -7.13634e-116 0
0 -7.58693e-234 0
4.5022e-07 -3.36817e-231 0
1.15601e-07 -9.74688e-229 0
1.3007e-08 -2.35287e-226 0
9.68764e-10 -4.76329e-224 0
5.22671e-11 -6.81e-222 0
1.11156e-12 -6.76261e-222 0
0 0 0
0 0 0
0 0 0
2.29086e-23 -1.30643e-205 0
6.07257e-24 -4.52017e-203 0
3.00493e-25 -1.53211e-200 0
9.68343e-27 -5.11382e-198 0
2.46183e-28 -1.68029e-195 0
5.31405e-30 -5.43313e-193 0
1.01111e-31 -1.72817e-190 0
1.73418e-33 -5.40528e-188 0
2.72108e-35 -1.66175e-185 0
3.94752e-37 -5.01916e-183 0
5.33685e-39 -1.4887e-180 0
6.76578e-41 -4.33381e-178 0
8.08352e-43 -1.23759e-175 0
9.13978e-45 -3.46468e-173 0
9.81405e-47 -9.50275e-171 0
1.00381e-48 -2.55168e-168 0
9.80578e-51 -6.70276e-166 0
9.16964e-53 -1.72093e-163 0
8.2254e-55 -4.31466e-161 0
7.0909e-57 -1.05523e-158 0
5.88452e-59 -2.51458e-156 0
4.70814e-61 -5.83086e-154 0
3.63681e-63 -1.31374e-151 0
2.71569e-65 -2.87125e-149 0
1.96265e-67 -6.07555e-147 0
1.3743e-69 -1.24192e-144 0
9.3334e-72 -2.44609e-142 0
6.15361e-74 -4.62808e-140 0
3.94219e-76 -8.38115e-138 0
2.45596e-78 -1.44634e-135 0
1.4891e-80 -2.36563e-133 0
8.79357e-83 -3.64242e-131 0
5.0611e-85 -5.23384e-129 0
2.84086e-87 -6.93834e-127 0
1.55614e-89 -8.35419e-125 0
8.32338e-92 -8.93486e-123 0
4.34956e-94 -8.20674e-121 0
2.22187e-96 -6.12401e-119 0
1.11004e-98 -3.3423e-117 0
5.45245e-101 -1.02746e-115 0
2.48421e-99 -8.64758e-114 0
0 -1.17561e-231 0
3.93044e-07 -5.16828e-229 0
9.96479e-08 -1.66669e-226 0
1.1243e-08 -4.75399e-224 0
8.41185e-10 -1.22198e-221 0
4.75541e-11 -2.6813e-219 0
2.08108e-12 -4.18938e-217 0
3.46318e-14 -4.16269e-217 0
0 0 0
0 0 0
0 -3.46894e-204 0
2.58136e-22 -1.21013e-201 0
9.95577e-24 -4.14823e-199 0
2.66248e-25 -1.40085e-196 0
5.88426e-27 -4.65889e-194 0
1.13899e-28 -1.52545e-191 0
1.98571e-30 -4.91569e-189 0
3.1696e-32 -1.55842e-186 0
4.68291e-34 -4.8588e-184 0
6.45454e-36 -1.48913e-181 0
8.34962e-38 -4.48443e-179 0
1.01861e-39 -1.3263e-176 0
1.17655e-41 -3.85044e-174 0
1.29103e-43 -1.09666e-171 0
1.34968e-45 -3.06245e-169 0
1.34771e-47 -8.37935e-167 0
1.28826e-49 -2.24485e-164 0
1.18118e-51 -5.88381e-162 0
1.04068e-53 -1.50746e-159 0
8.82502e-56 -3.77167e-157 0
7.21373e-58 -9.20567e-155 0
5.69173e-60 -2.18922e-152 0
4.34026e-62 -5.06582e-150 0
3.20245e-64 -1.13885e-147 0
2.28884e-66 -2.48295e-145 0
1.58618e-68 -5.23932e-143 0
1.06685e-70 -1.06745e-140 0
6.97039e-73 -2.09393e-138 0
4.42761e-75 -3.94147e-136 0
2.73642e-77 -7.09019e-134 0
1.64671e-79 -1.21274e-131 0
9.65551e-82 -1.95991e-129 0
5.52007e-84 -2.96829e-127 0
3.0789e-86 -4.16756e-125 0
1.67645e-88 -5.34457e-123 0
8.91598e-91 -6.12854e-121 0
4.63414e-93 -6.08316e-119 0
2.35512e-95 -4.95237e-117 0
1.17088e-97 -2.9829e-115 0
5.72449e-100 -1.02528e-113 0
2.66196e-98 -8.8213e-112 0
0 -1.29999e-229 0
2.91131e-07 -5.65919e-227 0
7.22175e-08 -2.02864e-224 0
8.19357e-09 -6.78097e-222 0
6.17976e-10 -2.14206e-219 0
3.52266e-11 -6.26543e-217 0
1.61402e-12 -1.60925e-214 0
5.94016e-14 -3.06393e-212 0
7.6584e-16 -3.0479e-212 0
2.10745e-17 0 0
5.33635e-19 -6.19403e-203 0
1.24786e-20 -2.18519e-200 0
2.6529e-22 -7.57856e-198 0
5.17017e-24 -2.59039e-195 0
9.30091e-26 -8.72369e-193 0
1.55363e-27 -2.89376e-190 0
2.42206e-29 -9.45178e-188 0
3.53966e-31 -3.03883e-185 0
4.8682e-33 -9.61358e-183 0
6.32277e-35 -2.99146e-180 0
7.77882e-37 -9.15216e-178 0
9.09051e-39 -2.7518e-175 0
1.01161e-40 -8.12749e-173 0
1.07443e-42 -2.35681e-170 0
1.09136e-44 -6.70627e-168 0
1.06221e-46 -1.8714e-165 0
9.92319e-49 -5.11802e-163 0
8.91228e-51 -1.3708e-160 0
7.70661e-53 -3.59287e-158 0
6.42494e-55 -9.20722e-156 0
5.1708e-57 -2.3047e-153 0
4.02204e-59 -5.62895e-151 0
3.02703e-61 -1.33979e-148 0
2.20657e-63 -3.1034e-146 0
1.55946e-65 -6.98453e-144 0
1.06951e-67 -1.52452e-141 0
7.12395e-70 -3.22025e-139 0
4.61253e-72 -6.56592e-137 0
2.90518e-74 -1.28832e-134 0
1.78131e-76 -2.42357e-132 0
1.06399e-78 -4.35102e-130 0
6.19517e-81 -7.41143e-128 0
3.51849e-83 -1.18883e-125 0
1.95031e-85 -1.77784e-123 0
1.0557e-87 -2.44461e-121 0
5.58344e-90 -3.02963e-119 0
2.88676e-92 -3.28155e-117 0
1.45976e-94 -2.95008e-115 0
7.22301e-97 -1.99139e-113 0
3.51537e-99 -7.80886e-112 0
1.66454e-97 -6.8716e-110 0
0 -7.85664e-228 0
1.60871e-07 -3.38655e-225 0
3.89664e-08 -1.356e-222 0
4.45516e-09 -5.35203e-220 0
3.39336e-10 -2.08674e-217 0
1.94963e-11 -8.03595e-215 0
9.00236e-13 -3.05593e-212 0
3.46828e-14 -1.14738e-209 0
1.09441e-15 -4.25246e-207 0
3.06012e-17 -1.55545e-204 0
7.79541e-19 -5.61381e-202 0
1.79448e-20 -1.99808e-199 0
3.76644e-22 -7.01374e-197 0
7.26266e-24 -2.42751e-194 0
1.29488e-25 -8.28197e-192 0
2.14654e-27 -2.78451e-189 0
3.32447e-29 -9.2232e-187 0
4.8308e-31 -3.00883e-184 0
6.61083e-33 -9.66404e-182 0
8.5483e-35 -3.05501e-179 0
1.04758e-36 -9.5017e-177 0
1.21997e-38 -2.90639e-174 0
1.35337e-40 -8.73951e-172 0
1.43336e-42 -2.58229e-169 0
1.45226e-44 -7.49368e-167 0
1.4102e-46 -2.13465e-164 0
1.31466e-48 -5.96554e-162 0
1.17847e-50 -1.63452e-159 0
1.01726e-52 -4.3878e-157 0
8.46722e-55 -1.15315e-154 0
6.80439e-57 -2.96442e-152 0
5.28552e-59 -7.44717e-150 0
3.97294e-61 -1.82631e-147 0
2.89275e-63 -4.36677e-145 0
2.04222e-65 -1.01657e-142 0
1.3992e-67 -2.30043e-140 0
9.31144e-70 -5.05063e-138 0
6.02371e-72 -1.07343e-135 0
3.79099e-74 -2.20256e-133 0
2.32273e-76 -4.34887e-131 0
1.38643e-78 -8.22909e-129 0
8.0674e-81 -1.48459e-126 0
4.57906e-83 -2.53643e-124 0
2.53677e-85 -4.06713e-122 0
1.37244e-87 -6.04451e-120 0
7.25508e-90 -8.1753e-118 0
3.74934e-92 -9.78054e-116 0
1.89514e-94 -9.85997e-114 0
9.37357e-97 -7.61168e-112 0
4.56034e-99 -3.50069e-110 0
2.16561e-97 -3.15231e-108 0
0 0 0
4.52525e-08 0 0
1.07534e-08 0 0
1.23904e-09 0 0
9.52198e-11 0 0
5.50878e-12 0 0
2.55735e-13 0 0
9.91308e-15 0 0
3.28565e-16 0 0
9.52668e-18 0 0
2.45905e-19 0 0
5.71954e-21 0 0
1.21052e-22 0 0
2.35027e-24 0 0
4.21453e-26 0 0
7.02085e-28 0 0
1.09198e-29 0 0
1.59266e-31 0 0
2.18668e-33 0 0
2.83584e-35 0 0
3.48445e-37 0 0
4.06756e-39 0 0
4.52223e-41 0 0
4.79915e-43 0 0
4.87144e-45 0 0
4.73856e-47 0 0
4.42463e-49 0 0
3.97228e-51 0 0
3.43377e-53 0 0
2.86195e-55 0 0
2.30284e-57 0 0
1.79097e-59 0 0
1.34776e-61 0 0
9.82405e-64 0 0
6.94289e-66 0 0
4.76166e-68 0 0
3.1719e-70 0 0
2.05388e-72 0 0
1.29377e-74 0 0
7.93384e-77 0 0
4.73971e-79 0 0
2.76023e-81 0 0
1.56796e-83 0 0
8.69315e-86 0 0
4.7067e-88 0 0
2.48993e-90 0 0
1.28769e-92 0 0
6.51329e-95 0 0
3.22375e-97 0 0
1.56944e-99 0 0
7.45361e-98 0 0
0 0 -4.23832e-234
6.19161e-08 0 -1.90033e-231
1.46941e-08 0 -6.3465e-229
1.69512e-09 0 -1.80303e-226
1.30445e-10 0 -4.51069e-224
7.54847e-12 0 -9.29427e-222
3.50297e-13 0 -1.26284e-219
1.35726e-14 0 -1.42717e-221
4.51411e-16 0 -1.7185e-219
1.31511e-17 0 -5.81549e-217
3.4084e-19 0 -1.9356e-214
7.95513e-21 0 -6.33752e-212
1.68868e-22 0 -2.04064e-209
3.28702e-24 0 -6.45937e-207
5.90744e-26 0 -2.00912e-204
9.86018e-28 0 -6.13793e-202
1.53622e-29 0 -1.84091e-199
2.244e-31 0 -5.41775e-197
3.08513e-33 0 -1.56368e-194
4.00588e-35 0 -4.4235e-192
4.92752e-37 0 -1.22577e-189
5.75785e-39 0 -3.32494e-187
6.40726e-41 0 -8.82229e-185
6.80525e-43 0 -2.28803e-182
6.91302e-45 0 -5.79508e-180
6.72916e-47 0 -1.4321e-177
6.28743e-49 0 -3.4496e-175
5.64801e-51 0 -8.0903e-173
4.88505e-53 0 -1.84515e-170
4.07367e-55 0 -4.08684e-168
3.27942e-57 0 -8.77767e-166
2.55163e-59 0 -1.82507e-163
1.92101e-61 0 -3.66662e-161
1.40081e-63 0 -7.10253e-159
9.90359e-66 0 -1.32331e-156
6.79462e-68 0 -2.36482e-154
4.52763e-70 0 -4.04025e-152
2.93267e-72 0 -6.57421e-150
1.84789e-74 0 -1.01426e-147
1.13351e-76 0 -1.47563e-145
6.77345e-79 0 -2.01132e-143
3.94561e-81 0 -2.54756e-141
2.24186e-83 0 -2.96783e-139
1.24323e-85 0 -3.13782e-137
6.73264e-88 0 -2.95754e-135
3.56242e-90 0 -2.42382e-133
1.8427e-92 0 -1.66457e-131
9.32239e-95 0 -9.0277e-130
4.61494e-97 0 -3.46726e-128
2.24711e-99 0 -7.26638e-127
1.06067e-97 0 -5.51435e-125
0.0036 -9.99341e-233 -1.26568e-232
0.00110048 -4.39599e-228 -4.51481e-228
0.000131315 -2.12673e-225 -2.10958e-225
9.94932e-06 -7.40076e-223 -7.28515e-223
5.68137e-07 -2.31589e-220 -2.27064e-220
2.60545e-08 -6.35458e-218 -6.21382e-218
9.99857e-10 -1.29256e-215 -1.26205e-215
3.29986e-11 -7.23244e-218 -7.0921e-218
9.55394e-13 -3.15112e-216 -3.15134e-216
2.46362e-14 -1.08949e-213 -1.0895e-213
5.72612e-16 -3.6968e-211 -3.6968e-211
1.21132e-17 -1.23403e-208 -1.23403e-208
2.35102e-19 -4.05253e-206 -4.05253e-206
4.21495e-21 -1.30883e-203 -1.30883e-203
7.02064e-23 -4.15549e-201 -4.15549e-201
1.09188e-24 -1.29645e-198 -1.29645e-198
1.59252e-26 -3.97274e-196 -3.97274e-196
2.18659e-28 -1.19512e-193 -1.19512e-193
2.83598e-30 -3.52777e-191 -3.52777e-191
3.48507e-32 -1.02121e-188 -1.02121e-188
4.0689e-34 -2.89731e-186 -2.89731e-186
4.52454e-36 -8.05131e-184 -8.05131e-184
4.80257e-38 -2.18993e-181 -2.18993e-181
4.876e-40 -5.82587e-179 -5.82587e-179
4.74413e-42 -1.51464e-176 -1.51464e-176
4.43097e-44 -3.84494e-174 -3.84494e-174
3.97904e-46 -9.52103e-172 -9.52103e-172
3.44059e-48 -2.29738e-169 -2.29738e-169
2.86848e-50 -5.39545e-167 -5.39545e-167
2.30879e-52 -1.2317e-164 -1.2317e-164
1.79616e-54 -2.72926e-162 -2.72926e-162
1.35211e-56 -5.86057e-160 -5.86057e-160
9.85899e-59 -1.21732e-157 -1.21732e-157
6.96994e-61 -2.44085e-155 -2.44085e-155
4.78186e-63 -4.71339e-153 -4.71339e-153
3.18647e-65 -8.74186e-151 -8.74186e-151
2.06405e-67 -1.55235e-148 -1.55235e-148
1.30065e-69 -2.6296e-146 -2.6296e-146
7.97897e-72 -4.23068e-144 -4.23068e-144
4.76845e-74 -6.43089e-142 -6.43089e-142
2.77802e-76 -9.17691e-140 -9.17691e-140
1.57867e-78 -1.21966e-137 -1.21966e-137
8.75588e-81 -1.49461e-135 -1.49461e-135
4.74251e-83 -1.66679e-133 -1.66679e-133
2.50986e-85 -1.66214e-131 -1.66214e-131
1.29851e-87 -1.44608e-129 -1.44608e-129
6.57067e-90 -1.05825e-127 -1.05825e-127
3.25346e-92 -6.14155e-126 -6.14155e-126
1.57706e-94 -2.53541e-124 -2.53541e-124
7.52182e-97 -5.73171e-123 -5.73171e-123
7.3677e-97 -1.08346e-122 -1.08346e-122
0.01 2.84185e-231 5.81939e-231
0.00318876 -2.4972e-226 -2.34328e-226
0.000382531 -1.75722e-223 -1.75958e-223
2.8228e-05 -7.69269e-221 -7.64841e-221
1.5789e-06 -3.17675e-218 -3.12891e-218
6.89217e-08 -1.29254e-215 -1.26513e-215
2.55704e-09 -5.19701e-213 -5.07295e-213
8.23512e-11 -1.34303e-215 -1.31577e-215
2.34141e-12 -2.07843e-214 -2.07925e-214
5.95399e-14 -7.37502e-212 -7.37542e-212
1.36866e-15 -2.53116e-209 -2.53118e-209
2.86943e-17 -8.5328e-207 -8.5328e-207
5.52796e-19 -2.83026e-204 -2.83026e-204
9.84871e-21 -9.23544e-202 -9.23544e-202
1.63168e-22 -2.9636e-199 -2.9636e-199
2.52589e-24 -9.34838e-197 -9.34838e-197
3.66904e-26 -2.89746e-194 -2.89746e-194
5.01958e-28 -8.81986e-192 -8.81986e-192
6.48936e-30 -2.63546e-189 -2.63546e-189
7.95147e-32 -7.72626e-187 -7.72626e-187
9.25911e-34 -2.22104e-184 -2.22104e-184
1.02712e-35 -6.25677e-182 -6.25677e-182
1.08783e-37 -1.7261e-179 -1.7261e-179
1.10221e-39 -4.66008e-177 -4.66008e-177
1.07037e-41 -1.23026e-174 -1.23026e-174
9.9795e-44 -3.17328e-172 -3.17328e-172
8.94687e-46 -7.98964e-170 -7.98964e-170
7.72415e-48 -1.96161e-167 -1.96161e-167
6.43035e-50 -4.69116e-165 -4.69116e-165
5.16853e-52 -1.09142e-162 -1.09142e-162
4.01567e-54 -2.46685e-160 -2.46685e-160
3.01913e-56 -5.40837e-158 -5.40837e-158
2.19881e-58 -1.14816e-155 -1.14816e-155
1.55271e-60 -2.35557e-153 -2.35557e-153
1.06411e-62 -4.65976e-151 -4.65976e-151
7.08348e-65 -8.86492e-149 -8.86492e-149
4.58376e-67 -1.61702e-146 -1.61702e-146
2.88565e-69 -2.81803e-144 -2.81803e-144
1.76858e-71 -4.67229e-142 -4.67229e-142
1.056e-73 -7.33273e-140 -7.33273e-140
6.14677e-76 -1.08258e-137 -1.08258e-137
3.4901e-78 -1.49198e-135 -1.49198e-135
1.93417e-80 -1.90071e-133 -1.90071e-133
1.04679e-82 -2.20989e-131 -2.20989e-131
5.53565e-85 -2.30487e-129 -2.30487e-129
2.86182e-87 -2.1049e-127 -2.1049e-127
1.44708e-89 -1.62358e-125 -1.62358e-125
7.16015e-92 -9.9777e-124 -9.9777e-124
3.46839e-94 -4.38434e-122 -4.38434e-122
1.65314e-96 -1.05996e-120 -1.05996e-120
1.61941e-96 -2.0098e-120 -2.0098e-120
0.0148 6.34491e-233 4.63207e-230
0.00544543 -1.91036e-228 -8.61218e-226
0.000680219 -1.23382e-225 -9.08617e-223
4.95346e-05 -3.69359e-223 -2.99872e-220
2.72784e-06 -7.7194e-221 -7.70164e-218
4.6099e-08 -7.68259e-221 -1.26351e-215
1.6846e-09 0 -5.06036e-213
5.36417e-11 2.06498e-210 2.01004e-210
1.54978e-12 -1.08276e-212 -1.08575e-212
3.9908e-14 -4.35558e-210 -4.35707e-210
9.26688e-16 -1.52942e-207 -1.52947e-207
1.95896e-17 -5.21374e-205 -5.21374e-205
3.79996e-19 -1.74726e-202 -1.74726e-202
6.80941e-21 -5.76256e-200 -5.76256e-200
1.13373e-22 -1.86965e-197 -1.86965e-197
1.76252e-24 -5.96521e-195 -5.96521e-195
2.56965e-26 -1.87081e-192 -1.87081e-192
3.52686e-28 -5.76476e-190 -5.76476e-190
4.57249e-30 -1.74452e-187 -1.74452e-187
5.61678e-32 -5.18199e-185 -5.18199e-185
6.55505e-34 -1.51011e-182 -1.51011e-182
7.28603e-36 -4.31475e-180 -4.31475e-180
7.73044e-38 -1.20801e-177 -1.20801e-177
7.84518e-40 -3.31172e-175 -3.31172e-175
7.62957e-42 -8.88359e-173 -8.88359e-173
7.12266e-44 -2.32984e-170 -2.32984e-170
6.39319e-46 -5.96875e-168 -5.96875e-168
5.5254e-48 -1.49225e-165 -1.49225e-165
4.60438e-50 -3.63699e-163 -3.63699e-163
3.70416e-52 -8.63115e-161 -8.63115e-161
2.88026e-54 -1.99182e-158 -1.99182e-158
2.1671e-56 -4.46324e-156 -4.46324e-156
1.57934e-58 -9.69492e-154 -9.69492e-154
1.11596e-60 -2.03758e-151 -2.03758e-151
7.65226e-63 -4.13452e-149 -4.13452e-149
5.09653e-65 -8.07968e-147 -8.07968e-147
3.29955e-67 -1.51623e-144 -1.51623e-144
2.07809e-69 -2.7231e-142 -2.7231e-142
1.27414e-71 -4.66151e-140 -4.66151e-140
7.61054e-74 -7.56897e-138 -7.56897e-138
4.43139e-76 -1.15877e-135 -1.15877e-135
2.51688e-78 -1.66024e-133 -1.66024e-133
1.3952e-80 -2.20515e-131 -2.20515e-131
7.55287e-83 -2.68163e-129 -2.68163e-129
3.99502e-85 -2.93605e-127 -2.93605e-127
2.06577e-87 -2.82644e-125 -2.82644e-125
1.04475e-89 -2.30907e-123 -2.30907e-123
5.17029e-92 -1.51119e-121 -1.51119e-121
2.50487e-94 -7.1153e-120 -7.1153e-120
1.19406e-96 -1.85424e-118 -1.85424e-118
1.16965e-96 -3.52707e-118 -3.52707e-118
0.018 4.08986e-235 2.93923e-228
0.00730679 -9.44516e-231 -3.39656e-224
0.000946317 -5.74927e-228 -9.88636e-221
6.83465e-05 -1.31871e-225 -4.56175e-218
3.71764e-06 -1.8613e-223 -1.8486e-215
0 -1.84817e-223 -1.84405e-215
0 0 0
0 0 2.01005e-210
3.76991e-14 -8.14859e-208 -7.92937e-208
1.75061e-15 -2.02065e-208 -2.02616e-208
5.51587e-17 -7.93696e-206 -7.93902e-206
1.41699e-18 -2.75903e-203 -2.75903e-203
3.15408e-20 -9.34524e-201 -9.34524e-201
6.26598e-22 -3.11623e-198 -3.11623e-198
1.13073e-23 -1.02264e-195 -1.02264e-195
1.87553e-25 -3.3015e-193 -3.3015e-193
2.88421e-27 -1.04815e-190 -1.04815e-190
4.13966e-29 -3.27095e-188 -3.27095e-188
5.5752e-31 -1.00294e-185 -1.00294e-185
7.07685e-33 -3.02009e-183 -3.02009e-183
8.49836e-35 -8.92655e-181 -8.92655e-181
9.68619e-37 -2.58838e-178 -2.58838e-178
1.05081e-38 -7.35866e-176 -7.35866e-176
1.08778e-40 -2.04982e-173 -2.04982e-173
1.07688e-42 -5.59082e-171 -5.59082e-171
1.02162e-44 -1.49194e-168 -1.49194e-168
9.30449e-47 -3.89208e-166 -3.89208e-166
8.14898e-49 -9.91685e-164 -9.91685e-164
6.87358e-51 -2.46541e-161 -2.46541e-161
5.59167e-53 -5.97373e-159 -5.97373e-159
4.3928e-55 -1.40898e-156 -1.40898e-156
3.33661e-57 -3.23042e-154 -3.23042e-154
2.45312e-59 -7.18838e-152 -7.18838e-152
1.74757e-61 -1.54969e-149 -1.54969e-149
1.20747e-63 -3.23008e-147 -3.23008e-147
8.0992e-66 -6.49405e-145 -6.49405e-145
5.27841e-68 -1.2559e-142 -1.2559e-142
3.34513e-70 -2.32881e-140 -2.32881e-140
2.06301e-72 -4.12452e-138 -4.12452e-138
1.23903e-74 -6.94469e-136 -6.94469e-136
7.25187e-77 -1.10533e-133 -1.10533e-133
4.13894e-79 -1.65114e-131 -1.65114e-131
2.30497e-81 -2.29385e-129 -2.29385e-129
1.25323e-83 -2.9284e-127 -2.9284e-127
6.65625e-86 -3.37995e-125 -3.37995e-125
3.45534e-88 -3.44657e-123 -3.44657e-123
1.75402e-90 -2.99918e-121 -2.99918e-121
8.71104e-93 -2.10432e-119 -2.10432e-119
4.23446e-95 -1.07018e-117 -1.07018e-117
2.02504e-97 -3.03529e-116 -3.03529e-116
1.98291e-97 -5.79283e-116 -5.79283e-116
0.0196 2.8487e-235 1.20245e-228
0.00835228 -6.48746e-231 -1.5444e-224
0.00110408 -3.37422e-228 -2.01768e-222
7.94272e-05 -7.12096e-226 -2.59662e-220
4.29897e-06 -9.93671e-224 -4.67765e-218
9.2057e-08 -9.86584e-224 7.32756e-213
0 0 7.32761e-213
0 0 0
0 0 -7.92926e-208
3.54433e-17 3.17493e-205 3.08645e-205
1.72115e-18 -3.20859e-204 -3.21668e-204
5.52899e-20 -1.22981e-201 -1.22981e-201
1.42601e-21 -4.21167e-199 -4.21167e-199
3.15548e-23 -1.4205e-196 -1.4205e-196
6.19122e-25 -4.7169e-194 -4.7169e-194
1.09856e-26 -1.54152e-191 -1.54152e-191
1.78631e-28 -4.95635e-189 -4.95635e-189
2.68746e-30 -1.56718e-186 -1.56718e-186
3.76847e-32 -4.8713e-184 -4.8713e-184
4.95402e-34 -1.48779e-181 -1.48779e-181
6.13474e-36 -4.46274e-179 -4.46274e-179
7.18489e-38 -1.31402e-176 -1.31402e-176
7.98579e-40 -3.7958e-174 -3.7958e-174
8.44847e-42 -1.07509e-171 -1.07509e-171
8.52971e-44 -2.98361e-169 -2.98361e-169
8.2374e-46 -8.10758e-167 -8.10758e-167
7.6251e-48 -2.15553e-164 -2.15553e-164
6.77813e-50 -5.60223e-162 -5.60223e-162
5.79587e-52 -1.42202e-159 -1.42202e-159
4.77467e-54 -3.52158e-157 -3.52158e-157
3.79488e-56 -8.49868e-155 -8.49868e-155
2.91373e-58 -1.99611e-152 -1.99611e-152
2.16383e-60 -4.55617e-150 -4.55617e-150
1.55597e-62 -1.00896e-147 -1.00896e-147
1.08452e-64 -2.16359e-145 -2.16359e-145
7.33429e-67 -4.48276e-143 -4.48276e-143
4.81674e-69 -8.95093e-141 -8.95093e-141
3.07464e-71 -1.71721e-138 -1.71721e-138
1.90911e-73 -3.1538e-136 -3.1538e-136
1.15396e-75 -5.52069e-134 -5.52069e-134
6.79496e-78 -9.16123e-132 -9.16123e-132
3.90039e-80 -1.43143e-129 -1.43143e-129
2.18391e-82 -2.08769e-127 -2.08769e-127
1.19352e-84 -2.80972e-125 -2.80972e-125
6.37006e-87 -3.43533e-123 -3.43533e-123
3.32212e-89 -3.73172e-121 -3.73172e-121
1.69383e-91 -3.48215e-119 -3.48215e-119
8.44745e-94 -2.64035e-117 -2.64035e-117
4.12277e-96 -1.46453e-115 -1.46453e-115
1.97918e-98 -4.57536e-114 -4.57536e-114
1.93719e-98 -8.76221e-114 -8.76221e-114
0.0196 5.08051e-233 1.16539e-228
0.00835226 -1.50134e-228 -1.50174e-224
0.00110407 -7.62292e-226 -1.29163e-222
7.9427e-05 -1.96496e-223 -3.57719e-221
4.30557e-06 -4.06359e-221 -8.00982e-220
1.83973e-07 -5.91991e-219 -7.24871e-219
3.23324e-09 -5.87947e-219 -2.89055e-210
0 0 -2.89055e-210
0 0 0
0 0 3.08844e-205
2.9805e-20 -1.25488e-202 -1.25185e-202
7.75975e-21 -4.43445e-200 -4.43445e-200
3.57577e-22 -1.53605e-197 -1.53605e-197
1.07543e-23 -5.24219e-195 -5.24219e-195
2.56132e-25 -1.76211e-192 -1.76211e-192
5.19874e-27 -5.83211e-190 -5.83211e-190
9.33307e-29 -1.89995e-187 -1.89995e-187
1.51504e-30 -6.09006e-185 -6.09006e-185
2.25632e-32 -1.91998e-182 -1.91998e-182
3.11478e-34 -5.95099e-180 -5.95099e-180
4.01647e-36 -1.81261e-177 -1.81261e-177
4.86695e-38 -5.42294e-175 -5.42294e-175
5.56886e-40 -1.59279e-172 -1.59279e-172
6.04097e-42 -4.59026e-170 -4.59026e-170
6.23365e-44 -1.2972e-167 -1.2972e-167
6.13663e-46 -3.59241e-165 -3.59241e-165
5.77781e-48 -9.74235e-163 -9.74235e-163
5.21443e-50 -2.58523e-160 -2.58523e-160
4.51978e-52 -6.70685e-158 -6.70685e-158
3.76934e-54 -1.69944e-155 -1.69944e-155
3.02932e-56 -4.20142e-153 -4.20142e-153
2.34958e-58 -1.01221e-150 -1.01221e-150
1.76108e-60 -2.37326e-148 -2.37326e-148
1.27716e-62 -5.40693e-146 -5.40693e-146
8.97174e-65 -1.19487e-143 -1.19487e-143
6.11126e-67 -2.55608e-141 -2.55608e-141
4.04046e-69 -5.2805e-139 -5.2805e-139
2.5952e-71 -1.05052e-136 -1.05052e-136
1.62077e-73 -2.00584e-134 -2.00584e-134
9.84986e-76 -3.66084e-132 -3.66084e-132
5.82936e-78 -6.35432e-130 -6.35432e-130
3.36203e-80 -1.04233e-127 -1.04233e-127
1.89088e-82 -1.60266e-125 -1.60266e-125
1.03772e-84 -2.28497e-123 -2.28497e-123
5.56046e-87 -2.9763e-121 -2.9763e-121
2.91074e-89 -3.46726e-119 -3.46726e-119
1.48934e-91 -3.49726e-117 -3.49726e-117
7.4525e-94 -2.89388e-115 -2.89388e-115
3.64875e-96 -1.77198e-113 -1.77198e-113
1.75694e-98 -6.19174e-112 -6.19174e-112
1.71964e-98 -1.19004e-111 -1.19004e-111
0.018 3.40486e-231 -2.00107e-228
0.00730637 -2.86084e-226 4.31109e-224
0.00094623 -1.34676e-223 3.22913e-222
6.83391e-05 -4.04704e-221 5.05007e-221
3.72662e-06 -1.06221e-218 -8.84264e-219
1.6575e-07 -2.37585e-216 -2.34742e-216
6.01297e-09 -3.785e-214 -3.78227e-214
8.51812e-11 -3.76135e-214 1.12656e-207
0 0 1.12656e-207
0 0 0
0 -3.40328e-201 -3.40254e-201
3.62837e-19 -1.21322e-198 -1.21322e-198
1.28832e-20 -4.25226e-196 -4.25226e-196
3.19175e-22 -1.46903e-193 -1.46903e-193
6.56995e-24 -5.0009e-191 -5.0009e-191
1.19001e-25 -1.67704e-188 -1.67704e-188
1.94936e-27 -5.53832e-186 -5.53832e-186
2.93432e-29 -1.80056e-183 -1.80056e-183
4.10162e-31 -5.76073e-181 -5.76073e-181
5.36417e-33 -1.8131e-178 -1.8131e-178
6.60146e-35 -5.61131e-176 -5.61131e-176
7.67978e-37 -1.70694e-173 -1.70694e-173
8.47734e-39 -5.10125e-171 -5.10125e-171
8.90732e-41 -1.49701e-168 -1.49701e-168
8.93294e-43 -4.31144e-166 -4.31144e-166
8.57109e-45 -1.21791e-163 -1.21791e-163
7.88473e-47 -3.37223e-161 -3.37223e-161
6.9673e-49 -9.14588e-159 -9.14588e-159
5.92389e-51 -2.42772e-156 -2.42772e-156
4.85382e-53 -6.30173e-154 -6.30173e-154
3.83801e-55 -1.59805e-151 -1.59805e-151
2.93249e-57 -3.9548e-149 -3.9548e-149
2.16768e-59 -9.53957e-147 -9.53957e-147
1.55189e-61 -2.23976e-144 -2.23976e-144
1.07716e-63 -5.11038e-142 -5.11038e-142
7.25559e-66 -1.13105e-139 -1.13105e-139
4.74707e-68 -2.42301e-137 -2.42301e-137
3.01929e-70 -5.01147e-135 -5.01147e-135
1.86834e-72 -9.97665e-133 -9.97665e-133
1.12564e-74 -1.90458e-130 -1.90458e-130
6.60766e-77 -3.47065e-128 -3.47065e-128
3.78167e-79 -6.00198e-126 -6.00198e-126
2.11147e-81 -9.77649e-124 -9.77649e-124
1.15083e-83 -1.485e-121 -1.485e-121
6.12641e-86 -2.07453e-119 -2.07453e-119
3.1872e-88 -2.61264e-117 -2.61264e-117
1.62123e-90 -2.87646e-115 -2.87646e-115
8.06724e-93 -2.62909e-113 -2.62909e-113
3.92876e-95 -1.80473e-111 -1.80473e-111
1.88215e-97 -7.19693e-110 -7.19693e-110
1.843e-97 -1.38843e-109 -1.38843e-109
0.0148 -8.71994e-229 -5.10656e-229
0.00543793 -3.88526e-224 -9.22051e-224
0.000678821 -1.69812e-221 -2.07141e-221
4.94136e-05 -5.88775e-219 -5.99177e-219
2.7234e-06 -1.89798e-216 -1.90012e-216
1.22228e-07 -5.66097e-214 -5.66134e-214
4.61892e-09 -1.48319e-211 -1.48319e-211
1.4535e-10 -2.88176e-209 -2.88176e-209
1.63052e-12 -2.86699e-209 -4.33788e-205
3.9878e-14 0 -1.61216e-202
9.05939e-16 -6.20994e-200 -6.22602e-200
1.91681e-17 -2.2399e-197 -2.2399e-197
3.72099e-19 -7.9471e-195 -7.9471e-195
6.67211e-21 -2.78043e-192 -2.78043e-192