# vtk DataFile Version 2.0
Tobias Weinzierl: CPU, Manycore and Cluster Computing
ASCII

DATASET STRUCTURED_POINTS
DIMENSIONS  51 11 6

ORIGIN 0 0 0 

SPACING 0.1 0.1 0.1 

POINT_DATA 3366

VECTORS velocity float
0 0 0
3.16236e-11 0 0
-3.52284e-07 0 0
-5.14275e-07 0 0
-4.41332e-07 0 0
-1.20003e-07 0 0
-9.06964e-08 0 0
-1.87827e-07 0 0
-3.0645e-07 0 0
-3.87007e-07 0 0
-4.07679e-07 0 0
-4.00217e-07 0 0
-3.89681e-07 0 0
-3.83898e-07 0 0
-3.83189e-07 0 0
-3.85644e-07 0 0
-3.89246e-07 0 0
-3.9274e-07 0 0
-3.9559e-07 0 0
-3.97688e-07 0 0
-3.99111e-07 0 0
-3.99987e-07 0 0
-4.00428e-07 0 0
-4.00511e-07 0 0
-4.00272e-07 0 0
-3.99705e-07 0 0
-3.98765e-07 0 0
-3.97365e-07 0 0
-3.95368e-07 0 0
-3.92586e-07 0 0
-3.88768e-07 0 0
-3.83609e-07 0 0
-3.76768e-07 0 0
-3.67913e-07 0 0
-3.56776e-07 0 0
-3.43185e-07 0 0
-3.27078e-07 0 0
-3.08531e-07 0 0
-2.87818e-07 0 0
-2.65444e-07 0 0
-2.42126e-07 0 0
-2.1871e-07 0 0
-1.96052e-07 0 0
-1.74918e-07 0 0
-1.55923e-07 0 0
-1.39499e-07 0 0
-1.25912e-07 0 0
-1.15306e-07 0 0
-1.07783e-07 0 0
-1.03705e-07 0 0
0.00184305 0 0
0 5.05932e-07 0
1.66606e-10 2.10377e-07 0
-6.93743e-07 3.16062e-07 0
-1.01143e-06 1.60706e-07 0
-8.03042e-07 4.57079e-08 0
-2.30473e-07 7.36858e-08 0
-1.3227e-07 1.92404e-07 0
-2.43147e-07 1.94497e-07 0
-3.72586e-07 1.4363e-07 0
-5.09601e-07 8.02316e-08 0
-5.60477e-07 2.5179e-08 0
-5.74135e-07 3.00093e-09 0
-5.89075e-07 -2.41869e-10 0
-6.09063e-07 2.13288e-09 0
-6.31121e-07 5.01542e-09 0
-6.51991e-07 6.53173e-09 0
-6.69398e-07 6.50814e-09 0
-6.82627e-07 5.5656e-09 0
-6.92021e-07 4.3083e-09 0
-6.98343e-07 3.08489e-09 0
-7.02377e-07 2.03204e-09 0
-7.04759e-07 1.16438e-09 0
-7.05941e-07 4.39551e-10 0
-7.06201e-07 -2.06296e-10 0
-7.05676e-07 -8.43432e-10 0
-7.04388e-07 -1.54491e-09 0
-7.02253e-07 -2.38864e-09 0
-6.99091e-07 -3.46155e-09 0
-6.9462e-07 -4.86323e-09 0
-6.88444e-07 -6.70539e-09 0
-6.80046e-07 -9.10206e-09 0
-6.68797e-07 -1.21439e-08 0
-6.54001e-07 -1.58579e-08 0
-6.35004e-07 -2.01726e-08 0
-6.11332e-07 -2.49214e-08 0
-5.82773e-07 -2.98784e-08 0
-5.49362e-07 -3.47712e-08 0
-5.11406e-07 -3.92606e-08 0
-4.69566e-07 -4.29449e-08 0
-4.24932e-07 -4.54261e-08 0
-3.7896e-07 -4.64085e-08 0
-3.33288e-07 -4.57722e-08 0
-2.89508e-07 -4.35851e-08 0
-2.49006e-07 -4.00616e-08 0
-2.12866e-07 -3.55009e-08 0
-1.81821e-07 -3.02159e-08 0
-1.56289e-07 -2.44751e-08 0
-1.36466e-07 -1.84514e-08 0
-1.22453e-07 -1.20608e-08 0
-1.14729e-07 -5.02324e-09 0
0.00454831 -3.78368e-06 0
0 6.88527e-08 0
4.11243e-10 2.69485e-07 0
-5.8814e-07 3.42855e-07 0
-8.65145e-07 9.58671e-08 0
-4.75157e-07 5.4868e-08 0
-1.70552e-07 1.13094e-07 0
-2.42759e-07 1.5918e-07 0
-3.51612e-07 5.35635e-08 0
-3.18233e-07 -2.97059e-09 0
-3.26859e-07 6.04847e-08 0
-3.33285e-07 9.63578e-08 0
-3.39744e-07 1.21937e-07 0
-3.68469e-07 1.17903e-07 0
-4.02238e-07 9.38761e-08 0
-4.35211e-07 6.90422e-08 0
-4.63958e-07 4.92622e-08 0
-4.86361e-07 3.43389e-08 0
-5.0237e-07 2.33665e-08 0
-5.13115e-07 1.54935e-08 0
-5.19983e-07 9.95195e-09 0
-5.24163e-07 6.07937e-09 0
-5.26525e-07 3.33558e-09 0
-5.27638e-07 1.2988e-09 0
-5.27833e-07 -3.54668e-10 0
-5.27273e-07 -1.87789e-09 0
-5.25989e-07 -3.48085e-09 0
-5.23907e-07 -5.35471e-09 0
-5.20861e-07 -7.69087e-09 0
-5.16586e-07 -1.06931e-08 0
-5.10711e-07 -1.45789e-08 0
-5.02737e-07 -1.95614e-08 0
-4.9203e-07 -2.57989e-08 0
-4.7784e-07 -3.33045e-08 0
-4.59423e-07 -4.18548e-08 0
-4.36259e-07 -5.09939e-08 0
-4.08211e-07 -6.01583e-08 0
-3.75447e-07 -6.87736e-08 0
-3.38374e-07 -7.62328e-08 0
-2.97754e-07 -8.18877e-08 0
-2.54796e-07 -8.51531e-08 0
-2.11073e-07 -8.56671e-08 0
-1.68242e-07 -8.33886e-08 0
-1.27763e-07 -7.85554e-08 0
-9.08236e-08 -7.15839e-08 0
-5.82924e-08 -6.29915e-08 0
-3.06783e-08 -5.33012e-08 0
-8.18167e-09 -4.2943e-08 0
9.19924e-09 -3.21881e-08 0
2.15547e-08 -2.10463e-08 0
2.86408e-08 -9.26826e-09 0
0.0055059 -8.15757e-06 0
0 -5.69459e-07 0
5.74077e-10 1.60098e-07 0
-4.82041e-07 7.35013e-08 0
-7.84168e-07 -2.49567e-07 0
-3.68855e-07 -1.55417e-07 0
-6.00881e-08 7.36781e-09 0
-2.00992e-07 -9.97013e-11 0
-2.96287e-07 -2.52197e-07 0
-6.03043e-07 -4.39598e-07 0
-5.50281e-07 -2.24804e-07 0
-4.90934e-07 2.8071e-08 0
-4.48003e-07 1.70723e-07 0
-4.24218e-07 1.95114e-07 0
-4.06106e-07 1.5564e-07 0
-4.00735e-07 1.11692e-07 0
-4.04696e-07 7.72288e-08 0
-4.11459e-07 5.19342e-08 0
-4.17481e-07 3.4046e-08 0
-4.21792e-07 2.1782e-08 0
-4.24538e-07 1.35395e-08 0
-4.26135e-07 8.0178e-09 0
-4.26944e-07 4.23867e-09 0
-4.27206e-07 1.49826e-09 0
-4.27047e-07 -7.04634e-10 0
-4.26509e-07 -2.73767e-09 0
-4.25566e-07 -4.89198e-09 0
-4.24139e-07 -7.42567e-09 0
-4.22086e-07 -1.05956e-08 0
-4.19197e-07 -1.46783e-08 0
-4.15161e-07 -1.99785e-08 0
-4.09535e-07 -2.68158e-08 0
-4.01674e-07 -3.54637e-08 0
-3.9068e-07 -4.60081e-08 0
-3.75474e-07 -5.81453e-08 0
-3.55147e-07 -7.11182e-08 0
-3.29371e-07 -8.39642e-08 0
-2.98265e-07 -9.57886e-08 0
-2.62176e-07 -1.05739e-07 0
-2.21912e-07 -1.12933e-07 0
-1.78931e-07 -1.16604e-07 0
-1.35222e-07 -1.1637e-07 0
-9.27862e-08 -1.1237e-07 0
-5.31368e-08 -1.05097e-07 0
-1.74023e-08 -9.51799e-08 0
1.36438e-08 -8.33284e-08 0
3.96662e-08 -7.02479e-08 0
6.06812e-08 -5.6499e-08 0
7.68996e-08 -4.24131e-08 0
8.85783e-08 -2.79467e-08 0
9.54932e-08 -1.27662e-08 0
0.00554788 -1.19271e-05 0
0 -1.09218e-06 0
5.36557e-10 2.09613e-08 0
-4.97238e-07 -1.27535e-07 0
-8.60667e-07 -3.03891e-07 0
-6.07574e-07 -1.83309e-07 0
-1.47761e-10 -2.81332e-08 0
2.20381e-09 1.47481e-09 0
-1.70122e-09 1.57999e-09 0
-3.50942e-07 -2.54672e-07 0
-6.27126e-07 -3.69195e-07 0
-5.75401e-07 -8.48083e-08 0
-5.71229e-07 1.17546e-07 0
-5.50589e-07 1.64073e-07 0
-4.99778e-07 1.33988e-07 0
-4.58473e-07 9.9792e-08 0
-4.34957e-07 7.13008e-08 0
-4.22973e-07 4.84704e-08 0
-4.16811e-07 3.15716e-08 0
-4.13445e-07 1.98971e-08 0
-4.11479e-07 1.21329e-08 0
-4.10267e-07 6.99457e-09 0
-4.09479e-07 3.48143e-09 0
-4.08918e-07 8.84249e-10 0
-4.08453e-07 -1.28968e-09 0
-4.07986e-07 -3.3981e-09 0
-4.07429e-07 -5.72967e-09 0
-4.06689e-07 -8.55262e-09 0
-4.05652e-07 -1.21504e-08 0
-4.04155e-07 -1.68478e-08 0
-4.0195e-07 -2.30282e-08 0
-3.98645e-07 -3.11344e-08 0
-3.9359e-07 -4.16246e-08 0
-3.85694e-07 -5.47959e-08 0
-3.7332e-07 -7.0404e-08 0
-3.54766e-07 -8.7363e-08 0
-3.29274e-07 -1.04109e-07 0
-2.97015e-07 -1.19281e-07 0
-2.58352e-07 -1.31753e-07 0
-2.14259e-07 -1.40394e-07 0
-1.66704e-07 -1.44214e-07 0
-1.18551e-07 -1.42832e-07 0
-7.25429e-08 -1.36763e-07 0
-3.02683e-08 -1.26926e-07 0
7.20214e-09 -1.14169e-07 0
3.91636e-08 -9.93729e-08 0
6.54848e-08 -8.34113e-08 0
8.64511e-08 -6.69431e-08 0
1.02514e-07 -5.03102e-08 0
1.14101e-07 -3.33638e-08 0
1.21043e-07 -1.5552e-08 0
0.00540114 -1.47265e-05 0
0 -9.71742e-07 0
4.90951e-10 -5.61931e-08 0
-5.04524e-07 -1.72045e-07 0
-8.93417e-07 -2.53806e-07 0
-7.5766e-07 -2.53334e-07 0
-2.38679e-07 -1.15423e-07 0
2.0009e-09 -2.00883e-09 0
3.0785e-10 -3.0785e-10 0
-1.7522e-09 1.65122e-09 0
-2.81106e-07 -1.47099e-07 0
-4.18674e-07 -1.0057e-07 0
-5.73666e-07 1.52818e-07 0
-6.50642e-07 1.74294e-07 0
-5.98085e-07 1.09529e-07 0
-5.24051e-07 6.9248e-08 0
-4.73139e-07 4.58573e-08 0
-4.43954e-07 2.9711e-08 0
-4.27829e-07 1.86466e-08 0
-4.18849e-07 1.14452e-08 0
-4.1378e-07 6.83548e-09 0
-4.10899e-07 3.78528e-09 0
-4.09266e-07 1.58761e-09 0
-4.08355e-07 -2.1453e-10 0
-4.07864e-07 -1.92774e-09 0
-4.07621e-07 -3.78584e-09 0
-4.0752e-07 -6.00265e-09 0
-4.0749e-07 -8.80859e-09 0
-4.07465e-07 -1.24789e-08 0
-4.07354e-07 -1.73586e-08 0
-4.07004e-07 -2.38855e-08 0
-4.06129e-07 -3.26106e-08 0
-4.04172e-07 -4.42006e-08 0
-3.99967e-07 -5.9303e-08 0
-3.9124e-07 -7.7998e-08 0
-3.74915e-07 -9.89839e-08 0
-3.4926e-07 -1.1984e-07 0
-3.14676e-07 -1.38475e-07 0
-2.71735e-07 -1.53498e-07 0
-2.21675e-07 -1.63572e-07 0
-1.67001e-07 -1.67339e-07 0
-1.12093e-07 -1.64321e-07 0
-6.10168e-08 -1.55748e-07 0
-1.51537e-08 -1.43267e-07 0
2.464e-08 -1.27887e-07 0
5.77808e-08 -1.10578e-07 0
8.44547e-08 -9.23562e-08 0
1.05323e-07 -7.39333e-08 0
1.21141e-07 -5.55996e-08 0
1.3253e-07 -3.7045e-08 0
1.39375e-07 -1.74336e-08 0
0.0051916 -1.63577e-05 0
0 -6.91612e-07 0
4.61504e-10 -1.02123e-07 0
-4.77255e-07 -2.2187e-07 0
-8.77909e-07 -1.93185e-07 0
-7.94738e-07 -1.38833e-07 0
-5.23494e-07 -1.75349e-07 0
-2.19167e-07 -1.09914e-07 0
1.99617e-09 -2.02221e-09 0
2.70382e-10 -2.70382e-10 0
-1.81145e-09 1.69393e-09 0
-1.53715e-07 1.65872e-07 0
-5.20815e-07 3.5076e-07 0
-7.78925e-07 2.47987e-07 0
-7.23946e-07 7.54195e-08 0
-5.86747e-07 1.44246e-08 0
-4.96824e-07 2.81468e-09 0
-4.52267e-07 1.01584e-09 0
-4.31291e-07 7.15297e-10 0
-4.21172e-07 6.97533e-10 0
-4.16121e-07 6.11496e-10 0
-4.13547e-07 2.99462e-10 0
-4.12251e-07 -2.78516e-10 0
-4.11664e-07 -1.12345e-09 0
-4.11515e-07 -2.25248e-09 0
-4.11681e-07 -3.72408e-09 0
-4.12115e-07 -5.64867e-09 0
-4.12813e-07 -8.19714e-09 0
-4.13788e-07 -1.16136e-08 0
-4.15052e-07 -1.62344e-08 0
-4.16578e-07 -2.2514e-08 0
-4.18243e-07 -3.1058e-08 0
-4.19692e-07 -4.26736e-08 0
-4.19917e-07 -5.83762e-08 0
-4.16182e-07 -7.88845e-08 0
-4.0344e-07 -1.03158e-07 0
-3.77834e-07 -1.27971e-07 0
-3.40135e-07 -1.50313e-07 0
-2.915e-07 -1.685e-07 0
-2.33573e-07 -1.80942e-07 0
-1.69016e-07 -1.85282e-07 0
-1.04864e-07 -1.80423e-07 0
-4.78164e-08 -1.68987e-07 0
1.83998e-09 -1.53934e-07 0
4.377e-08 -1.36279e-07 0
7.76225e-08 -1.16981e-07 0
1.04085e-07 -9.71781e-08 0
1.24324e-07 -7.75808e-08 0
1.39459e-07 -5.83632e-08 0
1.50326e-07 -3.90035e-08 0
1.56875e-07 -1.83968e-08 0
0.00494576 -1.69316e-05 0
0 -5.01539e-07 0
3.89363e-10 -1.36451e-07 0
-4.66921e-07 -2.48411e-07 0
-8.32214e-07 -1.66892e-07 0
-7.7485e-07 -8.2986e-08 0
-5.72709e-07 -9.10854e-08 0
-4.58644e-07 -2.35986e-07 0
-3.00341e-07 -1.72972e-07 0
1.9344e-09 -2.11073e-09 0
-1.84885e-09 -2.44843e-09 0
2.42736e-10 3.38154e-07 0
-3.45769e-07 6.61336e-07 0
-7.15088e-07 3.73187e-07 0
-7.40487e-07 1.03362e-08 0
-6.03013e-07 -7.15219e-08 0
-5.03083e-07 -4.80266e-08 0
-4.58061e-07 -2.47503e-08 0
-4.41174e-07 -1.22588e-08 0
-4.35339e-07 -5.85693e-09 0
-4.33416e-07 -2.65713e-09 0
-4.32828e-07 -1.2672e-09 0
-4.32728e-07 -9.33124e-10 0
-4.32875e-07 -1.24061e-09 0
-4.33237e-07 -1.99108e-09 0
-4.33849e-07 -3.1288e-09 0
-4.34776e-07 -4.69791e-09 0
-4.36105e-07 -6.82381e-09 0
-4.3794e-07 -9.71314e-09 0
-4.404e-07 -1.3669e-08 0
-4.43597e-07 -1.9119e-08 0
-4.47589e-07 -2.6651e-08 0
-4.52265e-07 -3.70663e-08 0
-4.56945e-07 -5.14922e-08 0
-4.58846e-07 -7.12446e-08 0
-4.50823e-07 -9.62764e-08 0
-4.25342e-07 -1.23667e-07 0
-3.83485e-07 -1.50422e-07 0
-3.27374e-07 -1.74688e-07 0
-2.57645e-07 -1.93359e-07 0
-1.77495e-07 -2.00814e-07 0
-9.98868e-08 -1.94557e-07 0
-3.54486e-08 -1.79988e-07 0
1.80901e-08 -1.6219e-07 0
6.16352e-08 -1.42182e-07 0
9.53686e-08 -1.20958e-07 0
1.20735e-07 -9.97794e-08 0
1.39537e-07 -7.93003e-08 0
1.53302e-07 -5.95306e-08 0
1.63103e-07 -3.97365e-08 0
1.69022e-07 -1.86917e-08 0
0.00468168 -1.70533e-05 0
0 -4.66966e-07 0
2.97269e-10 -1.46667e-07 0
-4.87903e-07 -2.52364e-07 0
-8.06859e-07 -1.4489e-07 0
-7.86131e-07 -5.65192e-08 0
-6.42636e-07 -4.93719e-08 0
-5.09067e-07 -1.23741e-07 0
-5.40653e-07 -3.41935e-07 0
-4.39887e-07 -2.50224e-07 0
-6.11365e-07 8.77876e-12 0
-6.40271e-07 3.31024e-07 0
-4.07777e-07 7.12117e-07 0
-3.75015e-07 4.50774e-07 0
-5.00665e-07 5.20681e-09 0
-5.36851e-07 -1.15062e-07 0
-5.30896e-07 -7.37206e-08 0
-5.27989e-07 -3.20261e-08 0
-5.29809e-07 -1.19409e-08 0
-5.32399e-07 -3.88367e-09 0
-5.34285e-07 -9.5712e-10 0
-5.35414e-07 -1.17236e-10 0
-5.36096e-07 -1.47013e-10 0
-5.36631e-07 -5.80709e-10 0
-5.37241e-07 -1.26247e-09 0
-5.38092e-07 -2.1743e-09 0
-5.39329e-07 -3.3723e-09 0
-5.41101e-07 -4.9684e-09 0
-5.4358e-07 -7.13356e-09 0
-5.46974e-07 -1.01149e-08 0
-5.51519e-07 -1.42661e-08 0
-5.57446e-07 -2.00875e-08 0
-5.64868e-07 -2.82507e-08 0
-5.73393e-07 -3.96181e-08 0
-5.80449e-07 -5.53811e-08 0
-5.77526e-07 -7.6554e-08 0
-5.52705e-07 -1.02324e-07 0
-5.06608e-07 -1.32043e-07 0
-4.4307e-07 -1.65022e-07 0
-3.54472e-07 -1.9493e-07 0
-2.42269e-07 -2.08365e-07 0
-1.40016e-07 -2.00863e-07 0
-6.28765e-08 -1.83371e-07 0
-1.94059e-09 -1.63526e-07 0
4.53708e-08 -1.42031e-07 0
8.03683e-08 -1.19883e-07 0
1.05568e-07 -9.82483e-08 0
1.23486e-07 -7.76098e-08 0
1.36097e-07 -5.7862e-08 0
1.44758e-07 -3.82802e-08 0
1.49799e-07 -1.79832e-08 0
0.00436016 -1.73026e-05 0
0 -5.15295e-07 0
2.10099e-10 -9.82527e-08 0
-5.11849e-07 -1.66101e-07 0
-7.97426e-07 -9.44659e-08 0
-8.31203e-07 -4.81223e-08 0
-7.92426e-07 -7.05146e-08 0
-7.11072e-07 -1.20107e-07 0
-6.52975e-07 -1.15207e-07 0
-7.94139e-07 1.39102e-07 0
-8.21519e-07 2.88727e-07 0
-8.21093e-07 -1.73865e-08 0
-6.2248e-07 -2.56971e-07 0
-5.60662e-07 -1.58531e-07 0
-6.84407e-07 1.26528e-08 0
-7.42427e-07 7.7819e-08 0
-7.38729e-07 6.6225e-08 0
-7.2725e-07 3.85597e-08 0
-7.20661e-07 1.92333e-08 0
-7.17722e-07 9.10402e-09 0
-7.16458e-07 4.29095e-09 0
-7.15908e-07 1.99686e-09 0
-7.15742e-07 7.99825e-10 0
-7.15886e-07 5.16654e-11 0
-7.16369e-07 -5.44185e-10 0
-7.17263e-07 -1.14015e-09 0
-7.1868e-07 -1.83874e-09 0
-7.20776e-07 -2.73586e-09 0
-7.23765e-07 -3.94546e-09 0
-7.27937e-07 -5.61968e-09 0
-7.33663e-07 -7.97167e-09 0
-7.41394e-07 -1.13052e-08 0
-7.51561e-07 -1.60331e-08 0
-7.64166e-07 -2.25989e-08 0
-7.77213e-07 -3.14376e-08 0
-7.83248e-07 -4.35729e-08 0
-7.70143e-07 -6.02785e-08 0
-7.35491e-07 -8.16178e-08 0
-6.82752e-07 -1.08113e-07 0
-5.91176e-07 -1.35696e-07 0
-4.48211e-07 -1.51398e-07 0
-3.06124e-07 -1.46226e-07 0
-2.07091e-07 -1.30203e-07 0
-1.32496e-07 -1.15273e-07 0
-7.45701e-08 -1.00942e-07 0
-3.19431e-08 -8.59745e-08 0
-1.53144e-09 -7.0831e-08 0
1.98213e-08 -5.59336e-08 0
3.45378e-08 -4.13694e-08 0
4.42198e-08 -2.69613e-08 0
4.93436e-08 -1.28408e-08 0
0.00351358 -1.5253e-05 0
0 0 0
9.28983e-11 0 0
-2.56257e-07 0 0
-3.93798e-07 0 0
-4.30677e-07 0 0
-4.37543e-07 0 0
-4.41492e-07 0 0
-4.12645e-07 0 0
-3.54345e-07 0 0
-2.10187e-07 0 0
-1.80583e-07 0 0
-3.24272e-07 0 0
-4.77004e-07 0 0
-5.27622e-07 0 0
-5.00877e-07 0 0
-4.59359e-07 0 0
-4.31285e-07 0 0
-4.16751e-07 0 0
-4.10002e-07 0 0
-4.0698e-07 0 0
-4.05645e-07 0 0
-4.05101e-07 0 0
-4.04984e-07 0 0
-4.05164e-07 0 0
-4.05614e-07 0 0
-4.06365e-07 0 0
-4.07489e-07 0 0
-4.09103e-07 0 0
-4.11373e-07 0 0
-4.14526e-07 0 0
-4.18854e-07 0 0
-4.24679e-07 0 0
-4.32147e-07 0 0
-4.4049e-07 0 0
-4.46699e-07 0 0
-4.45678e-07 0 0
-4.34996e-07 0 0
-4.15614e-07 0 0
-3.74098e-07 0 0
-2.98341e-07 0 0
-2.15655e-07 0 0
-1.59443e-07 0 0
-1.1802e-07 0 0
-8.53043e-08 0 0
-6.09549e-08 0 0
-4.34567e-08 0 0
-3.10946e-08 0 0
-2.25496e-08 0 0
-1.69781e-08 0 0
-1.41479e-08 0 0
0.00142702 0 0
0 0 5.12704e-07
2.53078e-10 0 1.42011e-07
-7.44014e-07 0 1.98347e-07
-1.16063e-06 0 -7.15563e-08
-1.096e-06 0 -4.39881e-07
-5.38723e-08 0 -4.24225e-07
1.55245e-07 0 -1.24486e-07
3.95047e-08 0 2.1346e-08
-1.59448e-07 0 5.56354e-08
-3.30193e-07 0 2.10788e-08
-4.2948e-07 0 -1.18935e-08
-4.93902e-07 0 -2.0929e-08
-5.45155e-07 0 -1.6013e-08
-5.86445e-07 0 -8.56643e-09
-6.19571e-07 0 -3.2165e-09
-6.46057e-07 0 -4.26994e-10
-6.66483e-07 0 6.29708e-10
-6.81478e-07 0 8.13748e-10
-6.91989e-07 0 6.7009e-10
-6.99055e-07 0 4.62318e-10
-7.03599e-07 0 2.88131e-10
-7.06336e-07 0 1.68256e-10
-7.07767e-07 0 9.54596e-11
-7.08204e-07 0 5.64742e-11
-7.07807e-07 0 3.98199e-11
-7.06612e-07 0 3.74955e-11
-7.04546e-07 0 4.44641e-11
-7.01429e-07 0 5.75749e-11
-6.96977e-07 0 7.45167e-11
-6.90783e-07 0 9.30901e-11
-6.82319e-07 0 1.11185e-10
-6.70942e-07 0 1.27841e-10
-6.55956e-07 0 1.44504e-10
-6.3672e-07 0 1.62741e-10
-6.12785e-07 0 1.75706e-10
-5.83973e-07 0 1.62371e-10
-5.5037e-07 0 9.92762e-11
-5.12351e-07 0 -1.71008e-11
-4.70637e-07 0 -1.59627e-10
-4.26332e-07 0 -2.81355e-10
-3.80849e-07 0 -3.39461e-10
-3.3575e-07 0 -3.15501e-10
-2.9254e-07 0 -2.18901e-10
-2.52541e-07 0 -7.77361e-11
-2.16799e-07 0 7.19451e-11
-1.86045e-07 0 1.96805e-10
-1.60721e-07 0 2.75484e-10
-1.41045e-07 0 3.16558e-10
-1.27137e-07 0 4.55367e-10
-1.19502e-07 0 1.08063e-09
0.00456111 0 4.17625e-06
0.0036 3.15591e-07 2.81322e-07
0.00359924 -0.00237526 -0.000849476
0.00891301 -0.00630946 -0.00234071
0.0180998 -0.00904335 -0.00336742
0.0297895 -0.0117482 -0.00372859
0.0465571 -0.00740303 -0.0021887
0.0481551 3.61287e-05 -0.000179974
0.0474488 0.0030666 0.000458774
0.0420804 0.0046238 0.000353143
0.036596 0.0043698 -6.751e-05
0.03183 0.00356193 -0.000263123
0.0280882 0.00264629 -0.000251335
0.025455 0.00182362 -0.000168615
0.023744 0.00119039 -9.24637e-05
0.0226808 0.00075045 -4.36916e-05
0.0220389 0.000460986 -1.80815e-05
0.0216607 0.00027679 -6.43283e-06
0.0214428 0.000162877 -1.77591e-06
0.0213198 9.43321e-05 -1.79978e-07
0.0212513 5.42361e-05 2.42532e-07
0.0212129 3.15746e-05 2.95978e-07
0.0211904 1.94573e-05 2.84653e-07
0.021175 1.37453e-05 3.07103e-07
0.0211617 1.20787e-05 3.88466e-07
0.0211469 1.32365e-05 5.34651e-07
0.0211278 1.67408e-05 7.52788e-07
0.0211016 2.26343e-05 1.05902e-06
0.0210651 3.13738e-05 1.48304e-06
0.0210141 4.38009e-05 2.07372e-06
0.0209431 6.11581e-05 2.90817e-06
0.0208444 8.51081e-05 4.105e-06
0.0207083 0.000117684 5.83758e-06
0.0205219 0.000161022 8.3274e-06
0.0202699 0.000216667 1.17729e-05
0.0199351 0.000284377 1.61823e-05
0.0195022 0.000360869 2.12017e-05
0.0189622 0.000439511 2.61458e-05
0.0183171 0.000511493 3.02538e-05
0.0175816 0.000567972 3.29464e-05
0.0167822 0.000602234 3.39538e-05
0.0159528 0.000611113 3.33372e-05
0.0151292 0.000595243 3.14433e-05
0.0143439 0.000558094 2.87485e-05
0.0136227 0.000504334 2.56227e-05
0.0129845 0.000438455 2.22183e-05
0.0124422 0.000364133 1.85331e-05
0.0120046 0.000284073 1.45186e-05
0.0116772 0.00019999 1.01897e-05
0.0114631 0.000113524 6.26839e-06
0.0113631 3.48841e-05 6.85199e-06
0.011363 -1.83746e-07 9.12164e-06
0.01 3.13865e-07 -4.83977e-07
0.0100012 -0.00458147 -0.00152138
0.0155266 -0.012696 -0.00374718
0.0246785 -0.0186638 -0.00465096
0.0364086 -0.026108 -0.00397815
0.0549547 -0.016796 -0.000990475
0.054125 -0.000454921 0.001317
0.054735 0.00614492 0.00153292
0.0484952 0.0108961 0.00103066
0.0419759 0.0103817 0.000100557
0.0367095 0.00866382 -0.000378339
0.0327079 0.00649958 -0.00039825
0.0300738 0.00442308 -0.000270736
0.0285062 0.00281625 -0.000148296
0.0276078 0.00172455 -6.90922e-05
0.0271057 0.00102789 -2.76319e-05
0.0268328 0.000598594 -8.9524e-06
0.026689 0.000341386 -1.64819e-06
0.0266155 0.000191441 6.77587e-07
0.0265789 0.000106663 1.09069e-06
0.0265603 6.07234e-05 8.9987e-07
0.0265493 3.77357e-05 5.98468e-07
0.02654 2.84858e-05 3.38337e-07
0.0265287 2.79357e-05 1.44134e-07
0.0265129 3.36546e-05 1.84777e-09
0.02649 4.48916e-05 -1.07734e-07
0.0264573 6.20718e-05 -1.96686e-07
0.0264109 8.65664e-05 -2.6292e-07
0.026346 0.000120634 -2.80122e-07
0.0262557 0.00016745 -1.78157e-07
0.026131 0.000231135 1.93358e-07
0.0259596 0.000316627 1.12323e-06
0.0257259 0.000429113 3.097e-06
0.02541 0.000572518 6.74839e-06
0.0249887 0.00074666 1.25267e-05
0.0244392 0.00094386 2.01615e-05
0.0237461 0.00114763 2.85123e-05
0.0229095 0.00133535 3.60642e-05
0.0219481 0.0014837 4.14862e-05
0.0208982 0.00157448 4.39562e-05
0.0198077 0.00159862 4.33525e-05
0.0187275 0.00155735 4.03352e-05
0.0177022 0.00145992 3.602e-05
0.0167654 0.00131896 3.12962e-05
0.0159404 0.0011466 2.65182e-05
0.0152424 0.000952714 2.16767e-05
0.0146808 0.000744676 1.66311e-05
0.0142611 0.000527736 1.12322e-05
0.0139859 0.000306381 5.99124e-06
0.0138547 9.75642e-05 6.46391e-06
0.0138541 -5.22097e-08 9.37063e-06
0.0148 -8.8438e-07 -6.31347e-07
0.0148028 -0.00630868 -0.00208027
0.0192076 -0.0171733 -0.00517457
0.0250167 -0.0255271 -0.00608847
0.0288223 -0.0381173 -0.00442321
0.0275802 -0.0234733 -0.000746995
0.0261063 -1.05162e-05 0.00128528
0.0266402 0.00837056 0.00138583
0.0317869 0.0172545 0.00118262
0.0312505 0.0162743 0.000426904
0.0294553 0.0130382 -9.8545e-05
0.028091 0.00945778 -0.000249268
0.0273765 0.00613882 -0.000201505
0.0271443 0.00371767 -0.000114786
0.0271136 0.0021792 -4.84544e-05
0.0271562 0.00124706 -1.30769e-05
0.0272179 0.000696889 1.28405e-06
0.0272755 0.000380533 5.19764e-06
0.0273211 0.000203887 5.008e-06
0.0273534 0.000108864 3.68488e-06
0.0273742 6.07573e-05 2.35712e-06
0.0273855 3.95533e-05 1.329e-06
0.0273889 3.42163e-05 5.97289e-07
0.0273852 3.91137e-05 7.4177e-08
0.0273744 5.18951e-05 -3.31414e-07
0.0273558 7.2309e-05 -6.9108e-07
0.0273274 0.000101608 -1.05316e-06
0.0272865 0.000142318 -1.44001e-06
0.0272287 0.000198227 -1.83644e-06
0.027148 0.000274496 -2.15959e-06
0.0270359 0.000377766 -2.19389e-06
0.0268807 0.000516116 -1.46154e-06
0.0266663 0.000698495 9.89632e-07
0.0263707 0.000932776 6.71355e-06
0.0259647 0.00122107 1.73266e-05
0.0254149 0.00155263 3.30081e-05
0.0246941 0.00189977 5.15631e-05
0.0237958 0.0022222 6.94693e-05
0.0227405 0.00247753 8.32851e-05
0.0215745 0.00263239 9.04916e-05
0.020361 0.00267048 9.02801e-05
0.0191664 0.00259517 8.40924e-05
0.0180448 0.00242492 7.4735e-05
0.0170321 0.00218354 6.44175e-05
0.0161498 0.00189252 5.40406e-05
0.0154103 0.00156854 4.37108e-05
0.01482 0.00122369 3.32644e-05
0.0143819 0.000866441 2.24705e-05
0.0140968 0.000504161 1.16964e-05
0.0139626 0.000161751 7.16182e-06
0.0139618 7.60114e-07 7.88511e-06
0.018 -2.03199e-06 -1.05294e-06
0.0180025 -0.00671182 -0.00283999
0.0196055 -0.0171289 -0.00707519
0.0198474 -0.021201 -0.00747126
0.0161563 -0.022527 -0.00531886
-8.37638e-07 -0.0117511 -0.00208362
0.000107024 3.75115e-05 4.0805e-07
-4.19915e-05 4.49189e-05 0.000243642
0.00827592 0.00600609 0.000481871
0.0171033 0.0126806 0.000383991
0.0201225 0.0119185 0.000145875
0.0216122 0.00869365 -6.95496e-05
0.0232484 0.00545566 -0.000126716
0.0246841 0.00312754 -8.11934e-05
0.0257229 0.00173337 -2.74957e-05
0.0264141 0.000929514 1.94909e-06
0.0268547 0.000478992 1.16061e-05
0.0271273 0.000236151 1.17182e-05
0.027292 0.000111499 8.81969e-06
0.0273893 5.19967e-05 5.76799e-06
0.0274453 2.77038e-05 3.42023e-06
0.0274759 2.25747e-05 1.81897e-06
0.0274906 2.86039e-05 7.704e-07
0.0274948 4.2382e-05 6.59298e-08
0.027491 6.32079e-05 -4.56505e-07
0.0274803 9.21429e-05 -9.08448e-07
0.027462 0.000131625 -1.35936e-06
0.0274346 0.000185416 -1.83907e-06
0.027395 0.000258767 -2.32369e-06
0.0273388 0.000358694 -2.69215e-06
0.0272589 0.000494305 -2.62619e-06
0.027145 0.000677034 -1.37954e-06
0.0269814 0.000920524 2.7482e-06
0.0267442 0.00123911 1.31823e-05
0.0263969 0.00164175 3.46723e-05
0.0258884 0.00211869 6.95092e-05
0.0251686 0.00263006 0.000113405
0.0242179 0.00311166 0.000157451
0.0230586 0.00349419 0.000192342
0.0217536 0.00372317 0.000210876
0.0203919 0.00377324 0.000210702
0.0190656 0.00365303 0.000195859
0.0178416 0.00339637 0.000173623
0.0167556 0.00304312 0.00014926
0.0158236 0.00262598 0.000124792
0.0150522 0.00216846 0.000100588
0.0144429 0.00168676 7.65158e-05
0.0139947 0.00119179 5.22603e-05
0.0137053 0.000692825 2.80809e-05
0.0135708 0.000222902 1.09292e-05
0.01357 2.22893e-06 5.7338e-06
0.0196 -2.403e-06 -2.1546e-06
0.0196009 -0.0049534 -0.00348972
0.0190575 -0.0112049 -0.00821601
0.0168449 -0.0128328 -0.00789917
0.0126148 -0.0108133 -0.00534607
0.00304371 -0.00423441 -0.00268034
8.13589e-05 -7.50638e-05 -0.00050507
3.30722e-05 -3.30722e-05 -5.91834e-08
-4.04708e-05 4.35122e-05 4.86135e-05
0.0059886 0.00433948 0.000116609
0.0126481 0.00851471 9.29115e-05
0.0157001 0.00637585 -5.61572e-05
0.0194223 0.00312511 -0.000162108
0.0225471 0.0012807 -0.000120675
0.024636 0.000463587 -4.81855e-05
0.0258962 0.000116486 -4.2833e-06
0.0266242 -1.99349e-05 1.10089e-05
0.027036 -6.10505e-05 1.22043e-05
0.0272658 -6.15167e-05 9.08914e-06
0.0273926 -4.6649e-05 5.73823e-06
0.0274617 -2.70954e-05 3.24999e-06
0.0274986 -6.42669e-06 1.62995e-06
0.0275175 1.50793e-05 6.19036e-07
0.027526 3.87025e-05 -3.09372e-08
0.0275284 6.65993e-05 -4.98134e-07
0.0275263 0.000101651 -8.96265e-07
0.0275205 0.000147589 -1.28838e-06
0.0275106 0.000209293 -1.68847e-06
0.0274951 0.00029321 -2.03835e-06
0.0274714 0.000407899 -2.14108e-06
0.0274346 0.000564651 -1.51443e-06
0.0273765 0.000778124 9.53817e-07
0.027283 0.00106699 8.01186e-06
0.0271297 0.00145415 2.64509e-05
0.0268732 0.00196168 6.8697e-05
0.0264384 0.00258935 0.000145034
0.0257338 0.00328604 0.000248439
0.0247139 0.00395409 0.000355457
0.0234048 0.00448517 0.000439914
0.0218991 0.00479599 0.000482884
0.020329 0.00485087 0.000479968
0.0188279 0.00466949 0.000443146
0.0174772 0.00431079 0.000390723
0.016306 0.0038367 0.000334473
0.0153198 0.00329189 0.000278523
0.0145162 0.00270548 0.000223744
0.0138896 0.00209638 0.000170095
0.0134337 0.00147662 0.000117107
0.0131424 0.000856316 6.47368e-05
0.0130088 0.000275723 2.11227e-05
0.0130079 4.05344e-06 3.46523e-06
0.0196 -1.28542e-06 -3.07018e-06
0.0196004 -0.0027103 -0.00372242
0.0191743 -0.00555963 -0.00821871
0.0183415 -0.00498096 -0.00760826
0.0154473 -0.00152527 -0.00493986
0.0115912 0.0042665 -0.00280888
0.00705428 0.00366144 -0.00121396
8.14719e-05 -6.86558e-05 -0.000236184
2.81848e-05 -2.81848e-05 -1.27135e-07
-3.86412e-05 4.23004e-05 1.29761e-05
0.00433208 0.00218987 0.00023176
0.00959421 0.00195526 0.000178351
0.0162592 -0.00131622 -0.000189805
0.0214618 -0.00202996 -0.000251905
0.0244826 -0.00159061 -0.000142494
0.0260204 -0.00105329 -4.87975e-05
0.0267837 -0.000663242 -7.94263e-06
0.0271656 -0.000409423 3.40402e-06
0.0273579 -0.000248363 4.42402e-06
0.0274549 -0.000146031 3.07165e-06
0.0275038 -7.95066e-05 1.70906e-06
0.0275287 -3.3799e-05 7.73381e-07
0.0275419 9.57278e-07 1.9499e-07
0.0275499 3.15446e-05 -1.6729e-07
0.027556 6.30989e-05 -4.22318e-07
0.0275622 0.000100137 -6.34279e-07
0.0275697 0.000147343 -8.24038e-07
0.0275791 0.000210258 -9.57171e-07
0.0275908 0.000295976 -8.99416e-07
0.0276044 0.000413944 -3.08154e-07
0.027618 0.000576911 1.59103e-06
0.0276266 0.000801985 6.46507e-06
0.0276191 0.00111192 1.83613e-05
0.0275727 0.00153771 4.90401e-05
0.0274412 0.00211927 0.000126699
0.0271235 0.00287935 0.000285357
0.026459 0.00376315 0.000519147
0.0253506 0.0046294 0.00076805
0.0238302 0.00531421 0.000958344
0.0220484 0.00570101 0.00104693
0.0202014 0.0057456 0.00103142
0.0184858 0.00548515 0.000942979
0.0169922 0.00501655 0.000824796
0.0157316 0.00442793 0.000701552
0.0146925 0.00377306 0.000580824
0.0138605 0.00308327 0.000464281
0.013221 0.00237766 0.000351972
0.0127617 0.00166769 0.000243006
0.0124717 0.00096319 0.000136608
0.0123407 0.000309391 4.2964e-05
0.0123398 5.08844e-06 1.90099e-06
0.018 -7.83091e-07 -3.07371e-06
0.0180011 -0.000904529 -0.00364126
0.0187624 -0.00123682 -0.00775946
0.0198136 0.000193966 -0.00686665
0.0197701 0.00266995 -0.00432974
0.0196438 0.00790549 -0.00247581
0.0199386 0.0130854 -0.00127736
0.0123161 0.00732278 -0.000586988
8.3494e-05 -5.38176e-05 -0.000200906
-3.09231e-05 -6.12756e-05 5.54195e-07
8.35261e-06 -0.00115828 0.000766415
0.00969345 -0.00558087 0.000923448
0.0180029 -0.00863909 7.54795e-06
0.0233051 -0.00683 -0.00029779
0.0258863 -0.00403059 -0.000220274
0.0269216 -0.00215978 -9.887e-05
0.0273013 -0.00115888 -3.48662e-05
0.0274334 -0.000635155 -1.07134e-05
0.0274749 -0.000351998 -2.96265e-06
0.0274844 -0.000193542 -7.41993e-07
0.0274842 -0.000101495 -1.89324e-07
0.0274826 -4.4818e-05 -8.37385e-08
0.027483 -6.18898e-06 -7.23937e-08
0.0274868 2.46195e-05 -6.43835e-08
0.0274951 5.42639e-05 -3.60676e-08
0.0275089 8.78339e-05 3.35104e-08
0.0275295 0.000130107 1.9453e-07
0.0275587 0.000186472 5.66223e-07
0.0275986 0.000263773 1.41743e-06
0.0276518 0.000371257 3.34173e-06
0.0277201 0.000521769 7.61811e-06
0.0278032 0.000733221 1.68768e-05
0.0278949 0.00103016 3.69274e-05
0.0279765 0.0014471 8.5479e-05
0.0280044 0.00203683 0.000215777
0.0278605 0.00285219 0.000513116
0.0272846 0.00384847 0.000984284
0.0260838 0.00484791 0.00149318
0.0243078 0.00563211 0.0018711
0.0221772 0.00605887 0.00203189
0.0199996 0.0060763 0.00198172
0.0180491 0.0057393 0.0017942
0.0164125 0.00519122 0.00155781
0.0150682 0.00454067 0.00131794
0.0139831 0.00384082 0.00108621
0.0131286 0.00311924 0.000864838
0.0124811 0.00239195 0.000653773
0.0120216 0.0016682 0.000451316
0.011735 0.000956776 0.000255582
0.0116075 0.000304049 8.03751e-05
0.0116066 2.59133e-06 1.50976e-06
0.0148 -5.54242e-07 -2.68668e-06
0.0148017 5.72137e-05 -0.00341701
0.0171419 0.000852801 -0.00695209
0.0202201 0.00239968 -0.00577823
0.0226803 0.00456864 -0.00354254
0.0246212 0.00749664 -0.00218921
0.027746 0.0126713 -0.00137517
0.0308442 0.0205509 -0.000752089
0.0251348 0.0124122 -8.69805e-05
0.0263829 -1.65261e-09 0.000586749
0.0312091 -0.0077578 0.00170071
0.0352185 -0.0163246 0.00192285
0.033705 -0.0148766 0.00062012
0.0308691 -0.00977053 -0.000201529
0.0289171 -0.00510574 -0.000315438
0.027858 -0.00242011 -0.000181299
0.0273021 -0.0011564 -7.69392e-05
0.0270027 -0.000576609 -2.88519e-05
0.026837 -0.000297365 -1.02015e-05
0.026744 -0.000154721 -3.42964e-06
0.0266925 -7.7509e-05 -1.02427e-06
0.0266657 -3.25868e-05 -1.55067e-07
0.026655 -3.33908e-06 1.98333e-07
0.026656 1.92639e-05 4.05373e-07
0.026667 4.07286e-05 6.15162e-07
0.0266883 6.50758e-05 9.2079e-07
0.0267214 9.60035e-05 1.43815e-06
0.0267693 0.0001377 2.3787e-06
0.0268363 0.000195587 4.17149e-06
0.026928 0.000277183 7.71352e-06
0.027051 0.00039326 1.49e-05
0.0272116 0.000559532 2.96756e-05
0.0274119 0.000798649 6.04392e-05
0.0276421 0.00114175 0.000131057
0.0278687 0.00163459 0.000321148
0.0279772 0.00233246 0.000783503
0.0275909 0.00319085 0.00153168
0.026356 0.00403998 0.00231028
0.0244789 0.00474574 0.00291047
0.0220166 0.00516213 0.00319493
0.0195178 0.00516096 0.00310078
0.0173711 0.00482232 0.0027843
0.0156244 0.00431807 0.00240971
0.0142198 0.00374829 0.00203745
0.0131044 0.00315101 0.00167867
0.0122373 0.00254447 0.00133584
0.011586 0.0019392 0.00100889
0.0111263 0.00134143 0.000695552
0.01084 0.00075896 0.000393559
0.0107124 0.000232927 0.000122237
0.0107116 -7.02292e-06 -7.79911e-07
0.01 -9.95795e-07 -2.47564e-06
0.0100007 9.96569e-05 -0.00289694
0.0130107 0.00079647 -0.00546732
0.0169207 0.00181441 -0.00408613
0.0206519 0.00316401 -0.00237942
0.0248746 0.00574506 -0.00163324
0.030215 0.008428 -0.00156264
0.0388594 0.0105781 -0.00119787
0.0514075 0.00447119 -5.31212e-05
0.0512034 -0.00641247 0.000946197
0.0509088 -0.0106494 0.0014622
0.0428486 -0.00872041 0.00145416
0.0341033 -0.00444995 0.000682602
0.0277796 -0.00192961 -1.58079e-05
0.0243716 -0.0008792 -0.000200814
0.0227685 -0.000463071 -0.000135033
0.0220141 -0.000267564 -6.04926e-05