# vtk DataFile Version 2.0
Tobias Weinzierl: CPU, Manycore and Cluster Computing
ASCII

DATASET STRUCTURED_POINTS
DIMENSIONS  51 11 6

ORIGIN 0 0 0 

SPACING 0.1 0.1 0.1 

POINT_DATA 3366

VECTORS velocity float
0 0 0
1.45835e-08 0 0
1.82588e-08 0 0
9.97918e-09 0 0
3.25591e-09 0 0
7.47492e-10 0 0
1.36795e-10 0 0
2.12019e-11 0 0
2.874e-12 0 0
3.47323e-13 0 0
3.79064e-14 0 0
3.77192e-15 0 0
3.44798e-16 0 0
2.9137e-17 0 0
2.28837e-18 0 0
1.67817e-19 0 0
1.15388e-20 0 0
7.46598e-22 0 0
4.56083e-23 0 0
2.63825e-24 0 0
1.449e-25 0 0
7.57461e-27 0 0
3.77711e-28 0 0
1.80034e-29 0 0
8.21791e-31 0 0
3.5986e-32 0 0
1.51414e-33 0 0
6.13065e-35 0 0
2.39197e-36 0 0
9.00479e-38 0 0
3.27478e-39 0 0
1.15179e-40 0 0
3.92197e-42 0 0
1.29422e-43 0 0
4.14276e-45 0 0
1.28746e-46 0 0
3.88776e-48 0 0
1.14164e-49 0 0
3.2625e-51 0 0
9.07963e-53 0 0
2.46249e-54 0 0
6.51246e-56 0 0
1.68053e-57 0 0
4.23381e-59 0 0
1.04193e-60 0 0
2.50609e-62 0 0
5.89423e-64 0 0
1.35625e-65 0 0
3.05449e-67 0 0
6.88156e-69 0 0
1.56052e-66 0 0
0 -5.68021e-167 0
6.1172e-08 -5.25525e-165 0
8.94664e-08 -5.24166e-163 0
5.20842e-08 -4.59603e-161 0
1.68442e-08 -3.33541e-159 0
3.60466e-09 -2.00504e-157 0
6.19985e-10 -8.78864e-156 0
9.16733e-11 -8.8806e-157 0
1.20104e-11 -5.30536e-155 0
1.41629e-12 -3.94588e-153 0
1.5184e-13 -2.88035e-151 0
1.49119e-14 -2.06867e-149 0
1.34978e-15 -1.46179e-147 0
1.13211e-16 -1.01596e-145 0
8.84007e-18 -6.94209e-144 0
6.45342e-19 -4.66157e-142 0
4.42121e-20 -3.0747e-140 0
2.85233e-21 -1.99108e-138 0
1.73829e-22 -1.2652e-136 0
1.00355e-23 -7.88437e-135 0
5.50278e-25 -4.81561e-133 0
2.87261e-26 -2.8809e-131 0
1.43077e-27 -1.6869e-129 0
6.8129e-29 -9.66065e-128 0
3.10719e-30 -5.40651e-126 0
1.35962e-31 -2.95413e-124 0
5.71703e-33 -1.57441e-122 0
2.31348e-34 -8.17534e-121 0
9.02194e-36 -4.13123e-119 0
3.3949e-37 -2.0289e-117 0
1.23415e-38 -9.66971e-116 0
4.33918e-40 -4.46498e-114 0
1.47708e-41 -1.99377e-112 0
4.87289e-43 -8.59152e-111 0
1.55941e-44 -3.56421e-109 0
4.84511e-46 -1.41958e-107 0
1.46278e-47 -5.41102e-106 0
4.29468e-49 -1.96652e-104 0
1.22709e-50 -6.78431e-103 0
3.4145e-52 -2.21005e-101 0
9.25913e-54 -6.75468e-100 0
2.44842e-55 -1.92161e-98 0
6.31735e-57 -5.03784e-97 0
1.59137e-58 -1.20152e-95 0
3.91591e-60 -2.56252e-94 0
9.41783e-62 -4.77229e-93 0
2.21484e-63 -7.49678e-92 0
5.09588e-65 -9.40964e-91 0
1.14759e-66 -8.58356e-90 0
2.58525e-68 -4.65623e-89 0
5.88464e-66 -1.4746e-86 0
0 -7.19229e-166 0
1.1544e-07 -6.57002e-164 0
2.24175e-07 -8.30496e-162 0
1.50854e-07 -9.81682e-160 0
4.93291e-08 -9.76271e-158 0
8.59306e-09 -8.76946e-156 0
1.29161e-09 -7.59089e-154 0
1.74348e-10 -1.73342e-155 0
2.15527e-11 -7.57023e-154 0
2.44717e-12 -5.77892e-152 0
2.55849e-13 -4.26679e-150 0
2.4702e-14 -3.09459e-148 0
2.20983e-15 -2.20855e-146 0
1.83824e-16 -1.55076e-144 0
1.42697e-17 -1.0709e-142 0
1.0373e-18 -7.26994e-141 0
7.08456e-20 -4.84956e-139 0
4.5602e-21 -3.17728e-137 0
2.77445e-22 -2.04347e-135 0
1.59976e-23 -1.28946e-133 0
8.76384e-25 -7.97845e-132 0
4.57186e-26 -4.83758e-130 0
2.27599e-27 -2.87239e-128 0
1.08338e-28 -1.66896e-126 0
4.93977e-30 -9.48173e-125 0
2.16115e-31 -5.26252e-123 0
9.08647e-33 -2.8507e-121 0
3.67679e-34 -1.5056e-119 0
1.43383e-35 -7.74402e-118 0
5.39553e-37 -3.8741e-116 0
1.96152e-38 -1.88238e-114 0
6.89701e-40 -8.86921e-113 0
2.34796e-41 -4.0451e-111 0
7.74659e-43 -1.78221e-109 0
2.47927e-44 -7.56786e-108 0
7.70394e-46 -3.08898e-106 0
2.32614e-47 -1.20822e-104 0
6.83019e-49 -4.51224e-103 0
1.95176e-50 -1.60213e-101 0
5.43156e-52 -5.38057e-100 0
1.47304e-53 -1.69851e-98 0
3.89564e-55 -5.00091e-97 0
1.00525e-56 -1.35994e-95 0
2.53255e-58 -3.37269e-94 0
6.23257e-60 -7.50003e-93 0
1.4991e-61 -1.46074e-91 0
3.52587e-63 -2.40755e-90 0
8.1131e-65 -3.18108e-89 0
1.82724e-66 -3.06326e-88 0
4.11676e-68 -1.75241e-87 0
9.3941e-66 -5.70014e-85 0
0 -2.59358e-167 0
1.30921e-07 -2.38977e-165 0
3.81331e-07 -2.3887e-163 0
3.21349e-07 -2.07389e-161 0
1.10579e-07 -1.09758e-159 0
5.73589e-09 -1.07708e-159 0
8.08418e-10 0 0
1.03877e-10 6.48531e-152 0
1.36846e-11 -8.50679e-153 0
1.63011e-12 -7.36488e-151 0
1.76888e-13 -5.56411e-149 0
1.75908e-14 -4.08089e-147 0
1.61178e-15 -2.94256e-145 0
1.36744e-16 -2.08821e-143 0
1.07912e-17 -1.45794e-141 0
7.95451e-19 -1.00102e-139 0
5.49796e-20 -6.75623e-138 0
3.57564e-21 -4.48046e-136 0
2.19512e-22 -2.91802e-134 0
1.27578e-23 -1.86542e-132 0
7.0383e-25 -1.16988e-130 0
3.69477e-26 -7.1933e-129 0
1.84972e-27 -4.33363e-127 0
8.84948e-29 -2.55628e-125 0
4.05361e-30 -1.47526e-123 0
1.78089e-31 -8.32281e-122 0
7.5164e-33 -4.58586e-120 0
3.05217e-34 -2.4654e-118 0
1.1941e-35 -1.29179e-116 0
4.50686e-37 -6.58881e-115 0
1.64299e-38 -3.26694e-113 0
5.79185e-40 -1.5723e-111 0
1.97645e-41 -7.33235e-110 0
6.53544e-43 -3.30692e-108 0
2.09602e-44 -1.43917e-106 0
6.52581e-46 -6.02831e-105 0
1.97403e-47 -2.42318e-103 0
5.80634e-49 -9.3147e-102 0
1.6619e-50 -3.40994e-100 0
4.63201e-52 -1.18293e-98 0
1.25804e-53 -3.86516e-97 0
3.3316e-55 -1.1806e-95 0
8.60829e-57 -3.339e-94 0
2.17139e-58 -8.63617e-93 0
5.35003e-60 -2.00909e-91 0
1.28827e-61 -4.1076e-90 0
3.03323e-63 -7.13351e-89 0
6.98661e-65 -9.97082e-88 0
1.57506e-66 -1.01929e-86 0
3.55195e-68 -6.1882e-86 0
8.07752e-66 -2.06918e-83 0
0 -6.02806e-169 0
1.03742e-07 -5.60295e-167 0
4.87844e-07 -4.65132e-165 0
5.2223e-07 -3.26826e-163 0
1.95065e-07 -1.23551e-161 0
0 -1.20328e-161 0
0 0 0
0 0 0
1.26831e-12 -5.61551e-150 0
2.74284e-13 -7.37704e-150 0
3.97399e-14 -6.23735e-148 0
4.71422e-15 -4.66519e-146 0
4.86978e-16 -3.39971e-144 0
4.50756e-17 -2.43918e-142 0
3.80076e-18 -1.72234e-140 0
2.9515e-19 -1.19648e-138 0
2.12768e-20 -8.17373e-137 0
1.43264e-21 -5.48884e-135 0
9.05514e-23 -3.62147e-133 0
5.395e-24 -2.34649e-131 0
3.0407e-25 -1.49228e-129 0
1.62625e-26 -9.30966e-128 0
8.2761e-28 -5.6938e-126 0
4.0174e-29 -3.41166e-124 0
1.86423e-30 -2.0013e-122 0
8.28617e-32 -1.14841e-120 0
3.53422e-33 -6.44091e-119 0
1.4489e-34 -3.52738e-117 0
5.71813e-36 -1.88433e-115 0
2.17545e-37 -9.80756e-114 0
7.98899e-39 -4.96708e-112 0
2.83537e-40 -2.44428e-110 0
9.73628e-42 -1.16682e-108 0
3.23819e-43 -5.39324e-107 0
1.04416e-44 -2.40865e-105 0
3.26732e-46 -1.03685e-103 0
9.93017e-48 -4.28982e-102 0
2.93373e-49 -1.70018e-100 0
8.43179e-51 -6.42918e-99 0
2.35926e-52 -2.30858e-97 0
6.43121e-54 -7.8257e-96 0
1.70906e-55 -2.48613e-94 0
4.4304e-57 -7.33375e-93 0
1.12101e-58 -1.98467e-91 0
2.77016e-60 -4.84793e-90 0
6.68907e-62 -1.04485e-88 0
1.57913e-63 -1.92127e-87 0
3.64648e-65 -2.85689e-86 0
8.2404e-67 -3.12089e-85 0
1.86266e-68 -2.02588e-84 0
4.18401e-66 -6.96981e-82 0
0 -1.24686e-169 0
7.41153e-08 -1.15532e-167 0
5.22783e-07 -8.2803e-166 0
6.57385e-07 -5.17333e-164 0
2.68234e-07 -1.87417e-162 0
2.42504e-08 -1.82326e-162 0
0 0 0
0 0 0
0 0 0
2.23849e-14 4.72573e-148 0
5.13886e-15 -5.4517e-147 0
7.69523e-16 -4.49839e-145 0
9.27081e-17 -3.31419e-143 0
9.60774e-18 -2.40478e-141 0
8.84515e-19 -1.71797e-139 0
7.37259e-20 -1.20793e-137 0
5.63483e-21 -8.35569e-136 0
3.98552e-22 -5.68415e-134 0
2.62726e-23 -3.80102e-132 0
1.62326e-24 -2.49737e-130 0
9.44418e-26 -1.61138e-128 0
5.19439e-27 -1.02049e-126 0
2.70998e-28 -6.33972e-125 0
1.34504e-29 -3.86104e-123 0
6.36746e-31 -2.30365e-121 0
2.8818e-32 -1.3455e-119 0
1.24948e-33 -7.68702e-118 0
5.19969e-35 -4.29188e-116 0
2.0804e-36 -2.33952e-114 0
8.01526e-38 -1.24372e-112 0
2.9779e-39 -6.44028e-111 0
1.06832e-40 -3.24401e-109 0
3.70526e-42 -1.58704e-107 0
1.24383e-43 -7.52764e-106 0
4.04563e-45 -3.45485e-104 0
1.27622e-46 -1.53071e-102 0
3.90826e-48 -6.52949e-101 0
1.16289e-49 -2.67308e-99 0
3.36467e-51 -1.04629e-97 0
9.47408e-53 -3.89773e-96 0
2.59798e-54 -1.37424e-94 0
6.94291e-56 -4.5538e-93 0
1.80941e-57 -1.40562e-91 0
4.60144e-59 -3.9947e-90 0
1.14253e-60 -1.02889e-88 0
2.77142e-62 -2.34902e-87 0
6.57101e-64 -4.59936e-86 0
1.52363e-65 -7.32436e-85 0
3.45667e-67 -8.6178e-84 0
7.84343e-69 -6.03671e-83 0
1.73087e-66 -2.1389e-80 0
0 -5.71923e-168 0
7.39592e-08 -5.25067e-166 0
5.22243e-07 -4.17939e-164 0
6.57119e-07 -2.99005e-162 0
2.73983e-07 -1.53528e-160 0
4.98933e-08 -5.00917e-159 0
3.06931e-09 -4.85859e-159 0
0 0 0
0 0 0
0 0 0
3.71976e-16 -4.53644e-146 0
1.79229e-16 -3.51613e-144 0
3.34732e-17 -2.62008e-142 0
4.40366e-18 -1.92332e-140 0
4.71167e-19 -1.39062e-138 0
4.35335e-20 -9.89997e-137 0
3.58518e-21 -6.93704e-135 0
2.68289e-22 -4.78258e-133 0
1.84799e-23 -3.2428e-131 0
1.18257e-24 -2.16153e-129 0
7.07996e-26 -1.41572e-127 0
3.98757e-27 -9.10662e-126 0
2.12232e-28 -5.74991e-124 0
1.07144e-29 -3.56152e-122 0
5.1471e-31 -2.16275e-120 0
2.35935e-32 -1.28668e-118 0
1.03445e-33 -7.4938e-117 0
4.3475e-35 -4.26913e-115 0
1.75476e-36 -2.37676e-113 0
6.81389e-38 -1.2918e-111 0
2.54948e-39 -6.84671e-110 0
9.20476e-41 -3.53418e-108 0
3.21105e-42 -1.77417e-106 0
1.08363e-43 -8.64745e-105 0
3.54166e-45 -4.08469e-103 0
1.12221e-46 -1.8658e-101 0
3.45072e-48 -8.22078e-100 0
1.03064e-49 -3.48343e-98 0
2.9925e-51 -1.4145e-96 0
8.45362e-53 -5.48066e-95 0
2.3252e-54 -2.01556e-93 0
6.23155e-56 -6.9889e-92 0
1.62834e-57 -2.26561e-90 0
4.15126e-59 -6.79004e-89 0
1.03316e-60 -1.85302e-87 0
2.51165e-62 -4.50682e-86 0
5.96745e-64 -9.4592e-85 0
1.38639e-65 -1.62612e-83 0
3.15116e-67 -2.08065e-82 0
7.163e-69 -1.591e-81 0
1.58074e-66 -5.81147e-79 0
0 -2.392e-166 0
1.02546e-07 -2.1794e-164 0
4.84587e-07 -1.85943e-162 0
5.1984e-07 -1.42133e-160 0
2.0264e-07 -8.73424e-159 0
4.16952e-08 -4.30028e-157 0
5.55163e-09 -1.49088e-155 0
2.62267e-10 -1.44873e-155 0
0 0 0
0 0 0
0 -2.70361e-145 0
1.25555e-15 -2.0937e-143 0
2.0309e-16 -1.57795e-141 0
2.31139e-17 -1.1722e-139 0
2.19871e-18 -8.58059e-138 0
1.84819e-19 -6.18724e-136 0
1.40917e-20 -4.39338e-134 0
9.89332e-22 -3.07091e-132 0
6.45887e-23 -2.11221e-130 0
3.94882e-24 -1.42901e-128 0
2.27305e-25 -9.50548e-127 0
1.23724e-26 -6.2137e-125 0
6.39064e-28 -3.98978e-123 0
3.14195e-29 -2.51499e-121 0
1.4742e-30 -1.55545e-119 0
6.61637e-32 -9.43264e-118 0
2.84629e-33 -5.60488e-116 0
1.17581e-34 -3.26079e-114 0
4.67218e-36 -1.85583e-112 0
1.78851e-37 -1.0323e-110 0
6.60484e-39 -5.60629e-109 0
2.35609e-40 -2.96919e-107 0
8.12829e-42 -1.53151e-105 0
2.71499e-43 -7.68196e-104 0
8.78915e-45 -3.74062e-102 0
2.76031e-46 -1.7647e-100 0
8.4177e-48 -8.04711e-99 0
2.49474e-49 -3.53718e-97 0
7.19121e-51 -1.49379e-95 0
2.01768e-52 -6.03675e-94 0
5.51428e-54 -2.32301e-92 0
1.46894e-55 -8.4594e-91 0
3.81663e-57 -2.89201e-89 0
9.67785e-59 -9.18436e-88 0
2.39638e-60 -2.67067e-86 0
5.79762e-62 -6.96581e-85 0
1.37117e-63 -1.57975e-83 0
3.17173e-65 -2.96018e-82 0
7.17931e-67 -4.16843e-81 0
1.6254e-68 -3.53117e-80 0
3.66009e-66 -1.33117e-77 0
0 -7.35641e-165 0
1.24575e-07 -6.65542e-163 0
3.68671e-07 -5.86274e-161 0
3.12743e-07 -4.72339e-159 0
1.10862e-07 -3.39788e-157 0
2.34684e-08 -2.20441e-155 0
3.74058e-09 -1.24935e-153 0
4.37597e-10 -5.26264e-152 0
1.72469e-11 -5.13987e-152 0
1.61339e-12 0 0
1.55661e-13 -1.0821e-144 0
1.52965e-14 -8.4738e-143 0
1.38883e-15 -6.46169e-141 0
1.17013e-16 -4.85881e-139 0
9.18566e-18 -3.60174e-137 0
6.74405e-19 -2.63128e-135 0
4.64728e-20 -1.89392e-133 0
3.01553e-21 -1.34262e-131 0
1.8481e-22 -9.3712e-130 0
1.07274e-23 -6.4376e-128 0
5.91263e-25 -4.35081e-126 0
3.10179e-26 -2.89169e-124 0
1.55214e-27 -1.88916e-122 0
7.4236e-29 -1.21259e-120 0
3.39989e-30 -7.64282e-119 0
1.49359e-31 -4.72759e-117 0
6.30388e-33 -2.86813e-115 0
2.55999e-34 -1.70542e-113 0
1.00167e-35 -9.93141e-112 0
3.78117e-37 -5.65938e-110 0
1.3787e-38 -3.15282e-108 0
4.86121e-40 -1.71533e-106 0
1.65925e-41 -9.1032e-105 0
5.48792e-43 -4.70604e-103 0
1.76051e-44 -2.36623e-101 0
5.48264e-46 -1.1551e-99 0
1.65892e-47 -5.46293e-98 0
4.88077e-49 -2.49688e-96 0
1.39735e-50 -1.09961e-94 0
3.89571e-52 -4.64907e-93 0
1.05834e-53 -1.87857e-91 0
2.80349e-55 -7.21358e-90 0
7.24563e-57 -2.61302e-88 0
1.82813e-58 -8.84216e-87 0
4.50544e-60 -2.7577e-85 0
1.08516e-61 -7.77478e-84 0
2.55564e-63 -1.92363e-82 0
5.88797e-65 -3.97635e-81 0
1.32769e-66 -6.25677e-80 0
2.99482e-68 -5.98757e-79 0
6.84549e-66 -2.33222e-76 0
0 -1.23742e-163 0
9.12869e-08 -1.11197e-161 0
1.87138e-07 -9.8633e-160 0
1.29108e-07 -8.55429e-158 0
4.30085e-08 -7.3332e-156 0
9.41502e-09 -6.21311e-154 0
1.61766e-09 -5.20199e-152 0
2.29501e-10 -4.30333e-150 0
2.40085e-11 -3.51673e-148 0
2.3586e-12 -2.83854e-146 0
2.3106e-13 -2.26215e-144 0
2.11903e-14 -1.76882e-142 0
1.81984e-15 -1.36466e-140 0
1.46522e-16 -1.03866e-138 0
1.10787e-17 -7.79695e-137 0
7.88284e-19 -5.77118e-135 0
5.28992e-20 -4.21088e-133 0
3.35571e-21 -3.02777e-131 0
2.01686e-22 -2.14476e-129 0
1.15101e-23 -1.49623e-127 0
6.25054e-25 -1.02761e-125 0
3.23637e-26 -6.94557e-124 0
1.60076e-27 -4.61808e-122 0
7.57693e-29 -3.01925e-120 0
3.43788e-30 -1.94009e-118 0
1.49761e-31 -1.22463e-116 0
6.27274e-33 -7.58945e-115 0
2.52969e-34 -4.61504e-113 0
9.83542e-36 -2.75177e-111 0
3.69116e-37 -1.60768e-109 0
1.33867e-38 -9.19565e-108 0
4.69676e-40 -5.14472e-106 0
1.59579e-41 -2.81247e-104 0
5.25559e-43 -1.50054e-102 0
1.67931e-44 -7.80289e-101 0
5.21048e-46 -3.94846e-99 0
1.57113e-47 -1.94075e-97 0
4.60756e-49 -9.24549e-96 0
1.31513e-50 -4.2577e-94 0
3.65603e-52 -1.88935e-92 0
9.90559e-54 -8.04673e-91 0
2.61729e-55 -3.27266e-89 0
6.7482e-57 -1.26273e-87 0
1.69877e-58 -4.58171e-86 0
4.17763e-60 -1.54437e-84 0
1.00416e-61 -4.75085e-83 0
2.36029e-63 -1.2976e-81 0
5.42789e-65 -3.00398e-80 0
1.2218e-66 -5.38781e-79 0
2.75127e-68 -5.98315e-78 0
6.33156e-66 -2.41096e-75 0
0 0 0
2.7741e-08 0 0
4.41145e-08 0 0
2.68416e-08 0 0
8.80984e-09 0 0
1.99888e-09 0 0
3.59406e-10 0 0
5.41714e-11 0 0
6.76163e-12 0 0
7.45204e-13 0 0
7.53987e-14 0 0
7.05406e-15 0 0
6.13283e-16 0 0
4.97453e-17 0 0
3.77758e-18 0 0
2.69412e-19 0 0
1.80982e-20 0 0
1.14832e-21 0 0
6.89942e-23 0 0
3.93485e-24 0 0
2.13493e-25 0 0
1.1043e-26 0 0
5.45619e-28 0 0
2.57976e-29 0 0
1.16922e-30 0 0
5.08783e-32 0 0
2.12877e-33 0 0
8.57614e-35 0 0
3.33108e-36 0 0
1.24894e-37 0 0
4.52538e-39 0 0
1.58635e-40 0 0
5.38531e-42 0 0
1.77219e-43 0 0
5.65833e-45 0 0
1.75436e-46 0 0
5.28628e-48 0 0
1.54924e-49 0 0
4.41919e-51 0 0
1.22778e-52 0 0
3.3246e-54 0 0
8.77952e-56 0 0
2.26244e-57 0 0
5.69249e-59 0 0
1.39922e-60 0 0
3.36168e-62 0 0
7.89819e-64 0 0
1.81555e-65 0 0
4.08507e-67 0 0
9.19509e-69 0 0
2.11982e-66 0 0
0 0 -1.29422e-167
5.71853e-08 0 -1.19476e-165
8.05762e-08 0 -1.16735e-163
4.58551e-08 0 -9.38314e-162
1.47819e-08 0 -5.75363e-160
3.29549e-09 0 -2.67945e-158
5.87263e-10 0 -8.0539e-157
8.9198e-11 0 -3.76548e-157
1.19141e-11 0 -2.64099e-155
1.42445e-12 0 -1.95659e-153
1.5424e-13 0 -1.42633e-151
1.52575e-14 0 -1.02334e-149
1.38848e-15 0 -7.22392e-148
1.16926e-16 0 -5.01551e-146
9.15808e-18 0 -3.42347e-144
6.70136e-19 0 -2.29636e-142
4.59954e-20 0 -1.51297e-140
2.97171e-21 0 -9.7864e-139
1.81315e-22 0 -6.21141e-137
1.04775e-23 0 -3.86621e-135
5.74949e-25 0 -2.35854e-133
3.00327e-26 0 -1.40923e-131
1.49661e-27 0 -8.24126e-130
7.12946e-29 0 -4.71353e-128
3.25271e-30 0 -2.63439e-126
1.42372e-31 0 -1.43748e-124
5.98804e-33 0 -7.65037e-123
2.42366e-34 0 -3.9669e-121
9.45326e-36 0 -2.00165e-119
3.55774e-37 0 -9.81563e-118
1.29351e-38 0 -4.67091e-116
4.54838e-40 0 -2.15338e-114
1.54843e-41 0 -9.60005e-113
5.10868e-43 0 -4.12995e-111
1.63497e-44 0 -1.71039e-109
5.08019e-46 0 -6.80036e-108
1.53383e-47 0 -2.58743e-106
4.50345e-49 0 -9.38609e-105
1.28679e-50 0 -3.23195e-103
3.5807e-52 0 -1.05078e-101
9.71007e-54 0 -3.20511e-100
2.56771e-55 0 -9.09927e-99
6.62525e-57 0 -2.38047e-97
1.66895e-58 0 -5.66505e-96
4.10686e-60 0 -1.20549e-94
9.87714e-62 0 -2.23988e-93
2.32287e-63 0 -3.51036e-92
5.34446e-65 0 -4.39552e-91
1.20357e-66 0 -4.00007e-90
2.71136e-68 0 -2.16509e-89
6.16812e-66 0 -6.8488e-87
0.0036 -6.92078e-167 -4.14931e-167
0.00415687 -1.17982e-162 -1.13879e-162
0.00249966 -2.46125e-160 -2.51157e-160
0.000885046 -3.6607e-158 -3.48645e-158
0.000207882 -3.2398e-156 -2.96135e-156
3.58558e-05 -2.06047e-154 -1.85778e-154
5.19172e-06 -9.22091e-153 -8.28676e-153
6.62217e-07 -8.89521e-154 -8.71602e-154
7.60461e-08 -5.35695e-152 -5.35856e-152
7.95595e-09 -4.05517e-150 -4.05534e-150
7.64375e-10 -3.01384e-148 -3.01385e-148
6.78547e-11 -2.20459e-146 -2.20459e-146
5.59408e-12 -1.58726e-144 -1.58726e-144
4.3021e-13 -1.12443e-142 -1.12443e-142
3.0985e-14 -7.83454e-141 -7.83454e-141
2.09742e-15 -5.36668e-139 -5.36668e-139
1.33872e-16 -3.61258e-137 -3.61258e-137
8.08044e-18 -2.38859e-135 -2.38859e-135
4.62481e-19 -1.55046e-133 -1.55046e-133
2.51615e-20 -9.87499e-132 -9.87499e-132
1.30421e-21 -6.16762e-130 -6.16762e-130
6.45408e-23 -3.77513e-128 -3.77513e-128
3.05514e-24 -2.263e-126 -2.263e-126
1.38584e-25 -1.32757e-124 -1.32757e-124
6.03394e-27 -7.61567e-123 -7.61567e-123
2.52557e-28 -4.26832e-121 -4.26832e-121
1.01768e-29 -2.33503e-119 -2.33503e-119
3.95307e-31 -1.24556e-117 -1.24556e-117
1.48208e-32 -6.471e-116 -6.471e-116
5.36949e-34 -3.27011e-114 -3.27011e-114
1.88188e-35 -1.60518e-112 -1.60518e-112
6.38699e-37 -7.6412e-111 -7.6412e-111
2.1012e-38 -3.52131e-109 -3.52131e-109
6.70663e-40 -1.56773e-107 -1.56773e-107
2.07865e-41 -6.7276e-106 -6.7276e-106
6.26112e-43 -2.77533e-104 -2.77533e-104
1.83423e-44 -1.09723e-102 -1.09723e-102
5.23003e-46 -4.14222e-101 -4.14222e-101
1.45247e-47 -1.48685e-99 -1.48685e-99
3.9314e-49 -5.04852e-98 -5.04852e-98
1.03777e-50 -1.61141e-96 -1.61141e-96
2.67319e-52 -4.79764e-95 -4.79764e-95
6.72326e-54 -1.3194e-93 -1.3194e-93
1.65192e-55 -3.30932e-92 -3.30932e-92
3.96722e-57 -7.44321e-91 -7.44321e-91
9.31723e-59 -1.46631e-89 -1.46631e-89
2.14091e-60 -2.44453e-88 -2.44453e-88
4.81528e-62 -3.26689e-87 -3.26689e-87
1.0606e-63 -3.1811e-86 -3.1811e-86
2.33693e-65 -1.83836e-85 -1.83836e-85
2.32674e-65 -3.09322e-85 -3.09322e-85
0.01 -7.25426e-166 -5.37261e-167
0.0104872 -6.90133e-162 -6.78145e-164
0.00706906 -1.58967e-159 -6.35876e-160
0.00272478 -6.43432e-157 -5.81979e-157
0.000630209 -9.37088e-155 -8.57531e-155
8.89495e-05 -9.18e-153 -8.27866e-153
1.12377e-05 -8.11252e-151 -7.28146e-151
1.30634e-06 -1.78698e-152 -1.71897e-152
1.41154e-07 -7.77825e-151 -7.79145e-151
1.41746e-08 -6.04544e-149 -6.04685e-149
1.32388e-09 -4.54618e-147 -4.54628e-147
1.15203e-10 -3.35949e-145 -3.35949e-145
9.36228e-12 -2.44383e-143 -2.44383e-143
7.12463e-13 -1.74975e-141 -1.74975e-141
5.09124e-14 -1.23262e-139 -1.23262e-139
3.42591e-15 -8.53994e-138 -8.53994e-138
2.17668e-16 -5.81657e-136 -5.81657e-136
1.30919e-17 -3.89286e-134 -3.89286e-134
7.47224e-19 -2.55889e-132 -2.55889e-132
4.05635e-20 -1.65115e-130 -1.65115e-130
2.09884e-21 -1.04529e-128 -1.04529e-128
1.03717e-22 -6.48843e-127 -6.48843e-127
4.90395e-24 -3.94651e-125 -3.94651e-125
2.2224e-25 -2.35048e-123 -2.35048e-123
9.6689e-27 -1.36973e-121 -1.36973e-121
4.04448e-28 -7.80358e-120 -7.80358e-120
1.62888e-29 -4.34247e-118 -4.34247e-118
6.32453e-31 -2.35793e-116 -2.35793e-116
2.37036e-32 -1.24796e-114 -1.24796e-114
8.58515e-34 -6.43009e-113 -6.43009e-113
3.00817e-35 -3.221e-111 -3.221e-111
1.02075e-36 -1.56625e-109 -1.56625e-109
3.35755e-38 -7.38047e-108 -7.38047e-108
1.07152e-39 -3.3637e-106 -3.3637e-106
3.32072e-41 -1.47944e-104 -1.47944e-104
1.00015e-42 -6.2634e-103 -6.2634e-103
2.9298e-44 -2.54489e-101 -2.54489e-101
8.35344e-46 -9.88918e-100 -9.88918e-100
2.3198e-47 -3.66002e-98 -3.66002e-98
6.27883e-49 -1.28375e-96 -1.28375e-96
1.65739e-50 -4.24144e-95 -4.24144e-95
4.2692e-52 -1.31011e-93 -1.31011e-93
1.07373e-53 -3.74729e-92 -3.74729e-92
2.63817e-55 -9.80283e-91 -9.80283e-91
6.33581e-57 -2.30669e-89 -2.30669e-89
1.48801e-58 -4.77047e-88 -4.77047e-88
3.41919e-60 -8.38046e-87 -8.38046e-87
7.69045e-62 -1.18487e-85 -1.18487e-85
1.6939e-63 -1.22494e-84 -1.22494e-84
3.73242e-65 -7.51361e-84 -7.51361e-84
3.71619e-65 -1.2766e-83 -1.2766e-83
0.0148 -2.37764e-167 -1.05683e-165
0.0167792 -3.12621e-163 1.6565e-161
0.0135255 -1.10457e-161 -1.49181e-159
0.00613614 -1.08267e-158 -4.99521e-157
0.00146656 -1.03859e-156 -1.00201e-154
6.02625e-05 -1.02778e-156 -8.11329e-153
7.15361e-06 0 -7.1995e-151
7.92505e-07 7.06221e-149 6.25741e-149
9.03297e-08 -8.8982e-150 -9.00418e-150
9.46057e-09 -7.84617e-148 -7.85776e-148
9.13899e-10 -6.03965e-146 -6.04052e-146
8.17392e-11 -4.51506e-144 -4.51506e-144
6.79491e-12 -3.31973e-142 -3.31973e-142
5.26977e-13 -2.40327e-140 -2.40327e-140
3.82661e-14 -1.71241e-138 -1.71241e-138
2.6105e-15 -1.20048e-136 -1.20048e-136
1.67837e-16 -8.27687e-135 -8.27687e-135
1.01995e-17 -5.60988e-133 -5.60988e-133
5.87449e-19 -3.7361e-131 -3.7361e-131
3.21471e-20 -2.44369e-129 -2.44369e-129
1.6753e-21 -1.56894e-127 -1.56894e-127
8.33188e-23 -9.88217e-126 -9.88217e-126
3.9623e-24 -6.10264e-124 -6.10264e-124
1.80506e-25 -3.69244e-122 -3.69244e-122
7.8906e-27 -2.1874e-120 -2.1874e-120
3.31496e-28 -1.2677e-118 -1.2677e-118
1.34039e-29 -7.18137e-117 -7.18137e-117
5.22344e-31 -3.97273e-115 -3.97273e-115
1.96429e-32 -2.14392e-113 -2.14392e-113
7.13667e-34 -1.12736e-111 -1.12736e-111
2.50788e-35 -5.76892e-110 -5.76892e-110
8.53289e-37 -2.86862e-108 -2.86862e-108
2.81377e-38 -1.38385e-106 -1.38385e-106
9.00092e-40 -6.46462e-105 -6.46462e-105
2.79557e-41 -2.91818e-103 -2.91818e-103
8.43724e-43 -1.2698e-101 -1.2698e-101
2.47636e-44 -5.31106e-100 -5.31106e-100
7.0735e-46 -2.12813e-98 -2.12813e-98
1.96774e-47 -8.13693e-97 -8.13693e-97
5.33461e-49 -2.95454e-95 -2.95454e-95
1.41032e-50 -1.01285e-93 -1.01285e-93
3.63808e-52 -3.25434e-92 -3.25434e-92
9.16264e-54 -9.70995e-91 -9.70995e-91
2.25424e-55 -2.65806e-89 -2.65806e-89
5.42054e-57 -6.56826e-88 -6.56826e-88
1.27457e-58 -1.43215e-86 -1.43215e-86
2.93206e-60 -2.66427e-85 -2.66427e-85
6.60193e-62 -4.00794e-84 -4.00794e-84
1.45565e-63 -4.4285e-83 -4.4285e-83
3.21067e-65 -2.90509e-82 -2.90509e-82
3.19666e-65 -4.98712e-82 -4.98712e-82
0.018 -4.76311e-169 -5.93654e-164
0.0210224 -8.37996e-165 6.66352e-160
0.0195314 3.253e-164 -6.97641e-158
0.0104778 -1.31819e-160 6.63424e-156
0.00269001 -1.15077e-158 -1.41855e-153
0 -1.13758e-158 -1.42526e-153
0 0 0
0 0 6.25904e-149
7.55624e-09 -6.22991e-147 -5.52274e-147
1.45216e-09 -8.00639e-147 -8.09978e-147
1.89341e-10 -6.89982e-145 -6.90745e-145
2.03856e-11 -5.26228e-143 -5.26229e-143
1.92497e-12 -3.912e-141 -3.912e-141
1.63899e-13 -2.86446e-139 -2.86446e-139
1.27832e-14 -2.06519e-137 -2.06519e-137
9.22788e-16 -1.46553e-135 -1.46553e-135
6.21139e-17 -1.02325e-133 -1.02325e-133
3.92081e-18 -7.02655e-132 -7.02655e-132
2.3316e-19 -4.74337e-130 -4.74337e-130
1.31124e-20 -3.14641e-128 -3.14641e-128
6.99644e-22 -2.04979e-126 -2.04979e-126
3.55198e-23 -1.3108e-124 -1.3108e-124
1.72008e-24 -8.22331e-123 -8.22331e-123
7.9631e-26 -5.05785e-121 -5.05785e-121
3.53138e-27 -3.0479e-119 -3.0479e-119
1.50289e-28 -1.79816e-117 -1.79816e-117
6.14831e-30 -1.03776e-115 -1.03776e-115
2.42154e-31 -5.85354e-114 -5.85354e-114
9.19495e-33 -3.2238e-112 -3.2238e-112
3.37049e-34 -1.7317e-110 -1.7317e-110
1.19413e-35 -9.06155e-109 -9.06155e-109
4.09365e-37 -4.61281e-107 -4.61281e-107
1.35935e-38 -2.28084e-105 -2.28084e-105
4.37663e-40 -1.09353e-103 -1.09353e-103
1.36754e-41 -5.07346e-102 -5.07346e-102
4.1506e-43 -2.27254e-100 -2.27254e-100
1.22464e-44 -9.80123e-99 -9.80123e-99
3.51534e-46 -4.05729e-97 -4.05729e-97
9.82449e-48 -1.60596e-95 -1.60596e-95
2.67507e-49 -6.05058e-94 -6.05058e-94
7.1012e-51 -2.15769e-92 -2.15769e-92
1.83895e-52 -7.2323e-91 -7.2323e-91
4.64846e-54 -2.25832e-89 -2.25832e-89
1.14761e-55 -6.49306e-88 -6.49306e-88
2.76863e-57 -1.69206e-86 -1.69206e-86
6.53044e-59 -3.90874e-85 -3.90874e-85
1.50675e-60 -7.74403e-84 -7.74403e-84
3.40227e-62 -1.24781e-82 -1.24781e-82
7.52182e-64 -1.48527e-81 -1.48527e-81
1.66342e-65 -1.05168e-80 -1.05168e-80
1.65607e-65 -1.8253e-80 -1.8253e-80
0.0196 -9.81543e-170 3.08171e-164
0.0229228 -1.74025e-165 -2.631e-160
0.0228516 -2.43598e-164 2.04837e-158
0.0135988 -2.28681e-161 -1.07928e-156
0.00375626 -1.74149e-159 -3.02961e-154
0.000264817 -1.71864e-159 2.1551e-151
0 0 2.15812e-151
0 0 0
0 0 -5.51447e-147
1.08316e-10 5.34707e-145 4.64995e-145
2.24924e-11 -6.14823e-144 -6.21383e-144
3.07557e-12 -5.17505e-142 -5.17506e-142
3.40572e-13 -3.89115e-140 -3.89115e-140
3.26262e-14 -2.88283e-138 -2.88283e-138
2.7906e-15 -2.10383e-136 -2.10383e-136
2.17081e-16 -1.51184e-134 -1.51184e-134
1.55472e-17 -1.06942e-132 -1.06942e-132
1.03422e-18 -7.44344e-131 -7.44344e-131
6.43305e-20 -5.0957e-129 -5.0957e-129
3.7617e-21 -3.42965e-127 -3.42965e-127
2.07691e-22 -2.26835e-125 -2.26835e-125
1.08673e-23 -1.47355e-123 -1.47355e-123
5.4059e-25 -9.39686e-122 -9.39686e-122
2.56361e-26 -5.87905e-120 -5.87905e-120
1.1618e-27 -3.60632e-118 -3.60632e-118
5.04241e-29 -2.16747e-116 -2.16747e-116
2.10001e-30 -1.2754e-114 -1.2754e-114
8.40705e-32 -7.34149e-113 -7.34149e-113
3.2404e-33 -4.13017e-111 -4.13017e-111
1.20426e-34 -2.26859e-109 -2.26859e-109
4.32115e-36 -1.21523e-107 -1.21523e-107
1.49889e-37 -6.34044e-106 -6.34044e-106
5.03198e-39 -3.2175e-104 -3.2175e-104
1.63669e-40 -1.58543e-102 -1.58543e-102
5.16288e-42 -7.57166e-101 -7.57166e-101
1.58096e-43 -3.49713e-99 -3.49713e-99
4.70362e-45 -1.55816e-97 -1.55816e-97
1.36078e-46 -6.6773e-96 -6.6773e-96
3.8311e-48 -2.7424e-94 -2.7424e-94
1.05041e-49 -1.07481e-92 -1.07481e-92
2.80671e-51 -3.99857e-91 -3.99857e-91
7.31346e-53 -1.40271e-89 -1.40271e-89
1.85954e-54 -4.60077e-88 -4.60077e-88
4.61642e-56 -1.39521e-86 -1.39521e-86
1.1196e-57 -3.85299e-85 -3.85299e-85
2.65411e-59 -9.48345e-84 -9.48345e-84
6.15303e-61 -2.01439e-82 -2.01439e-82
1.39569e-62 -3.50453e-81 -3.50453e-81
3.09904e-64 -4.53725e-80 -4.53725e-80
6.88238e-66 -3.50794e-79 -3.50794e-79
6.85143e-66 -6.15983e-79 -6.15983e-79
0.0196 -4.89073e-168 3.21674e-164
0.0229206 -7.72416e-164 -2.78186e-160
0.0228438 -6.01975e-162 2.22369e-158
0.0135924 -1.7596e-159 -1.26108e-156
0.00380382 -1.45098e-157 -2.65431e-154
0.000530546 -5.19997e-156 -1.10633e-153
2.64691e-05 -5.05663e-156 -2.02776e-149
0 0 -2.02768e-149
0 0 0
0 0 4.72366e-145
1.50331e-12 -5.21969e-143 -5.17812e-143
6.90289e-13 -4.12692e-141 -4.12698e-141
1.19912e-13 -3.13991e-139 -3.13991e-139
1.46767e-14 -2.35454e-137 -2.35454e-137
1.46508e-15 -1.73994e-135 -1.73994e-135
1.26712e-16 -1.26666e-133 -1.26666e-133
9.80031e-18 -9.08122e-132 -9.08122e-132
6.90917e-19 -6.40958e-130 -6.40958e-130
4.49664e-20 -4.45197e-128 -4.45197e-128
2.72621e-21 -3.04186e-126 -3.04186e-126
1.55022e-22 -2.04363e-124 -2.04363e-124
8.31199e-24 -1.34939e-122 -1.34939e-122
4.22059e-25 -8.75257e-121 -8.75257e-121
2.03682e-26 -5.57387e-119 -5.57387e-119
9.37058e-28 -3.48297e-117 -3.48297e-117
4.12053e-29 -2.13422e-115 -2.13422e-115
1.73584e-30 -1.28151e-113 -1.28151e-113
7.01974e-32 -7.5347e-112 -7.5347e-112
2.73008e-33 -4.3342e-110 -4.3342e-110
1.02278e-34 -2.43693e-108 -2.43693e-108
3.69653e-36 -1.33788e-106 -1.33788e-106
1.29061e-37 -7.16352e-105 -7.16352e-105
4.35841e-39 -3.7359e-103 -3.7359e-103
1.42526e-40 -1.89484e-101 -1.89484e-101
4.51813e-42 -9.3306e-100 -9.3306e-100
1.38979e-43 -4.45187e-98 -4.45187e-98
4.15211e-45 -2.05333e-96 -2.05333e-96
1.20585e-46 -9.12979e-95 -9.12979e-95
3.40704e-48 -3.90049e-93 -3.90049e-93
9.37236e-50 -1.59476e-91 -1.59476e-91
2.51202e-51 -6.20937e-90 -6.20937e-90
6.56442e-53 -2.28811e-88 -2.28811e-88
1.67358e-54 -7.91613e-87 -7.91613e-87
4.16523e-56 -2.54433e-85 -2.54433e-85
1.01257e-57 -7.48835e-84 -7.48835e-84
2.40572e-59 -1.97699e-82 -1.97699e-82
5.5889e-61 -4.53842e-81 -4.53842e-81
1.27024e-62 -8.60823e-80 -8.60823e-80
2.82576e-64 -1.22684e-78 -1.22684e-78
6.28682e-66 -1.05112e-77 -1.05112e-77
6.25855e-66 -1.86881e-77 -1.86881e-77
0.018 -2.00892e-166 -6.44338e-164
0.0209972 -4.62912e-162 7.48164e-160
0.0194775 -7.19321e-160 -8.141e-158
0.0104415 -1.10243e-157 8.43559e-156
0.00275061 -8.68615e-156 5.66711e-154
0.000427929 -4.54536e-154 6.82768e-153
4.71172e-05 -1.6134e-152 1.84297e-152
1.91868e-06 -1.56881e-152 1.77359e-147
0 0 1.77358e-147
0 0 0
0 -3.1725e-142 -3.1655e-142
5.42565e-12 -2.50785e-140 -2.50778e-140
8.04168e-13 -1.93078e-138 -1.93078e-138
8.43201e-14 -1.46594e-136 -1.46594e-136
7.42686e-15 -1.09731e-134 -1.09731e-134
5.80707e-16 -8.09572e-133 -8.09572e-133
4.13588e-17 -5.88511e-131 -5.88511e-131
2.72272e-18 -4.21394e-129 -4.21394e-129
1.67257e-19 -2.97103e-127 -2.97103e-127
9.65244e-21 -2.06183e-125 -2.06183e-125
5.25992e-22 -1.40783e-123 -1.40783e-123
2.71751e-23 -9.45416e-122 -9.45416e-122
1.33556e-24 -6.24124e-120 -6.24124e-120
6.2616e-26 -4.04839e-118 -4.04839e-118
2.80736e-27 -2.57887e-116 -2.57887e-116
1.20624e-28 -1.61236e-114 -1.61236e-114
4.97651e-30 -9.88793e-113 -9.88793e-113
1.97477e-31 -5.9438e-111 -5.9438e-111
7.54898e-33 -3.49951e-109 -3.49951e-109
2.78391e-34 -2.01637e-107 -2.01637e-107
9.91715e-36 -1.13592e-105 -1.13592e-105
3.4167e-37 -6.24999e-104 -6.24999e-104
1.13973e-38 -3.3547e-102 -3.3547e-102
3.68486e-40 -1.75421e-100 -1.75421e-100
1.15582e-41 -8.92255e-99 -8.92255e-99
3.52047e-43 -4.40653e-97 -4.40653e-97
1.04214e-44 -2.10858e-95 -2.10858e-95
3.00064e-46 -9.75189e-94 -9.75189e-94
8.40995e-48 -4.34604e-92 -4.34604e-92
2.29602e-49 -1.85962e-90 -1.85962e-90
6.11018e-51 -7.60546e-89 -7.60546e-89
1.58602e-52 -2.95614e-87 -2.95614e-87
4.01794e-54 -1.08399e-85 -1.08399e-85
9.9401e-56 -3.7135e-84 -3.7135e-84
2.40276e-57 -1.17258e-82 -1.17258e-82
5.67795e-59 -3.34718e-81 -3.34718e-81
1.31235e-60 -8.38534e-80 -8.38534e-80
2.96824e-62 -1.75504e-78 -1.75504e-78
6.57263e-64 -2.79578e-77 -2.79578e-77
1.45574e-65 -2.70698e-76 -2.70698e-76
1.44932e-65 -4.877e-76 -4.877e-76
0.0148 -1.25014e-164 -8.08075e-165
0.0165922 -3.25746e-160 1.36046e-160
0.0132795 -4.23054e-158 -4.06983e-158
0.00601276 -4.44805e-156 -1.72859e-155
0.00146103 -3.54272e-154 -7.61062e-154
0.000236532 -2.38054e-152 -2.88903e-152
3.10824e-05 -1.37811e-150 -1.42271e-150
3.17535e-06 -5.9191e-149 -5.94198e-149
1.11164e-07 -5.78364e-149 -1.52798e-145
9.398e-09 0 -1.27414e-143
8.17193e-10 -1.29542e-141 -1.308e-141
7.22968e-11 -1.036e-139 -1.036e-139
5.95806e-12 -8.0742e-138 -8.0742e-138
4.58899e-13 -6.20851e-136 -6.20851e-136
3.31401e-14 -4.70885e-134 -4.70885e-134
2.25089e-15 -3.52184e-132 -3.52184e-132
1.44208e-16 -2.59675e-130 -2.59675e-130
8.73869e-18 -1.887e-128 -1.887e-128
5.02158e-19 -1.35102e-126 -1.35102e-126
2.74287e-20 -9.52693e-125 -9.52693e-125
1.42725e-21 -6.61449e-123 -6.61449e-123
7.08957e-23 -4.5199e-121 -4.5199e-121
3.36816e-24 -3.03862e-119 -3.03862e-119
1.53316e-25 -2.00886e-117 -2.00886e-117
6.69764e-27 -1.30541e-115 -1.30541e-115