# vtk DataFile Version 2.0
Tobias Weinzierl: CPU, Manycore and Cluster Computing
ASCII

DATASET STRUCTURED_POINTS
DIMENSIONS  51 11 6

ORIGIN 0 0 0 

SPACING 0.1 0.1 0.1 

POINT_DATA 3366

VECTORS velocity float
0 0 0
1.18893e-08 0 0
1.97859e-08 0 0
1.45419e-08 0 0
5.97926e-09 0 0
1.60455e-09 0 0
3.33993e-10 0 0
5.86099e-11 0 0
9.0362e-12 0 0
1.2513e-12 0 0
1.57681e-13 0 0
1.82406e-14 0 0
1.94963e-15 0 0
1.93549e-16 0 0
1.79264e-17 0 0
1.55511e-18 0 0
1.26803e-19 0 0
9.74951e-21 0 0
7.08902e-22 0 0
4.88765e-23 0 0
3.20323e-24 0 0
2e-25 0 0
1.19214e-26 0 0
6.79701e-28 0 0
3.71343e-29 0 0
1.94722e-30 0 0
9.81541e-32 0 0
4.76294e-33 0 0
2.2279e-34 0 0
1.0058e-35 0 0
4.3877e-37 0 0
1.85159e-38 0 0
7.56629e-40 0 0
2.99692e-41 0 0
1.15165e-42 0 0
4.2973e-44 0 0
1.55831e-45 0 0
5.49585e-47 0 0
1.88649e-48 0 0
6.30695e-50 0 0
2.05502e-51 0 0
6.5301e-53 0 0
2.02484e-54 0 0
6.13026e-56 0 0
1.8131e-57 0 0
5.24142e-59 0 0
1.48175e-60 0 0
4.09836e-62 0 0
1.10959e-63 0 0
3.0181e-65 0 0
8.35484e-63 0 0
0 -3.64925e-159 0
4.38786e-08 -2.7686e-157 0
8.98188e-08 -2.36985e-155 0
7.4639e-08 -1.84705e-153 0
3.1684e-08 -1.19054e-151 0
7.90883e-09 -6.12539e-150 0
1.53065e-09 -2.24385e-148 0
2.53444e-10 -3.74156e-149 0
3.74291e-11 -2.00961e-147 0
5.02372e-12 -1.24482e-145 0
6.18926e-13 -7.5682e-144 0
7.0432e-14 -4.52749e-142 0
7.43795e-15 -2.66507e-140 0
7.31829e-16 -1.5431e-138 0
6.73273e-17 -8.78495e-137 0
5.81079e-18 -4.91535e-135 0
4.71938e-19 -2.70171e-133 0
3.6174e-20 -1.45808e-131 0
2.62386e-21 -7.72241e-130 0
1.80554e-22 -4.01152e-128 0
1.18144e-23 -2.04263e-126 0
7.36716e-25 -1.01885e-124 0
4.38676e-26 -4.97472e-123 0
2.49896e-27 -2.37594e-121 0
1.36428e-28 -1.10905e-119 0
7.14964e-30 -5.05508e-118 0
3.60212e-31 -2.2477e-116 0
1.74719e-32 -9.739e-115 0
8.16965e-34 -4.10715e-113 0
3.68713e-35 -1.68363e-111 0
1.60804e-36 -6.69874e-110 0
6.78434e-38 -2.58269e-108 0
2.77181e-39 -9.6312e-107 0
1.0977e-40 -3.46668e-105 0
4.21762e-42 -1.20154e-103 0
1.57358e-43 -3.9991e-102 0
5.7056e-45 -1.27413e-100 0
2.01206e-46 -3.87151e-99 0
6.90602e-48 -1.11701e-97 0
2.30868e-49 -3.04416e-96 0
7.52202e-51 -7.78636e-95 0
2.3901e-52 -1.85456e-93 0
7.41085e-54 -4.07266e-92 0
2.24357e-55 -8.14118e-91 0
6.63544e-57 -1.4564e-89 0
1.91816e-58 -2.27756e-88 0
5.42252e-60 -3.00928e-87 0
1.49978e-61 -3.18607e-86 0
4.06043e-63 -2.46656e-85 0
1.10443e-64 -1.15627e-84 0
3.06542e-62 -4.34003e-82 0
0 -3.68554e-158 0
6.41022e-08 -2.76123e-156 0
1.92577e-07 -2.96359e-154 0
2.05913e-07 -3.14573e-152 0
9.6085e-08 -2.86573e-150 0
1.94695e-08 -2.23213e-148 0
3.25161e-09 -1.61286e-146 0
4.847e-10 -5.49089e-148 0
6.67977e-11 -2.39465e-146 0
8.56435e-12 -1.52256e-144 0
1.02353e-12 -9.36326e-143 0
1.14135e-13 -5.65663e-141 0
1.18901e-14 -3.363e-139 0
1.15918e-15 -1.96729e-137 0
1.05981e-16 -1.13192e-135 0
9.10828e-18 -6.40299e-134 0
7.37647e-19 -3.55943e-132 0
5.64331e-20 -1.94359e-130 0
4.08827e-21 -1.04192e-128 0
2.81108e-22 -5.48069e-127 0
1.8386e-23 -2.82721e-125 0
1.14627e-24 -1.42932e-123 0
6.82522e-26 -7.07717e-122 0
3.8884e-27 -3.4295e-120 0
2.12321e-28 -1.62517e-118 0
1.11295e-29 -7.52474e-117 0
5.60882e-31 -3.40093e-115 0
2.72137e-32 -1.49888e-113 0
1.2729e-33 -6.43434e-112 0
5.74678e-35 -2.68695e-110 0
2.50717e-36 -1.08998e-108 0
1.05814e-37 -4.28846e-107 0
4.32462e-39 -1.63355e-105 0
1.71323e-40 -6.01223e-104 0
6.58485e-42 -2.13312e-102 0
2.45759e-43 -7.27652e-101 0
8.91374e-45 -2.37917e-99 0
3.14438e-46 -7.42953e-98 0
1.07958e-47 -2.20638e-96 0
3.61007e-49 -6.1996e-95 0
1.17655e-50 -1.63799e-93 0
3.73949e-52 -4.03812e-92 0
1.1598e-53 -9.19915e-91 0
3.51209e-55 -1.91229e-89 0
1.03898e-56 -3.56714e-88 0
3.00418e-58 -5.83388e-87 0
8.49462e-60 -8.08667e-86 0
2.35001e-61 -9.01063e-85 0
6.3637e-63 -7.35947e-84 0
1.73129e-64 -3.63304e-83 0
4.81215e-62 -1.40217e-80 0
0 -1.56004e-159 0
4.49909e-08 -1.17994e-157 0
2.53087e-07 -9.93642e-156 0
3.94976e-07 -7.64406e-154 0
2.18975e-07 -3.83321e-152 0
1.31653e-08 -3.75775e-152 0
2.05496e-09 0 0
2.89866e-10 1.14787e-144 0
4.27551e-11 -2.2442e-145 0
5.76842e-12 -1.61866e-143 0
7.1731e-13 -1.01865e-141 0
8.25638e-14 -6.22353e-140 0
8.82576e-15 -3.73845e-138 0
8.78944e-16 -2.21037e-136 0
8.18042e-17 -1.28586e-134 0
7.13743e-18 -7.35705e-133 0
5.85556e-19 -4.13822e-131 0
4.53011e-20 -2.28732e-129 0
3.31399e-21 -1.24175e-127 0
2.29832e-22 -6.61773e-126 0
1.5147e-23 -3.4603e-124 0
9.50754e-25 -1.77415e-122 0
5.69558e-26 -8.91371e-121 0
3.26267e-27 -4.38547e-119 0
1.7904e-28 -2.11122e-117 0
9.42753e-30 -9.93703e-116 0
4.77076e-31 -4.56868e-114 0
2.32354e-32 -2.04978e-112 0
1.09061e-33 -8.96459e-111 0
4.93972e-35 -3.81712e-109 0
2.16151e-36 -1.58029e-107 0
9.14791e-38 -6.35154e-106 0
3.74841e-39 -2.47412e-104 0
1.48855e-40 -9.32229e-103 0
5.73417e-42 -3.39022e-101 0
2.14462e-43 -1.18694e-99 0
7.79408e-45 -3.98884e-98 0
2.75455e-46 -1.28225e-96 0
9.47401e-48 -3.92664e-95 0
3.17335e-49 -1.13984e-93 0
1.03585e-50 -3.11758e-92 0
3.29719e-52 -7.97435e-91 0
1.02406e-53 -1.88955e-89 0
3.10522e-55 -4.09695e-88 0
9.19782e-57 -7.99563e-87 0
2.66276e-58 -1.37273e-85 0
7.53793e-60 -2.00488e-84 0
2.08764e-61 -2.36269e-83 0
5.65918e-63 -2.0474e-82 0
1.54121e-64 -1.07098e-81 0
4.26749e-62 -4.25438e-79 0
0 -4.26535e-161 0
1.23605e-08 -3.25692e-159 0
2.32237e-07 -2.2844e-157 0
5.59273e-07 -1.39011e-155 0
3.79379e-07 -5.14388e-154 0
0 -5.00712e-154 0
0 0 0
0 0 0
4.35034e-12 -8.33077e-143 0
1.07486e-12 -1.35285e-142 0
1.79117e-13 -9.53074e-141 0
2.46393e-14 -5.93863e-139 0
2.97195e-15 -3.60546e-137 0
3.22993e-16 -2.15527e-135 0
3.21172e-17 -1.26812e-133 0
2.95129e-18 -7.34121e-132 0
2.52438e-19 -4.17977e-130 0
2.02113e-20 -2.33952e-128 0
1.52165e-21 -1.28675e-126 0
1.08137e-22 -6.95086e-125 0
7.27811e-24 -3.68581e-123 0
4.65268e-25 -1.91749e-121 0
2.83237e-26 -9.78076e-120 0
1.64575e-27 -4.88838e-118 0
9.14653e-29 -2.39221e-116 0
4.8714e-30 -1.14534e-114 0
2.49066e-31 -5.36045e-113 0
1.22443e-32 -2.45014e-111 0
5.79637e-34 -1.09257e-109 0
2.64592e-35 -4.74771e-108 0
1.16613e-36 -2.00786e-106 0
4.96803e-38 -8.25225e-105 0
2.04819e-39 -3.29079e-103 0
8.18e-41 -1.27091e-101 0
3.1678e-42 -4.74358e-100 0
1.19065e-43 -1.70693e-98 0
4.34711e-45 -5.90498e-97 0
1.543e-46 -1.95736e-95 0
5.3286e-48 -6.1924e-94 0
1.79167e-49 -1.86087e-92 0
5.8695e-51 -5.281e-91 0
1.87468e-52 -1.40513e-89 0
5.84125e-54 -3.47313e-88 0
1.77663e-55 -7.88004e-87 0
5.2777e-57 -1.61491e-85 0
1.53209e-58 -2.92285e-84 0
4.34849e-60 -4.51967e-83 0
1.20732e-61 -5.66509e-82 0
3.28056e-63 -5.24271e-81 0
8.95491e-65 -2.92757e-80 0
2.45078e-62 -1.19819e-77 0
0 -8.48978e-162 0
-4.25624e-09 -6.47496e-160 0
1.8761e-07 -3.83288e-158 0
6.34739e-07 -2.04101e-156 0
5.12018e-07 -7.05732e-155 0
6.83335e-08 -6.85698e-155 0
0 0 0
0 0 0
0 0 0
9.83624e-14 5.82696e-141 0
2.626e-14 -6.95591e-140 0
4.59029e-15 -4.78306e-138 0
6.4896e-16 -2.93591e-136 0
7.92658e-17 -1.77497e-134 0
8.63026e-18 -1.05663e-132 0
8.5304e-19 -6.19135e-131 0
7.74815e-20 -3.56952e-129 0
6.52417e-21 -2.02405e-127 0
5.12719e-22 -1.12833e-125 0
3.78098e-23 -6.18082e-124 0
2.62807e-24 -3.32538e-122 0
1.72828e-25 -1.75626e-120 0
1.07882e-26 -9.1e-119 0
6.41021e-28 -4.62303e-117 0
3.63475e-29 -2.30118e-115 0
1.9712e-30 -1.12149e-113 0
1.02451e-31 -5.34703e-112 0
5.11237e-33 -2.49181e-110 0
2.45345e-34 -1.13392e-108 0
1.13408e-35 -5.03314e-107 0
5.05628e-37 -2.17653e-105 0
2.17723e-38 -9.15736e-104 0
9.06533e-40 -3.74276e-102 0
3.65391e-41 -1.48345e-100 0
1.42719e-42 -5.69054e-99 0
5.40726e-44 -2.10782e-97 0
1.98904e-45 -7.51879e-96 0
7.10979e-47 -2.57472e-94 0
2.47153e-48 -8.43233e-93 0
8.36192e-50 -2.62924e-91 0
2.75543e-51 -7.76176e-90 0
8.84943e-53 -2.15439e-88 0
2.77182e-54 -5.57281e-87 0
8.47237e-56 -1.32795e-85 0
2.52867e-57 -2.86983e-84 0
7.37341e-59 -5.50236e-83 0
2.10167e-60 -9.0595e-82 0
5.85872e-62 -1.21583e-80 0
1.59809e-63 -1.21114e-79 0
4.37872e-65 -7.28566e-79 0
1.17853e-62 -3.07551e-76 0
0 -3.28769e-160 0
-4.38341e-09 -2.48301e-158 0
1.87249e-07 -1.62136e-156 0
6.34075e-07 -1.00306e-154 0
5.26421e-07 -4.742e-153 0
1.42395e-07 -1.35547e-151 0
1.04444e-08 -1.30904e-151 0
0 0 0
0 0 0
0 0 0
2.16788e-15 -4.81731e-139 0
1.16135e-15 -3.12595e-137 0
2.49921e-16 -1.94076e-135 0
3.83005e-17 -1.18703e-133 0
4.80501e-18 -7.15175e-132 0
5.22978e-19 -4.24305e-130 0
5.09126e-20 -2.47801e-128 0
4.51595e-21 -1.42405e-126 0
3.69501e-22 -8.04949e-125 0
2.81362e-23 -4.47346e-123 0
2.00728e-24 -2.44315e-121 0
1.34876e-25 -1.31061e-119 0
8.57259e-27 -6.90209e-118 0
5.17251e-28 -3.56631e-116 0
2.9719e-29 -1.80682e-114 0
1.63028e-30 -8.9696e-113 0
8.55858e-32 -4.35979e-111 0
4.30875e-33 -2.07318e-109 0
2.0841e-34 -9.63584e-108 0
9.70144e-36 -4.37308e-106 0
4.35276e-37 -1.93572e-104 0
1.88501e-38 -8.34653e-103 0
7.88939e-40 -3.50073e-101 0
3.19497e-41 -1.42593e-99 0
1.25333e-42 -5.63006e-98 0
4.76743e-44 -2.15018e-96 0
1.7601e-45 -7.92303e-95 0
6.31274e-47 -2.80853e-93 0
2.20134e-48 -9.54335e-92 0
7.46948e-50 -3.09528e-90 0
2.46803e-51 -9.53212e-89 0
7.9465e-53 -2.7689e-87 0
2.49491e-54 -7.52292e-86 0
7.64293e-56 -1.89065e-84 0
2.28588e-57 -4.32951e-83 0
6.67857e-59 -8.84342e-82 0
1.90715e-60 -1.56072e-80 0
5.32577e-62 -2.26058e-79 0
1.45512e-63 -2.44724e-78 0
3.99341e-65 -1.60406e-77 0
1.07509e-62 -6.99204e-75 0
0 -1.19919e-158 0
1.15085e-08 -8.98544e-157 0
2.29354e-07 -6.3443e-155 0
5.55107e-07 -4.21361e-153 0
3.98746e-07 -2.29784e-151 0
1.18107e-07 -9.69246e-150 0
1.8397e-08 -2.82147e-148 0
9.04625e-10 -2.7268e-148 0
0 0 0
0 0 0
0 -2.4107e-138 0
6.74663e-15 -1.55924e-136 0
1.26098e-15 -9.79004e-135 0
1.67137e-16 -6.05941e-133 0
1.86302e-17 -3.69593e-131 0
1.84383e-18 -2.2209e-129 0
1.66145e-19 -1.31432e-127 0
1.3826e-20 -7.65757e-126 0
1.0724e-21 -4.3907e-124 0
7.80423e-23 -2.4766e-122 0
5.3554e-24 -1.37364e-120 0
3.47931e-25 -7.48836e-119 0
2.14727e-26 -4.01034e-117 0
1.26245e-27 -2.10875e-115 0
7.08843e-29 -1.0881e-113 0
3.80937e-30 -5.50599e-112 0
1.96325e-31 -2.73042e-110 0
9.72048e-33 -1.32593e-108 0
4.63117e-34 -6.3001e-107 0
2.12631e-35 -2.92623e-105 0
9.42075e-37 -1.32726e-103 0
4.03286e-38 -5.87198e-102 0
1.67e-39 -2.53063e-100 0
6.69682e-41 -1.06082e-98 0
2.6032e-42 -4.31795e-97 0
9.81856e-44 -1.70326e-95 0
3.59646e-45 -6.496e-94 0
1.28043e-46 -2.38883e-92 0
4.43438e-48 -8.44259e-91 0
1.49496e-49 -2.85623e-89 0
4.90972e-51 -9.2046e-88 0
1.57182e-52 -2.80824e-86 0
4.90843e-54 -8.04701e-85 0
1.49603e-55 -2.14315e-83 0
4.45295e-57 -5.22961e-82 0
1.29509e-58 -1.14556e-80 0
3.68238e-60 -2.18436e-79 0
1.02411e-61 -3.44777e-78 0
2.78722e-63 -4.10494e-77 0
7.62023e-65 -2.97489e-76 0
2.09216e-62 -1.34069e-73 0
0 -3.25759e-157 0
4.03601e-08 -2.42358e-155 0
2.40091e-07 -1.78616e-153 0
3.8101e-07 -1.23264e-151 0
2.20902e-07 -7.59531e-150 0
6.26255e-08 -4.15233e-148 0
1.16037e-08 -1.96776e-146 0
1.46782e-09 -6.92398e-145 0
5.93471e-11 -6.73128e-145 0
6.02041e-12 0 0
6.44845e-13 -8.11009e-138 0
7.21971e-14 -5.30354e-136 0
7.55354e-15 -3.36881e-134 0
7.39928e-16 -2.11031e-132 0
6.80004e-17 -1.30334e-130 0
5.87582e-18 -7.93395e-129 0
4.7848e-19 -4.7589e-127 0
3.68059e-20 -2.81172e-125 0
2.68067e-21 -1.63582e-123 0
1.85278e-22 -9.3679e-122 0
1.21787e-23 -5.27864e-120 0
7.62897e-25 -2.92546e-118 0
4.56318e-26 -1.59391e-116 0
2.61094e-27 -8.53343e-115 0
1.43153e-28 -4.48689e-113 0
7.53311e-30 -2.31569e-111 0
3.81043e-31 -1.17237e-109 0
1.85529e-32 -5.81828e-108 0
8.70688e-34 -2.82847e-106 0
3.94335e-35 -1.34577e-104 0
1.72555e-36 -6.26109e-103 0
7.3034e-38 -2.84536e-101 0
2.993e-39 -1.26161e-99 0
1.18877e-40 -5.45036e-98 0
4.58028e-42 -2.29074e-96 0
1.71346e-43 -9.34977e-95 0
6.22867e-45 -3.69824e-93 0
2.2019e-46 -1.41411e-91 0
7.57532e-48 -5.21171e-90 0
2.53811e-49 -1.84465e-88 0
8.28735e-51 -6.24232e-87 0
2.63872e-52 -2.00825e-85 0
8.19796e-54 -6.09762e-84 0
2.48659e-55 -1.73042e-82 0
7.36762e-57 -4.52883e-81 0
2.13356e-58 -1.07228e-79 0
6.04165e-60 -2.23038e-78 0
1.67374e-61 -3.88238e-77 0
4.53851e-63 -5.16124e-76 0
1.23638e-64 -4.21638e-75 0
3.44503e-62 -1.96725e-72 0
0 -4.88739e-156 0
4.55423e-08 -3.61294e-154 0
1.52873e-07 -2.67763e-152 0
1.72538e-07 -1.9362e-150 0
8.39813e-08 -1.38401e-148 0
2.3216e-08 -9.77889e-147 0
4.61661e-09 -6.82899e-145 0
7.27176e-10 -4.71279e-143 0
8.19724e-11 -3.21354e-141 0
8.78339e-12 -2.1647e-139 0
9.58092e-13 -1.43996e-137 0
9.92531e-14 -9.37584e-136 0
9.74754e-15 -6.02373e-134 0
9.06478e-16 -3.81833e-132 0
7.97945e-17 -2.3874e-130 0
6.65108e-18 -1.47201e-128 0
5.25405e-19 -8.94772e-127 0
3.93839e-20 -5.36048e-125 0
2.80544e-21 -3.16411e-123 0
1.9021e-22 -1.83958e-121 0
1.2295e-23 -1.05305e-119 0
7.58923e-25 -5.9332e-118 0
4.48065e-26 -3.28899e-116 0
2.53417e-27 -1.79302e-114 0
1.3751e-28 -9.60853e-113 0
7.16896e-30 -5.05896e-111 0
3.59578e-31 -2.61554e-109 0
1.73742e-32 -1.32708e-107 0
8.09704e-34 -6.60367e-106 0
3.64382e-35 -3.2204e-104 0
1.58516e-36 -1.53787e-102 0
6.67307e-38 -7.18492e-101 0
2.72108e-39 -3.28073e-99 0
1.07578e-40 -1.46237e-97 0
4.12719e-42 -6.35487e-96 0
1.5378e-43 -2.68806e-94 0
5.5693e-45 -1.10476e-92 0
1.96195e-46 -4.40201e-91 0
6.72775e-48 -1.69615e-89 0
2.24722e-49 -6.29979e-88 0
7.31636e-51 -2.2466e-86 0
2.32322e-52 -7.65394e-85 0
7.19922e-54 -2.475e-83 0
2.17835e-55 -7.53016e-82 0
6.4395e-57 -2.12965e-80 0
1.86073e-58 -5.50082e-79 0
5.25816e-60 -1.26278e-77 0
1.45383e-61 -2.46067e-76 0
3.93481e-63 -3.72547e-75 0
1.06996e-64 -3.52327e-74 0
3.00289e-62 -1.7043e-71 0
0 0 0
1.73354e-08 0 0
4.08041e-08 0 0
3.71861e-08 0 0
1.66374e-08 0 0
4.63661e-09 0 0
9.656e-10 0 0
1.63986e-10 0 0
2.26253e-11 0 0
2.76298e-12 0 0
3.13247e-13 0 0
3.32129e-14 0 0
3.30605e-15 0 0
3.09707e-16 0 0
2.7357e-17 0 0
2.28268e-18 0 0
1.80245e-19 0 0
1.34933e-20 0 0
9.59425e-22 0 0
6.49133e-23 0 0
4.18662e-24 0 0
2.57843e-25 0 0
1.51892e-26 0 0
8.57217e-28 0 0
4.6418e-29 0 0
2.41517e-30 0 0
1.20911e-31 0 0
5.83179e-33 0 0
2.71324e-34 0 0
1.21906e-35 0 0
5.29522e-37 0 0
2.22596e-38 0 0
9.06456e-40 0 0
3.57911e-41 0 0
1.37146e-42 0 0
5.10423e-44 0 0
1.84655e-45 0 0
6.49834e-47 0 0
2.22619e-48 0 0
7.42907e-50 0 0
2.41659e-51 0 0
7.66713e-53 0 0
2.37401e-54 0 0
7.17784e-56 0 0
2.12033e-57 0 0
6.12254e-59 0 0
1.729e-60 0 0
4.77748e-62 0 0
1.29225e-63 0 0
3.51182e-65 0 0
9.87959e-63 0 0
0 0 -7.91037e-160
4.20633e-08 0 -5.98044e-158
8.17576e-08 0 -5.04663e-156
6.51811e-08 0 -3.66826e-154
2.7226e-08 0 -2.04683e-152
7.13136e-09 0 -8.28904e-151
1.43952e-09 0 -2.10465e-149
2.46123e-10 0 -1.70949e-149
3.71963e-11 0 -1.02211e-147
5.07479e-12 0 -6.30534e-146
6.32494e-13 0 -3.82764e-144
7.25697e-14 0 -2.287e-142
7.70888e-15 0 -1.34459e-140
7.61708e-16 0 -7.77567e-139
7.02926e-17 0 -4.42112e-137
6.08047e-18 0 -2.4705e-135
4.94668e-19 0 -1.35611e-133
3.79634e-20 0 -7.30887e-132
2.75621e-21 0 -3.86563e-130
1.89793e-22 0 -2.00522e-128
1.24254e-23 0 -1.01956e-126
7.75112e-25 0 -5.07798e-125
4.61669e-26 0 -2.47566e-123
2.63048e-27 0 -1.18054e-121
1.43629e-28 0 -5.50184e-120
7.52773e-30 0 -2.50367e-118
3.79283e-31 0 -1.11138e-116
1.83975e-32 0 -4.80724e-115
8.60253e-34 0 -2.02377e-113
3.88246e-35 0 -8.28103e-112
1.69319e-36 0 -3.28875e-110
7.14334e-38 0 -1.26558e-108
2.91836e-39 0 -4.71036e-107
1.15568e-40 0 -1.69209e-105
4.44016e-42 0 -5.85272e-104
1.65651e-43 0 -1.94389e-102
6.00594e-45 0 -6.17997e-101
2.11785e-46 0 -1.87366e-99
7.26864e-48 0 -5.39363e-98
2.42974e-49 0 -1.46647e-96
7.91596e-51 0 -3.74194e-95
2.51511e-52 0 -8.8906e-94
7.79797e-54 0 -1.94745e-92
2.36062e-55 0 -3.88277e-91
6.98118e-57 0 -6.92746e-90
2.01798e-58 0 -1.08036e-88
5.70435e-60 0 -1.42347e-87
1.57764e-61 0 -1.50282e-86
4.27096e-63 0 -1.16016e-85
1.16162e-64 0 -5.42469e-85
3.22364e-62 0 -2.03322e-82
0.0036 -4.06704e-159 -1.90282e-159
0.00454065 -5.71671e-155 -4.71657e-155
0.00335017 -8.8301e-153 -8.77024e-153
0.00154675 -1.26432e-150 -1.21907e-150
0.00045717 -1.14705e-148 -1.03578e-148
9.13638e-05 -6.61443e-147 -5.81417e-147
1.49484e-05 -2.48455e-145 -2.18763e-145
2.15307e-06 -3.94984e-146 -3.88638e-146
2.81092e-07 -2.14202e-144 -2.14277e-144
3.37086e-08 -1.35013e-142 -1.35019e-142
3.74092e-09 -8.3553e-141 -8.35534e-141
3.86152e-10 -5.08955e-139 -5.08955e-139
3.72225e-11 -3.05169e-137 -3.05169e-137
3.36208e-12 -1.80054e-135 -1.80054e-135
2.8544e-13 -1.04495e-133 -1.04495e-133
2.28441e-14 -5.96261e-132 -5.96261e-132
1.72803e-15 -3.34377e-130 -3.34377e-130
1.23861e-16 -1.842e-128 -1.842e-128
8.43222e-18 -9.96272e-127 -9.96272e-127
5.46421e-19 -5.2877e-125 -5.2877e-125
3.37737e-20 -2.75236e-123 -2.75236e-123
1.99492e-21 -1.40418e-121 -1.40418e-121
1.12808e-22 -7.01658e-120 -7.01658e-120
6.11717e-24 -3.43162e-118 -3.43162e-118
3.18588e-25 -1.64135e-116 -1.64135e-116
1.59592e-26 -7.67107e-115 -7.67107e-115
7.69992e-28 -3.49989e-113 -3.49989e-113
3.58271e-29 -1.55721e-111 -1.55721e-111
1.60956e-30 -6.74895e-110 -6.74895e-110
6.98979e-32 -2.84561e-108 -2.84561e-108
2.93727e-33 -1.1656e-106 -1.1656e-106
1.19558e-34 -4.63099e-105 -4.63099e-105
4.71828e-36 -1.78147e-103 -1.78147e-103
1.80693e-37 -6.62196e-102 -6.62196e-102
6.72083e-39 -2.37302e-100 -2.37302e-100
2.42981e-40 -8.1766e-99 -8.1766e-99
8.54519e-42 -2.70065e-97 -2.70065e-97
2.92538e-43 -8.51974e-96 -8.51974e-96
9.75555e-45 -2.55621e-94 -2.55621e-94
3.17113e-46 -7.25702e-93 -7.25702e-93
1.0054e-47 -1.93736e-91 -1.93736e-91
3.11086e-49 -4.82624e-90 -4.82624e-90
9.39915e-51 -1.11104e-88 -1.11104e-88
2.77457e-52 -2.33404e-87 -2.33404e-87
8.00619e-54 -4.40008e-86 -4.40008e-86
2.25941e-55 -7.27261e-85 -7.27261e-85
6.2389e-57 -1.01879e-83 -1.01879e-83
1.68641e-58 -1.14712e-82 -1.14712e-82
4.46432e-60 -9.4646e-82 -9.4646e-82
1.18727e-61 -4.71484e-81 -4.71484e-81
1.18301e-61 -7.73073e-81 -7.73073e-81
0.01 -3.71343e-158 -4.1466e-160
0.0109146 -3.55289e-154 -6.5235e-155
0.00893224 -4.25967e-152 1.11094e-153
0.00472605 -1.36588e-149 -1.1017e-149
0.00146389 -2.58014e-147 -2.29902e-147
0.000236187 -2.45632e-145 -2.14414e-145
3.29831e-05 -1.81875e-143 -1.59883e-143
4.25311e-06 -5.96029e-145 -5.78502e-145
5.16187e-07 -2.59644e-143 -2.60162e-143
5.89521e-08 -1.68039e-141 -1.68085e-141
6.3293e-09 -1.05224e-139 -1.05227e-139
6.38626e-10 -6.47526e-138 -6.47526e-138
6.05904e-11 -3.92286e-136 -3.92286e-136
5.41186e-12 -2.33934e-134 -2.33934e-134
4.55811e-13 -1.37267e-132 -1.37267e-132
3.62698e-14 -7.92228e-131 -7.92228e-131
2.73217e-15 -4.49532e-129 -4.49532e-129
1.95239e-16 -2.5067e-127 -2.5067e-127
1.3262e-17 -1.37298e-125 -1.37298e-125
8.57995e-19 -7.38289e-124 -7.38289e-124
5.2969e-20 -3.89534e-122 -3.89534e-122
3.12606e-21 -2.01542e-120 -2.01542e-120
1.76666e-22 -1.02189e-118 -1.02189e-118
9.57601e-24 -5.07416e-117 -5.07416e-117
4.98595e-25 -2.46555e-115 -2.46555e-115
2.49725e-26 -1.17138e-113 -1.17138e-113
1.20478e-27 -5.43652e-112 -5.43652e-112
5.60572e-29 -2.4624e-110 -2.4624e-110
2.51854e-30 -1.08726e-108 -1.08726e-108
1.09381e-31 -4.67434e-107 -4.67434e-107
4.59698e-33 -1.95404e-105 -1.95404e-105
1.87141e-34 -7.93079e-104 -7.93079e-104
7.38654e-36 -3.11982e-102 -3.11982e-102
2.82926e-37 -1.18723e-100 -1.18723e-100
1.05252e-38 -4.36085e-99 -4.36085e-99
3.80593e-40 -1.54218e-97 -1.54218e-97
1.33872e-41 -5.23533e-96 -5.23533e-96
4.58388e-43 -1.70016e-94 -1.70016e-94
1.52892e-44 -5.26003e-93 -5.26003e-93
4.97085e-46 -1.54272e-91 -1.54272e-91
1.57629e-47 -4.26349e-90 -4.26349e-90
4.87821e-49 -1.10197e-88 -1.10197e-88
1.47417e-50 -2.63867e-87 -2.63867e-87
4.35245e-52 -5.78177e-86 -5.78177e-86
1.25615e-53 -1.14036e-84 -1.14036e-84
3.54557e-55 -1.97865e-83 -1.97865e-83
9.79205e-57 -2.9205e-82 -2.9205e-82
2.64729e-58 -3.47795e-81 -3.47795e-81
7.00913e-60 -3.0447e-80 -3.0447e-80
1.86435e-61 -1.60735e-79 -1.60735e-79
1.85769e-61 -2.66429e-79 -2.66429e-79
0.0148 -1.67926e-159 -5.15815e-159
0.0167149 -1.2917e-155 6.18785e-155
0.0157448 -1.24195e-153 4.70186e-153
0.0102408 -1.88624e-151 -9.67606e-150
0.00359651 -3.41799e-149 -2.23251e-147
0.000162799 -3.39925e-149 -2.08747e-145
2.12129e-05 0 -1.57724e-143
2.58615e-06 1.31854e-141 1.14111e-141
3.32193e-07 -2.47647e-142 -2.51139e-142
3.96837e-08 -1.81872e-140 -1.8219e-140
4.41811e-09 -1.16586e-138 -1.16606e-138
4.59237e-10 -7.25827e-137 -7.25827e-137
4.46576e-11 -4.44464e-135 -4.44464e-135
4.07203e-12 -2.68002e-133 -2.68002e-133
3.49024e-13 -1.59068e-131 -1.59068e-131
2.8192e-14 -9.28982e-130 -9.28982e-130
2.15136e-15 -5.33625e-128 -5.33625e-128
1.55479e-16 -3.01358e-126 -3.01358e-126
1.06663e-17 -1.67244e-124 -1.67244e-124
6.96144e-19 -9.11644e-123 -9.11644e-123
4.33135e-20 -4.87842e-121 -4.87842e-121
2.57414e-21 -2.56134e-119 -2.56134e-119
1.46392e-22 -1.31864e-117 -1.31864e-117
7.98032e-24 -6.65221e-116 -6.65221e-116
4.17666e-25 -3.28608e-114 -3.28608e-114
2.1018e-26 -1.58826e-112 -1.58826e-112
1.01839e-27 -7.50459e-111 -7.50459e-111
4.75733e-29 -3.46325e-109 -3.46325e-109
2.14522e-30 -1.55935e-107 -1.55935e-107
9.34844e-32 -6.84237e-106 -6.84237e-106
3.94126e-33 -2.92224e-104 -2.92224e-104
1.60917e-34 -1.21296e-102 -1.21296e-102
6.36881e-36 -4.88535e-101 -4.88535e-101
2.44567e-37 -1.90574e-99 -1.90574e-99
9.11995e-39 -7.18513e-98 -7.18513e-98
3.30518e-40 -2.6119e-96 -2.6119e-96
1.16504e-41 -9.1285e-95 -9.1285e-95
3.9971e-43 -3.05719e-93 -3.05719e-93
1.3357e-44 -9.77257e-92 -9.77257e-92
4.35034e-46 -2.96751e-90 -2.96751e-90
1.38183e-47 -8.51031e-89 -8.51031e-89
4.2832e-49 -2.28835e-87 -2.28835e-87
1.29631e-50 -5.71648e-86 -5.71648e-86
3.83281e-52 -1.31086e-84 -1.31086e-84
1.10768e-53 -2.71527e-83 -2.71527e-83
3.13057e-55 -4.96726e-82 -4.96726e-82
8.65659e-57 -7.76346e-81 -7.76346e-81
2.34307e-58 -9.83463e-80 -9.83463e-80
6.21067e-60 -9.19595e-79 -9.19595e-79
1.65379e-61 -5.1835e-78 -5.1835e-78
1.64786e-61 -8.69208e-78 -8.69208e-78
0.018 -5.7605e-161 -1.62565e-157
0.0204189 -1.5859e-157 1.8166e-153
0.0209292 -4.21501e-155 -9.01433e-152
0.0163913 -1.12613e-153 8.67342e-151
0.00672822 -4.52144e-151 6.81258e-148
0 -4.5106e-151 6.80299e-148
0 0 0
0 0 1.14165e-141
3.07595e-08 -9.745e-140 -8.44864e-140
6.79421e-09 -1.54804e-139 -1.56938e-139
1.02354e-09 -1.11127e-137 -1.11273e-137
1.28181e-10 -7.05875e-136 -7.05875e-136
1.41597e-11 -4.37049e-134 -4.37049e-134
1.41697e-12 -2.66557e-132 -2.66557e-132
1.30378e-13 -1.60089e-130 -1.60089e-130
1.11366e-14 -9.46432e-129 -9.46432e-129
8.89159e-16 -5.50567e-127 -5.50567e-127
6.6705e-17 -3.15026e-125 -3.15026e-125
4.72204e-18 -1.7722e-123 -1.7722e-123
3.1654e-19 -9.79734e-122 -9.79734e-122
2.01547e-20 -5.32006e-120 -5.32006e-120
1.22215e-21 -2.83601e-118 -2.83601e-118
7.07458e-23 -1.48331e-116 -1.48331e-116
3.91763e-24 -7.60714e-115 -7.60714e-115
2.07934e-25 -3.82278e-113 -3.82278e-113
1.05966e-26 -1.881e-111 -1.881e-111
5.19323e-28 -9.05525e-110 -9.05525e-110
2.45123e-29 -4.26117e-108 -4.26117e-108
1.11582e-30 -1.95817e-106 -1.95817e-106
4.90482e-32 -8.77801e-105 -8.77801e-105
2.08438e-33 -3.83389e-103 -3.83389e-103
8.57309e-35 -1.62927e-101 -1.62927e-101
3.41624e-36 -6.72659e-100 -6.72659e-100
1.32018e-37 -2.69332e-98 -2.69332e-98
4.95201e-39 -1.04377e-96 -1.04377e-96
1.80455e-40 -3.90621e-95 -3.90621e-95
6.39358e-42 -1.4079e-93 -1.4079e-93
2.20415e-43 -4.87171e-92 -4.87171e-92
7.39895e-45 -1.61233e-90 -1.61233e-90
2.42009e-46 -5.08067e-89 -5.08067e-89
7.71806e-48 -1.51587e-87 -1.51587e-87
2.40142e-49 -4.25266e-86 -4.25266e-86
7.29402e-51 -1.11191e-84 -1.11191e-84
2.16396e-52 -2.67826e-83 -2.67826e-83
6.27405e-54 -5.85085e-82 -5.85085e-82
1.77863e-55 -1.134e-80 -1.134e-80
4.93257e-57 -1.88741e-79 -1.88741e-79
1.3388e-58 -2.56035e-78 -2.56035e-78
3.55809e-60 -2.57738e-77 -2.57738e-77
9.49909e-62 -1.56539e-76 -1.56539e-76
9.46459e-62 -2.65761e-76 -2.65761e-76
0.0196 -9.57363e-162 -1.60756e-156
0.0221319 -6.5893e-158 1.66002e-152
0.0232782 -6.75584e-156 -1.32921e-150
0.0202189 -3.40311e-154 1.17175e-148
0.009372 -6.03957e-152 -8.96831e-147
0.000945361 -6.00621e-152 3.12586e-144
0 0 3.13495e-144
0 0 0
0 0 -8.42593e-140
5.71718e-10 6.9512e-138 5.85388e-138
1.38482e-10 -8.26555e-137 -8.36952e-137
2.21472e-11 -5.79609e-135 -5.79612e-135
2.88105e-12 -3.62985e-133 -3.62985e-133
3.25438e-13 -2.24002e-131 -2.24002e-131
3.29203e-14 -1.36178e-129 -1.36178e-129
3.03601e-15 -8.15275e-128 -8.15275e-128
2.58287e-16 -4.80499e-126 -4.80499e-126
2.04423e-17 -2.7868e-124 -2.7868e-124
1.5149e-18 -1.5899e-122 -1.5899e-122
1.05654e-19 -8.9186e-121 -8.9186e-121
6.96411e-21 -4.91684e-119 -4.91684e-119
4.35375e-22 -2.66269e-117 -2.66269e-117
2.58942e-23 -1.4157e-115 -1.4157e-115
1.46905e-24 -7.38555e-114 -7.38555e-114
7.96873e-26 -3.7782e-112 -3.7782e-112
4.14161e-27 -1.89399e-110 -1.89399e-110
2.06631e-28 -9.29688e-109 -9.29688e-109
9.91322e-30 -4.46484e-107 -4.46484e-107
4.58038e-31 -2.09598e-105 -2.09598e-105
2.04117e-32 -9.6083e-104 -9.6083e-104
8.78453e-34 -4.29628e-102 -4.29628e-102
3.65553e-35 -1.87145e-100 -1.87145e-100
1.47254e-36 -7.9302e-99 -7.9302e-99
5.7481e-38 -3.26367e-97 -3.26367e-97
2.17647e-39 -1.30207e-95 -1.30207e-95
8.00109e-41 -5.02505e-94 -5.02505e-94
2.8582e-42 -1.87124e-92 -1.87124e-92
9.9297e-44 -6.70376e-91 -6.70376e-91
3.35747e-45 -2.30234e-89 -2.30234e-89
1.1057e-46 -7.54788e-88 -7.54788e-88
3.54902e-48 -2.34961e-86 -2.34961e-86
1.11099e-49 -6.89952e-85 -6.89952e-85
3.39396e-51 -1.89507e-83 -1.89507e-83
1.01241e-52 -4.815e-82 -4.815e-82
2.95054e-54 -1.11477e-80 -1.11477e-80
8.40567e-56 -2.30216e-79 -2.30216e-79
2.34202e-57 -4.10776e-78 -4.10776e-78
6.3851e-59 -6.01499e-77 -6.01499e-77
1.70417e-60 -6.58159e-76 -6.58159e-76
4.56854e-62 -4.35666e-75 -4.35666e-75
4.55167e-62 -7.49471e-75 -7.49471e-75
0.0196 -2.93736e-160 -1.49715e-156
0.0221295 -4.13681e-156 1.53713e-152
0.0232705 -2.98818e-154 -1.23442e-150
0.0201972 -3.77865e-152 1.09898e-148
0.00949475 -4.11038e-150 -8.48846e-147
0.00188874 -1.46652e-148 -7.28451e-146
0.000107156 -1.42579e-148 -3.07336e-142
0 0 -3.07272e-142
0 0 0
0 0 5.99415e-138
1.05933e-11 -5.8383e-136 -5.78736e-136
5.3823e-12 -3.86306e-134 -3.86315e-134
1.07873e-12 -2.44813e-132 -2.44813e-132
1.53974e-13 -1.52913e-130 -1.52913e-130
1.80338e-14 -9.4131e-129 -9.4131e-129
1.83773e-15 -5.70903e-127 -5.70903e-127
1.68006e-16 -3.41029e-125 -3.41029e-125
1.40352e-17 -2.0057e-123 -2.0057e-123
1.08457e-18 -1.16098e-121 -1.16098e-121
7.8202e-20 -6.61145e-120 -6.61145e-120
5.29581e-21 -3.70248e-118 -3.70248e-118
3.38549e-22 -2.03806e-116 -2.03806e-116
2.05156e-23 -1.10218e-114 -1.10218e-114
1.18254e-24 -5.85289e-113 -5.85289e-113
6.50261e-26 -3.05013e-111 -3.05013e-111
3.41979e-27 -1.55892e-109 -1.55892e-109
1.72391e-28 -7.80882e-108 -7.80882e-108
8.34613e-30 -3.83069e-106 -3.83069e-106
3.88758e-31 -1.83881e-104 -1.83881e-104
1.74497e-32 -8.629e-103 -8.629e-103
7.55853e-34 -3.9546e-101 -3.9546e-101
3.16378e-35 -1.7679e-99 -1.7679e-99
1.28121e-36 -7.69943e-98 -7.69943e-98
5.02542e-38 -3.2618e-96 -3.2618e-96
1.91123e-39 -1.34188e-94 -1.34188e-94
7.05448e-41 -5.35011e-93 -5.35011e-93
2.52944e-42 -2.06255e-91 -2.06255e-91
8.81777e-44 -7.66736e-90 -7.66736e-90
2.991e-45 -2.73948e-88 -2.73948e-88
9.87924e-47 -9.37002e-87 -9.37002e-87
3.17972e-48 -3.05305e-85 -3.05305e-85
9.97936e-50 -9.41816e-84 -9.41816e-84
3.05592e-51 -2.72891e-82 -2.72891e-82
9.13624e-53 -7.34934e-81 -7.34934e-81
2.66826e-54 -1.8135e-79 -1.8135e-79
7.61661e-56 -4.01723e-78 -4.01723e-78
2.12614e-57 -7.74615e-77 -7.74615e-77
5.80679e-59 -1.23631e-75 -1.23631e-75
1.5524e-60 -1.4881e-74 -1.4881e-74
4.16842e-62 -1.08944e-73 -1.08944e-73
4.15304e-62 -1.90082e-73 -1.90082e-73
0.018 -1.02229e-158 3.66009e-157
0.0203928 -2.22949e-154 -5.73047e-153
0.0208599 -2.17184e-152 7.63949e-151
0.0163027 -2.71107e-150 -1.03266e-148
0.00688655 -2.23316e-148 2.26048e-146
0.00147252 -1.06715e-146 5.47277e-145
0.000183761 -3.21455e-145 2.76233e-144
7.60892e-06 -3.11004e-145 2.28959e-140
0 0 2.28937e-140
0 0 0
0 -2.97797e-135 -2.96914e-135
3.48678e-11 -1.96549e-133 -1.9654e-133
5.99502e-12 -1.26027e-131 -1.26027e-131
7.3392e-13 -7.96984e-130 -7.96984e-130
7.58601e-14 -4.96945e-128 -4.96945e-128
6.98902e-15 -3.05434e-126 -3.05434e-126
5.88413e-16 -1.84988e-124 -1.84988e-124
4.59093e-17 -1.1037e-122 -1.1037e-122
3.34951e-18 -6.48473e-121 -6.48473e-121
2.29977e-19 -3.75064e-119 -3.75064e-119
1.49311e-20 -2.13465e-117 -2.13465e-117
9.20164e-22 -1.19501e-115 -1.19501e-115
5.39969e-23 -6.57731e-114 -6.57731e-114
3.02529e-24 -3.55752e-112 -3.55752e-112
1.62206e-25 -1.88991e-110 -1.88991e-110
8.33979e-27 -9.85558e-109 -9.85558e-109
4.11935e-28 -5.04199e-107 -5.04199e-107
1.95796e-29 -2.52874e-105 -2.52874e-105
8.96874e-31 -1.24241e-103 -1.24241e-103
3.96469e-32 -5.97473e-102 -5.97473e-102
1.69351e-33 -2.80974e-100 -2.80974e-100
6.99799e-35 -1.29078e-98 -1.29078e-98
2.80054e-36 -5.78585e-97 -5.78585e-97
1.0865e-37 -2.52714e-95 -2.52714e-95
4.09031e-39 -1.07391e-93 -1.07391e-93
1.49556e-40 -4.43214e-92 -4.43214e-92
5.31537e-42 -1.77277e-90 -1.77277e-90
1.83777e-43 -6.85511e-89 -6.85511e-89
6.18588e-45 -2.55511e-87 -2.55511e-87
2.02846e-46 -9.14672e-86 -9.14672e-86
6.48454e-48 -3.13068e-84 -3.13068e-84
2.02215e-49 -1.01877e-82 -1.01877e-82
6.15503e-51 -3.12893e-81 -3.12893e-81
1.82969e-52 -8.98213e-80 -8.98213e-80
5.31492e-54 -2.37801e-78 -2.37801e-78
1.50942e-55 -5.69559e-77 -5.69559e-77
4.19308e-57 -1.1984e-75 -1.1984e-75
1.13992e-58 -2.11e-74 -2.11e-74
3.03418e-60 -2.83672e-73 -2.83672e-73
8.11249e-62 -2.34192e-72 -2.34192e-72
8.08312e-62 -4.14852e-72 -4.14852e-72
0.0148 -5.09273e-157 4.40186e-157
0.0165075 -1.22393e-152 -7.27143e-153
0.0153944 -1.22088e-150 7.40081e-151
0.00998087 -1.12659e-148 -3.6943e-148
0.00358311 -8.12633e-147 -2.93622e-146
0.000743957 -4.7008e-145 -8.28722e-145
0.000111118 -2.28434e-143 -2.59323e-143
1.22267e-05 -8.19732e-142 -8.34046e-142
4.41939e-07 -7.97351e-142 -1.65324e-138
4.09689e-08 0 -1.15496e-136
3.99552e-09 -1.02145e-134 -1.03283e-134
4.05831e-10 -6.81938e-133 -6.81938e-133
3.87494e-11 -4.42583e-131 -4.42583e-131
3.48261e-12 -2.83421e-129 -2.83421e-129
2.95106e-13 -1.79039e-127 -1.79039e-127
2.36208e-14 -1.11541e-125 -1.11541e-125
1.78947e-15 -6.85129e-124 -6.85129e-124
1.28572e-16 -4.14798e-122 -4.14798e-122
8.77897e-18 -2.47454e-120 -2.47454e-120
5.7078e-19 -1.45414e-118 -1.45414e-118
3.54034e-20 -8.41435e-117 -8.41435e-117
2.09872e-21 -4.79268e-115 -4.79268e-115
1.19108e-22 -2.68601e-113 -2.68601e-113
6.48198e-24 -1.48055e-111 -1.48055e-111
3.38777e-25 -8.02272e-110 -8.02272e-110
1.70288e-26 -4.27159e-108 -4.27159e-108
8.24336e-28 -2.23351e-106 -2.23351e-106