# vtk DataFile Version 2.0
Tobias Weinzierl: CPU, Manycore and Cluster Computing
ASCII

DATASET STRUCTURED_POINTS
DIMENSIONS  51 11 6

ORIGIN 0 0 0 

SPACING 0.1 0.1 0.1 

POINT_DATA 3366

VECTORS velocity float
0 0 0
1.43767e-09 0 0
4.53086e-09 0 0
9.44433e-09 0 0
1.41763e-08 0 0
1.1078e-08 0 0
5.12055e-09 0 0
1.67202e-09 0 0
4.35936e-10 0 0
9.71998e-11 0 0
1.92794e-11 0 0
3.48643e-12 0 0
5.84331e-13 0 0
9.18101e-14 0 0
1.36325e-14 0 0
1.92387e-15 0 0
2.59064e-16 0 0
3.33777e-17 0 0
4.12241e-18 0 0
4.88749e-19 0 0
5.56827e-20 0 0
6.10147e-21 0 0
6.4354e-22 0 0
6.53851e-23 0 0
6.4044e-24 0 0
6.05221e-25 0 0
5.52243e-26 0 0
4.86941e-27 0 0
4.15242e-28 0 0
3.42732e-29 0 0
2.7402e-30 0 0
2.12383e-31 0 0
1.597e-32 0 0
1.16588e-33 0 0
8.26965e-35 0 0
5.70303e-36 0 0
3.82652e-37 0 0
2.49958e-38 0 0
1.59062e-39 0 0
9.86663e-41 0 0
5.96933e-42 0 0
3.52437e-43 0 0
2.03175e-44 0 0
1.14425e-45 0 0
6.29865e-47 0 0
3.39048e-48 0 0
1.78551e-49 0 0
9.20337e-51 0 0
4.64568e-52 0 0
2.40796e-53 0 0
1.33617e-50 0 0
0 -2.12562e-133 0
3.33512e-09 -8.19756e-132 0
1.29557e-08 -4.01888e-130 0
2.99139e-08 -1.91086e-128 0
5.51259e-08 -8.26785e-127 0
4.61422e-08 -2.98172e-125 0
2.12754e-08 -6.40823e-124 0
6.74496e-09 -6.5349e-124 0
1.70766e-09 -2.16304e-122 0
3.71884e-10 -7.24188e-121 0
7.24332e-11 -2.37848e-119 0
1.29153e-11 -7.6883e-118 0
2.14092e-12 -2.44636e-116 0
3.3349e-13 -7.66012e-115 0
4.91861e-14 -2.35944e-113 0
6.90536e-15 -7.14593e-112 0
9.26203e-16 -2.12713e-110 0
1.18984e-16 -6.22025e-109 0
1.46645e-17 -1.786e-107 0
1.73609e-18 -5.03249e-106 0
1.97602e-19 -1.39078e-104 0
2.16401e-20 -3.76733e-103 0
2.28181e-21 -9.99582e-102 0
2.31822e-22 -2.59594e-100 0
2.27088e-23 -6.5935e-99 0
2.14645e-24 -1.63647e-97 0
1.95912e-25 -3.96512e-96 0
1.72804e-26 -9.36936e-95 0
1.47416e-27 -2.1566e-93 0
1.21722e-28 -4.82926e-92 0
9.73589e-30 -1.05058e-90 0
7.54909e-31 -2.21677e-89 0
5.67881e-32 -4.52882e-88 0
4.1475e-33 -8.94002e-87 0
2.94302e-34 -1.70129e-85 0
2.0304e-35 -3.11281e-84 0
1.36284e-36 -5.45914e-83 0
8.90573e-38 -9.14389e-82 0
5.66925e-39 -1.45655e-80 0
3.51785e-40 -2.19532e-79 0
2.12902e-41 -3.11152e-78 0
1.25741e-42 -4.11576e-77 0
7.25104e-44 -5.03257e-76 0
4.08489e-45 -5.6193e-75 0
2.24923e-46 -5.63801e-74 0
1.21107e-47 -4.97247e-73 0
6.37951e-49 -3.73608e-72 0
3.28916e-50 -2.28094e-71 0
1.66072e-51 -1.04725e-70 0
8.61006e-53 -3.13766e-70 0
4.77504e-50 -2.10268e-67 0
0 -1.12552e-132 0
1.72196e-09 -4.29955e-131 0
1.55685e-08 -2.58571e-129 0
3.39442e-08 -1.63266e-127 0
9.288e-08 -1.00175e-125 0
8.12125e-08 -5.93863e-124 0
3.69469e-08 -2.44068e-122 0
1.1249e-08 -4.21083e-123 0
2.76941e-09 -1.42247e-121 0
5.91585e-10 -4.88829e-120 0
1.13699e-10 -1.6239e-118 0
2.00861e-11 -5.30067e-117 0
3.30829e-12 -1.7034e-115 0
5.13117e-13 -5.3885e-114 0
7.5476e-14 -1.67736e-112 0
1.05812e-14 -5.13591e-111 0
1.4186e-15 -1.54617e-109 0
1.82296e-16 -4.57457e-108 0
2.24872e-17 -1.32949e-106 0
2.66556e-18 -3.79348e-105 0
3.03861e-19 -1.06211e-103 0
3.33337e-20 -2.91617e-102 0
3.52115e-21 -7.84683e-101 0
3.58389e-22 -2.06779e-99 0
3.51713e-23 -5.33236e-98 0
3.33038e-24 -1.34454e-96 0
3.04503e-25 -3.31185e-95 0
2.6904e-26 -7.9612e-94 0
2.29882e-27 -1.8656e-92 0
1.90109e-28 -4.25657e-91 0
1.5228e-29 -9.443e-90 0
1.18242e-30 -2.03378e-88 0
8.90656e-32 -4.2452e-87 0
6.51308e-33 -8.57119e-86 0
4.62716e-34 -1.67019e-84 0
3.19594e-35 -3.133e-83 0
2.1475e-36 -5.64066e-82 0
1.40477e-37 -9.71315e-81 0
8.95131e-39 -1.59315e-79 0
5.55961e-40 -2.4767e-78 0
3.3677e-41 -3.62738e-77 0
1.99066e-42 -4.96811e-76 0
1.14888e-43 -6.30385e-75 0
6.47726e-45 -7.32166e-74 0
3.56916e-46 -7.66089e-73 0
1.92313e-47 -7.06529e-72 0
1.01373e-48 -5.5663e-71 0
5.22999e-50 -3.57186e-70 0
2.6423e-51 -1.72524e-69 0
1.37077e-52 -5.41136e-69 0
7.5859e-50 -3.74091e-66 0
0 -8.616e-134 0
-4.37284e-09 -3.3245e-132 0
1.35927e-08 -1.55214e-130 0
1.52611e-08 -7.00202e-129 0
9.40935e-08 -2.27272e-127 0
4.61482e-08 -2.20422e-127 0
2.07921e-08 0 0
6.17611e-09 9.3806e-121 0
1.76493e-09 -7.28231e-121 0
4.12258e-10 -2.8422e-119 0
8.42063e-11 -9.6666e-118 0
1.55566e-11 -3.19152e-116 0
2.65266e-12 -1.03637e-114 0
4.23081e-13 -3.31399e-113 0
6.36895e-14 -1.04316e-111 0
9.10543e-15 -3.23108e-110 0
1.24148e-15 -9.8439e-109 0
1.61887e-16 -2.94865e-107 0
2.02274e-17 -8.6799e-106 0
2.42499e-18 -2.50974e-104 0
2.79229e-19 -7.12417e-103 0
3.09073e-20 -1.9842e-101 0
3.29116e-21 -5.41891e-100 0
3.37412e-22 -1.4502e-98 0
3.33298e-23 -3.80027e-97 0
3.17479e-24 -9.74383e-96 0
2.91851e-25 -2.4423e-94 0
2.5914e-26 -5.97868e-93 0
2.22431e-27 -1.42789e-91 0
1.84718e-28 -3.32322e-90 0
1.48535e-29 -7.52719e-89 0
1.15748e-30 -1.65685e-87 0
8.74779e-32 -3.53828e-86 0
6.41686e-33 -7.3173e-85 0
4.57203e-34 -1.46228e-83 0
3.16644e-35 -2.81682e-82 0
2.13311e-36 -5.21548e-81 0
1.3987e-37 -9.25074e-80 0
8.93275e-39 -1.56557e-78 0
5.5599e-40 -2.51594e-77 0
3.37466e-41 -3.81701e-76 0
1.99858e-42 -5.42753e-75 0
1.15553e-43 -7.1675e-74 0
6.52595e-45 -8.68744e-73 0
3.60185e-46 -9.51387e-72 0
1.94376e-47 -9.21234e-71 0
1.02612e-48 -7.64499e-70 0
5.3014e-50 -5.18286e-69 0
2.68199e-51 -2.64881e-68 0
1.39324e-52 -8.75015e-68 0
7.66746e-50 -6.24969e-65 0
0 -4.30186e-135 0
-1.11025e-08 -1.67658e-133 0
9.92362e-09 -6.38899e-132 0
2.77418e-10 -2.2836e-130 0
6.6744e-08 -5.17914e-129 0
0 -4.957e-129 0
0 0 0
0 0 0
2.6724e-10 -3.84388e-119 0
1.09816e-10 -1.30116e-118 0
2.90956e-11 -4.96338e-117 0
6.30093e-12 -1.67207e-115 0
1.19995e-12 -5.48811e-114 0
2.07902e-13 -1.77441e-112 0
3.33978e-14 -5.64954e-111 0
5.03229e-15 -1.7707e-109 0
7.16523e-16 -5.46113e-108 0
9.68855e-17 -1.65672e-106 0
1.24832e-17 -4.94146e-105 0
1.53634e-18 -1.44844e-103 0
1.80947e-19 -4.17025e-102 0
2.04253e-20 -1.17872e-100 0
2.2126e-21 -3.26884e-99 0
2.30288e-22 -8.88863e-98 0
2.30545e-23 -2.3683e-96 0
2.22239e-24 -6.1784e-95 0
2.065e-25 -1.57687e-93 0
1.85135e-26 -3.93373e-92 0
1.60309e-27 -9.5823e-91 0
1.34196e-28 -2.27673e-89 0
1.08702e-29 -5.26981e-88 0
8.52779e-31 -1.18664e-86 0
6.48505e-32 -2.59538e-85 0
4.78441e-33 -5.50392e-84 0
3.4271e-34 -1.1294e-82 0
2.3853e-35 -2.23723e-81 0
1.61433e-36 -4.26646e-80 0
1.06312e-37 -7.80773e-79 0
6.81725e-39 -1.3659e-77 0
4.25941e-40 -2.27378e-76 0
2.59461e-41 -3.58152e-75 0
1.54183e-42 -5.30072e-74 0
8.94317e-44 -7.3063e-73 0
5.06607e-45 -9.27158e-72 0
2.80416e-46 -1.06664e-70 0
1.51742e-47 -1.089e-69 0
8.03141e-49 -9.56579e-69 0
4.15966e-50 -6.89008e-68 0
2.10936e-51 -3.75016e-67 0
1.09834e-52 -1.3139e-66 0
5.98405e-50 -9.71022e-64 0
0 -8.98689e-136 0
-1.19339e-08 -3.5086e-134 0
2.78739e-09 -1.09478e-132 0
3.68956e-09 -3.15675e-131 0
3.84074e-08 -6.41785e-130 0
2.84167e-08 -6.11277e-130 0
0 0 0
0 0 0
0 0 0
1.44586e-11 1.39947e-117 0
6.17314e-12 -1.99424e-116 0
1.71663e-12 -7.4305e-115 0
3.88173e-13 -2.46584e-113 0
7.65044e-14 -8.06278e-112 0
1.35922e-14 -2.59721e-110 0
2.22009e-15 -8.23917e-109 0
3.37579e-16 -2.57311e-107 0
4.81916e-17 -7.90797e-106 0
6.49719e-18 -2.3907e-104 0
8.30822e-19 -7.10643e-103 0
1.01097e-19 -2.07605e-101 0
1.17365e-20 -5.95751e-100 0
1.30271e-21 -1.6784e-98 0
1.38504e-22 -4.63955e-97 0
1.41285e-23 -1.25754e-95 0
1.38481e-24 -3.33992e-94 0
1.30601e-25 -8.68519e-93 0
1.18663e-26 -2.20947e-91 0
1.03997e-27 -5.49356e-90 0
8.80153e-29 -1.33361e-88 0
7.20095e-30 -3.15726e-87 0
5.7011e-31 -7.28001e-86 0
4.37203e-32 -1.63251e-84 0
3.25059e-33 -3.55431e-83 0
2.34517e-34 -7.49888e-82 0
1.64316e-35 -1.52974e-80 0
1.11897e-36 -3.00948e-79 0
7.41171e-38 -5.69241e-78 0
4.77849e-39 -1.03145e-76 0
3.00075e-40 -1.78256e-75 0
1.83662e-41 -2.92241e-74 0
1.0963e-42 -4.51461e-73 0
6.38582e-44 -6.5158e-72 0
3.63185e-45 -8.68837e-71 0
2.01789e-46 -1.05444e-69 0
1.09586e-47 -1.1406e-68 0
5.81984e-49 -1.06651e-67 0
3.02397e-50 -8.21595e-67 0
1.53816e-51 -4.79958e-66 0
8.03361e-53 -1.7989e-65 0
4.32762e-50 -1.3779e-62 0
0 -1.85117e-134 0
-7.75294e-09 -7.14539e-133 0
-1.24373e-09 -2.43578e-131 0
1.50269e-08 -7.92009e-130 0
2.74718e-08 -2.22906e-128 0
1.01533e-07 -4.46859e-127 0
7.1082e-08 -4.25337e-127 0
0 0 0
0 0 0
0 0 0
7.38533e-13 -7.50835e-116 0
6.72182e-13 -2.69875e-114 0
2.20463e-13 -9.06076e-113 0
5.16133e-14 -2.99665e-111 0
1.00407e-14 -9.76765e-110 0
1.72624e-15 -3.13682e-108 0
2.70602e-16 -9.92176e-107 0
3.93712e-17 -3.08982e-105 0
5.37494e-18 -9.47019e-104 0
6.93398e-19 -2.85554e-102 0
8.4937e-20 -8.46705e-101 0
9.91337e-21 -2.46768e-99 0
1.10536e-21 -7.06539e-98 0
1.17995e-22 -1.98627e-96 0
1.20806e-23 -5.47945e-95 0
1.1881e-24 -1.48235e-93 0
1.12404e-25 -3.92978e-92 0
1.02434e-26 -1.02012e-90 0
9.00263e-28 -2.59077e-89 0
7.63933e-29 -6.431e-88 0
6.26576e-30 -1.5586e-86 0
4.97245e-31 -3.68363e-85 0
3.8218e-32 -8.47828e-84 0
2.84752e-33 -1.89738e-82 0
2.0585e-34 -4.12137e-81 0
1.44505e-35 -8.67099e-80 0
9.85834e-37 -1.76273e-78 0
6.54105e-38 -3.45265e-77 0
4.224e-39 -6.49359e-76 0
2.65665e-40 -1.16784e-74 0
1.6284e-41 -1.99818e-73 0
9.73369e-43 -3.232e-72 0
5.67731e-44 -4.90169e-71 0
3.23299e-45 -6.89623e-70 0
1.79846e-46 -8.87123e-69 0
9.77818e-48 -1.02241e-67 0
5.1987e-49 -1.02439e-66 0
2.70408e-50 -8.50712e-66 0
1.37683e-51 -5.38465e-65 0
7.19832e-53 -2.18252e-64 0
3.88069e-50 -1.7358e-61 0
0 -4.08674e-133 0
-3.74912e-09 -1.56295e-131 0
1.99095e-09 -5.77256e-130 0
2.07179e-08 -2.04078e-128 0
3.93145e-08 -6.58556e-127 0
1.644e-07 -1.78429e-125 0
1.80028e-07 -3.2873e-124 0
3.49244e-08 -3.11526e-124 0
0 0 0
0 0 0
0 -2.14143e-115 0
2.87188e-12 -7.58198e-114 0
7.89814e-13 -2.57173e-112 0
1.55603e-13 -8.60284e-111 0
2.62017e-14 -2.83746e-109 0
3.99544e-15 -9.22491e-108 0
5.66596e-16 -2.95533e-106 0
7.57916e-17 -9.3265e-105 0
9.64138e-18 -2.89834e-103 0
1.172e-18 -8.86617e-102 0
1.36543e-19 -2.66874e-100 0
1.52753e-20 -7.90085e-99 0
1.64309e-21 -2.29952e-97 0
1.70109e-22 -6.57631e-96 0
1.69653e-23 -1.84702e-94 0
1.63126e-24 -5.09152e-93 0
1.51341e-25 -1.37667e-91 0
1.35585e-26 -3.64847e-90 0
1.17392e-27 -9.46991e-89 0
9.83096e-29 -2.40523e-87 0
7.96948e-30 -5.972e-86 0
6.25879e-31 -1.44795e-84 0
4.76563e-32 -3.4239e-83 0
3.52092e-33 -7.88503e-82 0
2.52594e-34 -1.76559e-80 0
1.76091e-35 -3.8367e-79 0
1.19374e-36 -8.07314e-78 0
7.87468e-38 -1.64059e-76 0
5.05819e-39 -3.20965e-75 0
3.1657e-40 -6.02213e-74 0
1.93163e-41 -1.0785e-72 0
1.14977e-42 -1.83261e-71 0
6.67996e-44 -2.93206e-70 0
3.7901e-45 -4.37249e-69 0
2.10119e-46 -5.99443e-68 0
1.13877e-47 -7.40854e-67 0
6.03636e-49 -8.01637e-66 0
3.13096e-50 -7.24525e-65 0
1.58998e-51 -5.02743e-64 0
8.29104e-53 -2.2346e-63 0
4.53782e-50 -1.849e-60 0
0 -7.01143e-132 0
-5.20228e-10 -2.65777e-130 0
6.51875e-09 -1.04587e-128 0
2.32704e-08 -3.93025e-127 0
6.255e-08 -1.3963e-125 0
1.66297e-07 -4.51939e-124 0
1.7747e-07 -1.24508e-122 0
6.23024e-08 -2.4647e-121 0
4.85323e-09 -2.34458e-121 0
7.56496e-10 0 0
1.23417e-10 -4.15491e-115 0
2.12526e-11 -1.4854e-113 0
3.3413e-12 -5.09203e-112 0
4.89943e-13 -1.72227e-110 0
6.79317e-14 -5.74612e-109 0
8.98889e-15 -1.8906e-107 0
1.14213e-15 -6.13272e-106 0
1.39892e-16 -1.96069e-104 0
1.65547e-17 -6.1763e-103 0
1.89494e-18 -1.91632e-101 0
2.0989e-19 -5.85425e-100 0
2.24973e-20 -1.76024e-98 0
2.33324e-21 -5.20702e-97 0
2.34114e-22 -1.51471e-95 0
2.27259e-23 -4.33098e-94 0
2.13441e-24 -1.21654e-92 0
1.93993e-25 -3.35505e-91 0
1.70682e-26 -9.07885e-90 0
1.45434e-27 -2.40889e-88 0
1.20069e-28 -6.26211e-87 0
9.61003e-30 -1.59354e-85 0
7.46105e-31 -3.96568e-84 0
5.62242e-32 -9.64062e-83 0
4.11496e-33 -2.28651e-81 0
2.92685e-34 -5.28312e-80 0
2.02442e-35 -1.18719e-78 0
1.36249e-36 -2.58936e-77 0
8.92825e-38 -5.46873e-76 0
5.69973e-39 -1.11522e-74 0
3.54691e-40 -2.18832e-73 0
2.15278e-41 -4.11395e-72 0
1.27508e-42 -7.36949e-71 0
7.37385e-44 -1.24905e-69 0
4.16574e-45 -1.98431e-68 0
2.30009e-46 -2.91691e-67 0
1.24182e-47 -3.89488e-66 0
6.55898e-49 -4.59367e-65 0
3.39053e-50 -4.57131e-64 0
1.71628e-51 -3.52917e-63 0
8.92141e-53 -1.75225e-62 0
4.95309e-50 -1.51175e-59 0
0 -6.99235e-131 0
1.19553e-09 -2.62852e-129 0
6.77206e-09 -1.0714e-127 0
2.02578e-08 -4.21585e-126 0
5.47498e-08 -1.64086e-124 0
1.00903e-07 -6.31686e-123 0
8.83833e-08 -2.40538e-121 0
3.55063e-08 -9.06036e-120 0
6.80957e-09 -3.37594e-118 0
1.12741e-09 -1.24423e-116 0
1.86011e-10 -4.53213e-115 0
2.84122e-11 -1.58968e-113 0
4.07793e-12 -5.50098e-112 0
5.55913e-13 -1.87898e-110 0
7.25578e-14 -6.33377e-109 0
9.12077e-15 -2.10647e-107 0
1.10875e-15 -6.91028e-106 0
1.30683e-16 -2.23547e-104 0
1.49548e-17 -7.12942e-103 0
1.66235e-18 -2.24091e-101 0
1.7947e-19 -6.93975e-100 0
1.88104e-20 -2.11673e-98 0
1.91296e-21 -6.35675e-97 0
1.88669e-22 -1.87881e-95 0
1.80393e-23 -5.46292e-94 0
1.67176e-24 -1.56194e-92 0
1.50156e-25 -4.38923e-91 0
1.30728e-26 -1.21159e-89 0
1.10346e-27 -3.28328e-88 0
9.03342e-29 -8.72876e-87 0
7.1752e-30 -2.27493e-85 0
5.53236e-31 -5.80748e-84 0
4.14292e-32 -1.45078e-82 0
3.01481e-33 -3.54269e-81 0
2.13311e-34 -8.44584e-80 0
1.46831e-35 -1.96289e-78 0
9.83821e-37 -4.43962e-77 0
6.42034e-38 -9.75224e-76 0
4.08306e-39 -2.07539e-74 0
2.53185e-40 -4.26593e-73 0
1.53161e-41 -8.43735e-72 0
9.04356e-43 -1.59803e-70 0
5.21478e-44 -2.88022e-69 0
2.93799e-45 -4.89857e-68 0
1.61805e-46 -7.77032e-67 0
8.71482e-48 -1.13021e-65 0
4.59247e-49 -1.46855e-64 0
2.36888e-50 -1.63193e-63 0
1.19668e-51 -1.42851e-62 0
6.20796e-53 -8.12519e-62 0
3.4753e-50 -7.32622e-59 0
0 0 0
6.90906e-10 0 0
2.80084e-09 0 0
7.87694e-09 0 0
1.7869e-08 0 0
2.58901e-08 0 0
1.98591e-08 0 0
8.1283e-09 0 0
1.95634e-09 0 0
3.70914e-10 0 0
6.25941e-11 0 0
9.67441e-12 0 0
1.39517e-12 0 0
1.90207e-13 0 0
2.47486e-14 0 0
3.09464e-15 0 0
3.73688e-16 0 0
4.3714e-17 0 0
4.96287e-18 0 0
5.47263e-19 0 0
5.86225e-20 0 0
6.09846e-21 0 0
6.15848e-22 0 0
6.03435e-23 0 0
5.73502e-24 0 0
5.28556e-25 0 0
4.72352e-26 0 0
4.09346e-27 0 0
3.44071e-28 0 0
2.80588e-29 0 0
2.22084e-30 0 0
1.70682e-31 0 0
1.27436e-32 0 0
9.2481e-34 0 0
6.52687e-35 0 0
4.48217e-36 0 0
2.99669e-37 0 0
1.95166e-38 0 0
1.23883e-39 0 0
7.66824e-41 0 0
4.63113e-42 0 0
2.73027e-43 0 0
1.57206e-44 0 0
8.84484e-46 0 0
4.86484e-47 0 0
2.61701e-48 0 0
1.3775e-49 0 0
7.09764e-51 0 0
3.58179e-52 0 0
1.8562e-53 0 0
1.04334e-50 0 0
0 0 -3.15582e-134
3.65459e-09 0 -1.20955e-132
1.3501e-08 0 -5.93839e-131
3.08762e-08 0 -2.77551e-129
5.29776e-08 0 -1.16045e-127
4.50515e-08 0 -3.88808e-126
2.12325e-08 0 -7.34459e-125
6.85639e-09 0 -3.63041e-124
1.75733e-09 0 -1.22068e-122
3.85869e-10 0 -4.06771e-121
7.5581e-11 0 -1.33283e-119
1.35282e-11 0 -4.29921e-118
2.24811e-12 0 -1.36506e-116
3.50709e-13 0 -4.265e-115
5.17629e-14 0 -1.31076e-113
7.26803e-15 0 -3.96076e-112
9.7454e-16 0 -1.17624e-110
1.25114e-16 0 -3.4314e-109
1.54069e-17 0 -9.82834e-108
1.82217e-18 0 -2.76242e-106
2.07178e-19 0 -7.61457e-105
2.26637e-20 0 -2.0572e-103
2.3871e-21 0 -5.44361e-102
2.42256e-22 0 -1.40981e-100
2.3706e-23 0 -3.57065e-99
2.23844e-24 0 -8.83636e-98
2.04112e-25 0 -2.13464e-96
1.79873e-26 0 -5.02859e-95
1.53313e-27 0 -1.15382e-93
1.26488e-28 0 -2.57542e-92
1.01093e-29 0 -5.58415e-91
7.8329e-31 0 -1.17428e-89
5.88825e-32 0 -2.39066e-88
4.29766e-33 0 -4.70234e-87
3.0477e-34 0 -8.91565e-86
2.1014e-35 0 -1.62511e-84
1.40972e-36 0 -2.83899e-83
9.20726e-38 0 -4.73625e-82
5.8583e-39 0 -7.51356e-81
3.63345e-40 0 -1.12768e-79
2.198e-41 0 -1.5914e-78
1.29759e-42 0 -2.09567e-77
7.47975e-44 0 -2.55082e-76
4.21211e-45 0 -2.83492e-75
2.31842e-46 0 -2.83077e-74
1.24788e-47 0 -2.48446e-73
6.57123e-49 0 -1.8575e-72
3.38691e-50 0 -1.12845e-71
1.70954e-51 0 -5.1564e-71
8.86048e-53 0 -1.53864e-70
4.9216e-50 0 -1.02816e-67
0.0036 -2.1778e-133 -4.24683e-134
0.00498666 -2.38803e-129 -7.00095e-130
0.0050137 -1.3208e-127 -5.97355e-128
0.0044378 -8.42358e-126 -5.10997e-126
0.00345397 -5.45643e-124 -3.94033e-124
0.00163782 -3.78096e-122 -2.56944e-122
0.000517166 -9.28377e-121 -7.4458e-121
0.000125496 -9.00564e-121 -8.95703e-121
2.60214e-05 -3.02534e-119 -3.02523e-119
4.848e-06 -1.03056e-117 -1.03053e-117
8.31849e-07 -3.44161e-116 -3.44157e-116
1.33372e-07 -1.13137e-114 -1.13136e-114
2.0174e-08 -3.66217e-113 -3.66217e-113
2.89814e-09 -1.16694e-111 -1.16694e-111
3.97255e-10 -3.6591e-110 -3.6591e-110
5.21235e-11 -1.1286e-108 -1.1286e-108
6.56089e-12 -3.42267e-107 -3.42267e-107
7.93426e-13 -1.02012e-105 -1.02012e-105
9.22841e-14 -2.98664e-104 -2.98664e-104
1.03318e-14 -8.58502e-103 -8.58502e-103
1.11416e-15 -2.42148e-101 -2.42148e-101
1.15803e-16 -6.69796e-100 -6.69796e-100
1.16081e-17 -1.8157e-98 -1.8157e-98
1.12295e-18 -4.82035e-97 -4.82035e-97
1.04907e-19 -1.25232e-95 -1.25232e-95
9.47114e-21 -3.18122e-94 -3.18122e-94
8.26922e-22 -7.89437e-93 -7.89437e-93
6.98729e-23 -1.91184e-91 -1.91184e-91
5.71815e-24 -4.51349e-90 -4.51349e-90
4.5355e-25 -1.03746e-88 -1.03746e-88
3.48926e-26 -2.31864e-87 -2.31864e-87
2.6055e-27 -5.03075e-86 -5.03075e-86
1.88976e-28 -1.05784e-84 -1.05784e-84
1.33222e-29 -2.15154e-83 -2.15154e-83
9.13455e-31 -4.22325e-82 -4.22325e-82
6.09572e-32 -7.9799e-81 -7.9799e-81
3.9615e-33 -1.44712e-79 -1.44712e-79
2.50873e-34 -2.50989e-78 -2.50989e-78
1.54904e-35 -4.14616e-77 -4.14616e-77
9.33108e-37 -6.49127e-76 -6.49127e-76
5.48651e-38 -9.57386e-75 -9.57386e-75
3.15054e-39 -1.32035e-73 -1.32035e-73
1.76773e-40 -1.68681e-72 -1.68681e-72
9.69626e-42 -1.97236e-71 -1.97236e-71
5.20176e-43 -2.07739e-70 -2.07739e-70
2.73057e-44 -1.92826e-69 -1.92826e-69
1.40314e-45 -1.52868e-68 -1.52868e-68
7.06114e-47 -9.86821e-68 -9.86821e-68
3.48177e-48 -4.79285e-67 -4.79285e-67
1.76202e-49 -1.51018e-66 -1.51018e-66
1.75885e-49 -2.22966e-66 -2.22966e-66
0.01 -1.10958e-132 -1.23892e-134
0.0111647 -1.22173e-128 -3.28238e-130
0.010946 -6.57941e-127 -4.56232e-128
0.00982427 -4.80004e-125 -5.20266e-126
0.008699 -2.71572e-123 -8.10011e-124
0.00370184 -7.84873e-121 -4.34945e-121
0.00105422 -3.60367e-119 -2.86927e-119
0.000232492 -5.9789e-120 -6.03954e-120
4.51855e-05 -2.02108e-118 -2.02373e-118
8.06573e-06 -7.0656e-117 -7.06667e-117
1.34485e-06 -2.38728e-115 -2.38727e-115
2.11457e-07 -7.92737e-114 -7.92731e-114
3.15617e-08 -2.59245e-112 -2.59245e-112
4.49344e-09 -8.34867e-111 -8.34867e-111
6.12309e-10 -2.64664e-109 -2.64664e-109
8.00505e-11 -8.25615e-108 -8.25615e-108
1.00565e-11 -2.53332e-106 -2.53332e-106
1.21526e-12 -7.64265e-105 -7.64265e-105
1.41368e-13 -2.26589e-103 -2.26589e-103
1.58388e-14 -6.59876e-102 -6.59876e-102
1.71002e-15 -1.8866e-100 -1.8866e-100
1.77989e-16 -5.29232e-99 -5.29232e-99
1.78703e-17 -1.45576e-97 -1.45576e-97
1.73167e-18 -3.92396e-96 -3.92396e-96
1.62055e-19 -1.03569e-94 -1.03569e-94
1.46558e-20 -2.67464e-93 -2.67464e-93
1.28177e-21 -6.75226e-92 -6.75226e-92
1.08486e-22 -1.66483e-90 -1.66483e-90
8.89233e-24 -4.00467e-89 -4.00467e-89
7.06407e-25 -9.38714e-88 -9.38714e-88
5.44259e-26 -2.14142e-86 -2.14142e-86
4.06985e-27 -4.74718e-85 -4.74718e-85
2.95584e-28 -1.02099e-83 -1.02099e-83
2.08646e-29 -2.12637e-82 -2.12637e-82
1.43237e-30 -4.27922e-81 -4.27922e-81
9.56981e-32 -8.30083e-80 -8.30083e-80
6.22621e-33 -1.54762e-78 -1.54762e-78
3.94713e-34 -2.76397e-77 -2.76397e-77
2.43968e-35 -4.70966e-76 -4.70966e-76
1.47104e-36 -7.6199e-75 -7.6199e-75
8.65749e-38 -1.16379e-73 -1.16379e-73
4.97583e-39 -1.66577e-72 -1.66577e-72
2.79426e-40 -2.21412e-71 -2.21412e-71
1.53393e-41 -2.70086e-70 -2.70086e-70
8.2355e-43 -2.97638e-69 -2.97638e-69
4.32629e-44 -2.89972e-68 -2.89972e-68
2.22471e-45 -2.42069e-67 -2.42069e-67
1.12033e-46 -1.65042e-66 -1.65042e-66
5.52786e-48 -8.47931e-66 -8.47931e-66
2.79933e-49 -2.81334e-65 -2.81334e-65
2.79429e-49 -4.21331e-65 -4.21331e-65
0.0148 -7.60487e-134 -1.65483e-133
0.0165853 -1.10197e-129 2.5236e-129
0.0167679 -3.29803e-128 -9.43432e-128
0.0148681 -2.20494e-126 2.31956e-126
0.0156304 -5.28339e-125 -6.62671e-124
0.00240434 -5.06608e-125 -4.10519e-121
0.000650154 0 -2.7968e-119
0.000136158 1.40902e-117 1.08573e-117
2.93833e-05 -1.0521e-117 -1.07676e-117
5.63511e-06 -4.17584e-116 -4.18784e-116
9.90631e-07 -1.44481e-114 -1.4452e-114
1.62264e-07 -4.85437e-113 -4.85435e-113
2.50258e-08 -1.60475e-111 -1.60475e-111
3.66041e-09 -5.22593e-110 -5.22593e-110
5.1026e-10 -1.67593e-108 -1.67593e-108
6.80198e-11 -5.29087e-107 -5.29087e-107
8.69045e-12 -1.64366e-105 -1.64366e-105
1.06581e-12 -5.02262e-104 -5.02262e-104
1.25607e-13 -1.50902e-102 -1.50902e-102
1.42366e-14 -4.45555e-101 -4.45555e-101
1.55296e-15 -1.2922e-99 -1.2922e-99
1.63144e-16 -3.67916e-98 -3.67916e-98
1.65169e-17 -1.02778e-96 -1.02778e-96
1.61263e-18 -2.81524e-95 -2.81524e-95
1.5195e-19 -7.55595e-94 -7.55595e-94
1.3828e-20 -1.98563e-92 -1.98563e-92
1.21629e-21 -5.10488e-91 -5.10488e-91
1.03485e-22 -1.2828e-89 -1.2828e-89
8.52347e-24 -3.14762e-88 -3.14762e-88
6.80129e-25 -7.53312e-87 -7.53312e-87
5.26182e-26 -1.75631e-85 -1.75631e-85
3.94981e-27 -3.98341e-84 -3.98341e-84
2.87892e-28 -8.7752e-83 -8.7752e-83
2.03896e-29 -1.87428e-81 -1.87428e-81
1.40414e-30 -3.87345e-80 -3.87345e-80
9.40869e-32 -7.72729e-79 -7.72729e-79
6.13825e-33 -1.48399e-77 -1.48399e-77
3.90146e-34 -2.7347e-76 -2.7347e-76
2.41735e-35 -4.81723e-75 -4.81723e-75
1.46094e-36 -8.074e-74 -8.074e-74
8.61682e-38 -1.28037e-72 -1.28037e-72
4.96271e-39 -1.90761e-71 -1.90761e-71
2.79236e-40 -2.64664e-70 -2.64664e-70
1.53575e-41 -3.38021e-69 -3.38021e-69
8.2599e-43 -3.91331e-68 -3.91331e-68
4.34644e-44 -4.01996e-67 -4.01996e-67
2.23867e-45 -3.5522e-66 -3.5522e-66
1.1291e-46 -2.57319e-65 -2.57319e-65
5.5793e-48 -1.40797e-64 -1.40797e-64
2.82953e-49 -4.9548e-64 -4.9548e-64
2.8244e-49 -7.5368e-64 -7.5368e-64
0.018 -2.83251e-135 -3.18813e-132
0.0201981 -6.9749e-131 3.60062e-128
0.0211948 -9.61142e-130 -1.6662e-126
0.0181525 -7.95503e-128 7.16507e-125
0.0219669 -1.01538e-126 -7.87006e-123
0 -9.36726e-127 -7.94342e-123
0 0 0
0 0 1.09097e-117
3.86479e-06 -5.86381e-116 -4.62829e-116
1.35035e-06 -1.94356e-115 -1.98949e-115
3.15832e-07 -7.54388e-114 -7.56086e-114
6.16634e-08 -2.58713e-112 -2.58714e-112
1.07408e-08 -8.64785e-111 -8.64784e-111
1.71966e-09 -2.84862e-109 -2.84862e-109
2.57174e-10 -9.24423e-108 -9.24423e-108
3.62691e-11 -2.9544e-106 -2.9544e-106
4.85279e-12 -9.29549e-105 -9.29549e-105
6.18488e-13 -2.87815e-103 -2.87815e-103
7.52954e-14 -8.76628e-102 -8.76628e-102
8.77409e-15 -2.62534e-100 -2.62534e-100
9.8026e-16 -7.72718e-99 -7.72718e-99
1.05144e-16 -2.23409e-97 -2.23409e-97
1.08408e-17 -6.3414e-96 -6.3414e-96
1.07563e-18 -1.76612e-94 -1.76612e-94
1.02815e-19 -4.82304e-93 -4.82304e-93
9.47729e-21 -1.29058e-91 -1.29058e-91
8.43295e-22 -3.38125e-90 -3.38125e-90
7.25035e-23 -8.66621e-89 -8.66621e-89
6.02874e-24 -2.17087e-87 -2.17087e-87
4.85259e-25 -5.30931e-86 -5.30931e-86
3.78423e-26 -1.2663e-84 -1.2663e-84
2.86156e-27 -2.94149e-83 -2.94149e-83
2.09991e-28 -6.64484e-82 -6.64484e-82
1.4966e-29 -1.45734e-80 -1.45734e-80
1.03668e-30 -3.09713e-79 -3.09713e-79
6.98436e-32 -6.3638e-78 -6.3638e-78
4.57984e-33 -1.26097e-76 -1.26097e-76
2.92483e-34 -2.4021e-75 -2.4021e-75
1.82035e-35 -4.38328e-74 -4.38328e-74
1.10477e-36 -7.62802e-73 -7.62802e-73
6.54199e-38 -1.25918e-71 -1.25918e-71
3.78186e-39 -1.9584e-70 -1.9584e-70
2.13547e-40 -2.84535e-69 -2.84535e-69
1.17842e-41 -3.8189e-68 -3.8189e-68
6.35817e-43 -4.66435e-67 -4.66435e-67
3.35584e-44 -5.07691e-66 -5.07691e-66
1.73342e-45 -4.77572e-65 -4.77572e-65
8.76661e-47 -3.70023e-64 -3.70023e-64
4.34323e-48 -2.17318e-63 -2.17318e-63
2.20838e-49 -8.18194e-63 -8.18194e-63
2.20434e-49 -1.26585e-62 -1.26585e-62
0.0196 -7.4629e-136 8.80709e-133
0.0220687 -1.1778e-131 -6.27485e-129
0.0232573 -2.83988e-130 9.06553e-128
0.0204351 -1.16216e-128 -5.81697e-126
0.0237574 -3.34462e-127 -3.03184e-123
0.0073319 -3.23113e-127 -2.62999e-121
0 0 -2.59973e-121
0 0 0
0 0 -4.53815e-116
1.61363e-07 2.17852e-114 1.50554e-114
6.16445e-08 -3.08293e-113 -3.14876e-113
1.56044e-08 -1.16968e-111 -1.16971e-111
3.25007e-09 -3.95465e-110 -3.95465e-110
5.95251e-10 -1.31798e-108 -1.31798e-108
9.892e-11 -4.3291e-107 -4.3291e-107
1.51849e-11 -1.40101e-105 -1.40101e-105
2.17764e-12 -4.46575e-104 -4.46575e-104
2.93973e-13 -1.40152e-102 -1.40152e-102
3.75588e-14 -4.32903e-101 -4.32903e-101
4.55961e-15 -1.3155e-99 -1.3155e-99
5.27588e-16 -3.93108e-98 -3.93108e-98
5.83303e-17 -1.15464e-96 -1.15464e-96
6.17495e-18 -3.33178e-95 -3.33178e-95
6.27043e-19 -9.43974e-94 -9.43974e-94
6.11764e-20 -2.62446e-92 -2.62446e-92
5.74284e-21 -7.15538e-91 -7.15538e-91
5.19405e-22 -1.91173e-89 -1.91173e-89
4.53171e-23 -5.0013e-88 -5.0013e-88
3.81855e-24 -1.28004e-86 -1.28004e-86
3.11092e-25 -3.20204e-85 -3.20204e-85
2.45289e-26 -7.82037e-84 -7.82037e-84
1.87365e-27 -1.86251e-82 -1.86251e-82
1.38777e-28 -4.31961e-81 -4.31961e-81
9.97577e-30 -9.74065e-80 -9.74065e-80
6.96513e-31 -2.13181e-78 -2.13181e-78
4.72725e-32 -4.51884e-77 -4.51884e-77
3.12111e-33 -9.25481e-76 -9.25481e-76
2.00603e-34 -1.82611e-74 -1.82611e-74
1.25599e-35 -3.45951e-73 -3.45951e-73
7.6655e-37 -6.26658e-72 -6.26658e-72
4.56314e-38 -1.07983e-70 -1.07983e-70
2.65101e-39 -1.75881e-69 -1.75881e-69
1.50393e-40 -2.68573e-68 -2.68573e-68
8.3358e-42 -3.80398e-67 -3.80398e-67
4.5164e-43 -4.92549e-66 -4.92549e-66
2.39319e-44 -5.71283e-65 -5.71283e-65
1.24082e-45 -5.75916e-64 -5.75916e-64
6.29768e-47 -4.81085e-63 -4.81085e-63
3.13063e-48 -3.06174e-62 -3.06174e-62
1.59718e-49 -1.24677e-61 -1.24677e-61
1.59422e-49 -1.96498e-61 -1.96498e-61
0.0196 -1.64365e-134 6.32435e-133
0.0222587 -2.34486e-130 -3.52085e-129
0.0229131 -8.98309e-129 7.33938e-128
0.0213688 -3.6054e-127 6.6998e-126
0.0215716 -1.35119e-125 -2.95404e-124
0.0167197 -4.74141e-124 1.31339e-121
0.00413873 -4.60981e-124 -2.88446e-119
0 0 -2.89763e-119
0 0 0
0 0 1.66876e-114
6.84811e-09 -1.18146e-112 -1.17047e-112
5.66658e-09 -4.32226e-111 -4.32285e-111
1.72984e-09 -1.47904e-109 -1.47904e-109
3.80181e-10 -4.98795e-108 -4.98795e-108
6.98153e-11 -1.65862e-106 -1.65862e-106
1.1372e-11 -5.43657e-105 -5.43657e-105
1.69303e-12 -1.756e-103 -1.756e-103
2.34317e-13 -5.58731e-102 -5.58731e-102
3.04645e-14 -1.75068e-100 -1.75068e-100
3.74628e-15 -5.39976e-99 -5.39976e-99
4.37811e-16 -1.63882e-97 -1.63882e-97
4.87937e-17 -4.89203e-96 -4.89203e-96
5.19999e-18 -1.43565e-94 -1.43565e-94
5.31071e-19 -4.13988e-93 -4.13988e-93
5.20735e-20 -1.17239e-91 -1.17239e-91
4.9102e-21 -3.25871e-90 -3.25871e-90
4.45888e-22 -8.88425e-89 -8.88425e-89
3.90456e-23 -2.37404e-87 -2.37404e-87
3.30114e-24 -6.21306e-86 -6.21306e-86
2.69771e-25 -1.59106e-84 -1.59106e-84
2.13317e-26 -3.98299e-83 -3.98299e-83
1.63376e-27 -9.73621e-82 -9.73621e-82
1.21308e-28 -2.32105e-80 -2.32105e-80
8.74016e-30 -5.38857e-79 -5.38857e-79
6.11561e-31 -1.21631e-77 -1.21631e-77
4.15909e-32 -2.66421e-76 -2.66421e-76
2.75121e-33 -5.65038e-75 -5.65038e-75
1.77146e-34 -1.15724e-73 -1.15724e-73
1.111e-35 -2.28156e-72 -2.28156e-72
6.79142e-37 -4.31348e-71 -4.31348e-71
4.04892e-38 -7.78304e-70 -7.78304e-70
2.35563e-39 -1.33229e-68 -1.33229e-68
1.33818e-40 -2.14701e-67 -2.14701e-67
7.42663e-42 -3.22444e-66 -3.22444e-66
4.02874e-43 -4.45099e-65 -4.45099e-65
2.13728e-44 -5.53775e-64 -5.53775e-64
1.10936e-45 -6.03067e-63 -6.03067e-63
5.63647e-47 -5.484e-62 -5.484e-62
2.80478e-48 -3.82705e-61 -3.82705e-61
1.43238e-49 -1.70936e-60 -1.70936e-60
1.42973e-49 -2.74928e-60 -2.74928e-60
0.018 -3.61081e-133 -3.1923e-132
0.0204698 -6.84053e-129 3.50856e-128
0.0205805 -3.00527e-127 -1.48911e-126
0.0194858 -1.29784e-125 7.11533e-125
0.0183403 -5.32264e-124 -3.95368e-123
0.0166078 -1.91875e-122 1.88404e-121
0.00817162 -4.65755e-121 9.56953e-120
0.000886854 -4.47087e-121 6.20006e-117
0 0 6.19068e-117
0 0 0
0 -3.42435e-112 -3.39747e-112
2.59083e-08 -1.23512e-110 -1.23485e-110
6.55808e-09 -4.27193e-109 -4.27193e-109
1.20329e-09 -1.45785e-107 -1.45785e-107
1.90291e-10 -4.90773e-106 -4.90773e-106
2.74094e-11 -1.62936e-104 -1.62936e-104
3.68564e-12 -5.33329e-103 -5.33329e-103
4.68623e-13 -1.72064e-101 -1.72064e-101
5.67513e-14 -5.46966e-100 -5.46966e-100
6.57423e-15 -1.71263e-98 -1.71263e-98
7.30487e-16 -5.28008e-97 -5.28008e-97
7.79968e-17 -1.60223e-95 -1.60223e-95
8.01354e-18 -4.78335e-94 -4.78335e-94
7.93103e-19 -1.40433e-92 -1.40433e-92
7.56846e-20 -4.05252e-91 -4.05252e-91
6.97022e-21 -1.14886e-89 -1.14886e-89
6.20039e-22 -3.19774e-88 -3.19774e-88
5.33198e-23 -8.73326e-87 -8.73326e-87
4.43624e-24 -2.33861e-85 -2.33861e-85
3.57397e-25 -6.13549e-84 -6.13549e-84
2.79025e-26 -1.57568e-82 -1.57568e-82
2.11267e-27 -3.95718e-81 -3.95718e-81
1.55255e-28 -9.70773e-80 -9.70773e-80
1.10817e-29 -2.32332e-78 -2.32332e-78
7.68817e-31 -5.41656e-77 -5.41656e-77
5.188e-32 -1.22806e-75 -1.22806e-75
3.40743e-33 -2.70224e-74 -2.70224e-74
2.17963e-34 -5.75714e-73 -5.75714e-73
1.35875e-35 -1.1842e-71 -1.1842e-71
8.2595e-37 -2.34348e-70 -2.34348e-70
4.89865e-38 -4.44259e-69 -4.44259e-69
2.83628e-39 -8.02368e-68 -8.02368e-68
1.60399e-40 -1.37087e-66 -1.37087e-66
8.86449e-42 -2.19492e-65 -2.19492e-65
4.78986e-43 -3.25109e-64 -3.25109e-64
2.5317e-44 -4.37304e-63 -4.37304e-63
1.30954e-45 -5.19404e-62 -5.19404e-62
6.63188e-47 -5.20339e-61 -5.20339e-61
3.28997e-48 -4.04215e-60 -4.04215e-60
1.67508e-49 -2.01768e-59 -2.01768e-59
1.67203e-49 -3.31826e-59 -3.31826e-59
0.0148 -9.55547e-132 1.7897e-133
0.0164854 -1.94119e-127 -4.88452e-129
0.0160177 -8.82179e-126 -2.76013e-127
0.0148171 -3.80098e-124 -5.92024e-125
0.0133437 -1.55413e-122 -8.24255e-123
0.0110172 -5.80414e-121 -1.5873e-120
0.00593033 -1.79667e-119 -9.18702e-119
0.00142129 -3.77192e-118 -1.0058e-117
7.62071e-05 -3.59791e-118 -2.97397e-115
9.9749e-06 0 -1.1659e-113
1.39711e-06 -6.7502e-112 -6.86286e-112
2.10623e-07 -2.45949e-110 -2.45947e-110
2.98419e-08 -8.6013e-109 -8.60129e-109
4.01938e-09 -2.9693e-107 -2.9693e-107
5.18616e-10 -1.01165e-105 -1.01165e-105
6.44319e-11 -3.40086e-104 -3.40086e-104
7.73234e-12 -1.12778e-102 -1.12778e-102
8.97965e-13 -3.68826e-101 -3.68826e-101
1.00998e-13 -1.18921e-99 -1.18921e-99
1.10046e-14 -3.77927e-98 -3.77927e-98
1.16148e-15 -1.1834e-96 -1.1834e-96
1.18728e-16 -3.64988e-95 -3.64988e-95
1.17522e-17 -1.1084e-93 -1.1084e-93
1.12637e-18 -3.31292e-92 -3.31292e-92
1.04533e-19 -9.74181e-91 -9.74181e-91
9.39523e-21 -2.81697e-89 -2.81697e-89
8.18025e-22 -8.00605e-88 -8.00605e-88
6.90225e-23 -2.23517e-86 -2.23517e-86
5.64643e-24 -6.1262e-85 -6.1262e-85
4.48059e-25 -1.64728e-83 -1.64728e-83
3.45073e-26 -4.34223e-82 -4.34223e-82
2.58076e-27 -1.12113e-80 -1.12113e-80
1.87544e-28 -2.83257e-79 -2.83257e-79
1.32505e-29 -6.99533e-78 -6.99533e-78
9.10741e-31 -1.68651e-76 -1.68651e-76
6.09322e-32 -3.96351e-75 -3.96351e-75