# vtk DataFile Version 2.0
Tobias Weinzierl: CPU, Manycore and Cluster Computing
ASCII

DATASET STRUCTURED_POINTS
DIMENSIONS  51 11 6

ORIGIN 0 0 0 

SPACING 0.1 0.1 0.1 

POINT_DATA 3366

VECTORS velocity float
0 0 0
1.57032e-08 0 0
8.71324e-09 0 0
2.30042e-09 0 0
4.0093e-10 0 0
5.23169e-11 0 0
5.48466e-12 0 0
4.81754e-13 0 0
3.64537e-14 0 0
2.42393e-15 0 0
1.43769e-16 0 0
7.69627e-18 0 0
3.75402e-19 0 0
1.68163e-20 0 0
6.96397e-22 0 0
2.68124e-23 0 0
9.64473e-25 0 0
3.25522e-26 0 0
1.03476e-27 0 0
3.10835e-29 0 0
8.85e-31 0 0
2.39471e-32 0 0
6.17328e-34 0 0
1.51947e-35 0 0
3.57819e-37 0 0
8.07661e-39 0 0
1.75037e-40 0 0
3.64795e-42 0 0
7.32177e-44 0 0
1.41716e-45 0 0
2.64852e-47 0 0
4.78494e-49 0 0
8.36597e-51 0 0
1.417e-52 0 0
2.3273e-54 0 0
3.70989e-56 0 0
5.7447e-58 0 0
8.64813e-60 0 0
1.26665e-61 0 0
1.80629e-63 0 0
2.50962e-65 0 0
3.39943e-67 0 0
4.49209e-69 0 0
5.79418e-71 0 0
7.2993e-73 0 0
8.98565e-75 0 0
1.08148e-76 0 0
1.27322e-78 0 0
1.46693e-80 0 0
1.67301e-82 0 0
1.86467e-80 0 0
0 -4.9943e-196 0
8.08611e-08 -9.36971e-194 0
4.68131e-08 -1.60754e-191 0
1.22326e-08 -2.37613e-189 0
2.09081e-09 -3.13854e-187 0
2.65014e-10 -3.6178e-185 0
2.71289e-11 -3.08869e-183 0
2.34002e-12 -6.61379e-185 0
1.74666e-13 -4.51589e-183 0
1.14944e-14 -6.55614e-181 0
6.76326e-16 -9.33999e-179 0
3.59784e-17 -1.30887e-176 0
1.74613e-18 -1.80424e-174 0
7.79e-20 -2.44563e-172 0
3.21517e-21 -3.25837e-170 0
1.23442e-22 -4.26515e-168 0
4.42988e-24 -5.48259e-166 0
1.49212e-25 -6.91732e-164 0
4.73492e-27 -8.56166e-162 0
1.42018e-28 -1.03895e-159 0
4.03818e-30 -1.23534e-157 0
1.09142e-31 -1.43827e-155 0
2.81065e-33 -1.6385e-153 0
6.9117e-35 -1.82504e-151 0
1.62629e-36 -1.98586e-149 0
3.6681e-38 -2.10902e-147 0
7.94422e-40 -2.1839e-145 0
1.65465e-41 -2.20257e-143 0
3.31919e-43 -2.16095e-141 0
6.42116e-45 -2.05966e-139 0
1.19949e-46 -1.90431e-137 0
2.16612e-48 -1.70507e-135 0
3.78573e-50 -1.4757e-133 0
6.40976e-52 -1.23192e-131 0
1.05239e-53 -9.89561e-130 0
1.67706e-55 -7.62727e-128 0
2.59613e-57 -5.62293e-126 0
3.90716e-59 -3.94986e-124 0
5.72115e-61 -2.632e-122 0
8.15656e-63 -1.65481e-120 0
1.133e-64 -9.75309e-119 0
1.53438e-66 -5.3452e-117 0
2.02716e-68 -2.69646e-115 0
2.61426e-70 -1.23567e-113 0
3.29275e-72 -5.05411e-112 0
4.05278e-74 -1.80039e-110 0
4.87699e-76 -5.38792e-109 0
5.74077e-78 -1.27911e-107 0
6.61318e-80 -2.17249e-106 0
7.54117e-82 -2.08647e-105 0
8.47159e-80 -3.53921e-103 0
0 -1.39493e-194 0
2.00165e-07 -2.58779e-192 0
1.25281e-07 -5.55239e-190 0
3.25767e-08 -1.03455e-187 0
5.41239e-09 -1.80664e-185 0
6.13434e-10 -3.08828e-183 0
5.85831e-11 -5.21072e-181 0
4.82448e-12 -3.81275e-183 0
3.49245e-13 -1.25223e-181 0
2.24993e-14 -1.86557e-179 0
1.30368e-15 -2.68785e-177 0
6.85622e-17 -3.80328e-175 0
3.29844e-18 -5.29437e-173 0
1.46144e-19 -7.24938e-171 0
5.99867e-21 -9.7599e-169 0
2.2928e-22 -1.2914e-166 0
8.19748e-24 -1.67863e-164 0
2.75259e-25 -2.14245e-162 0
8.71167e-27 -2.68356e-160 0
2.60705e-28 -3.29696e-158 0
7.39839e-30 -3.97064e-156 0
1.99617e-31 -4.68465e-154 0
5.13283e-33 -5.41081e-152 0
1.26053e-34 -6.11358e-150 0
2.96241e-36 -6.75187e-148 0
6.67455e-38 -7.28227e-146 0
1.44414e-39 -7.66312e-144 0
3.00525e-41 -7.85925e-142 0
6.02361e-43 -7.84672e-140 0
1.16444e-44 -7.61668e-138 0
2.17372e-46 -7.17779e-136 0
3.92299e-48 -6.55639e-134 0
6.85222e-50 -5.79431e-132 0
1.15955e-51 -4.94438e-130 0
1.90284e-53 -4.06422e-128 0
3.03087e-55 -3.20945e-126 0
4.68977e-57 -2.42724e-124 0
7.0551e-59 -1.75161e-122 0
1.03265e-60 -1.20092e-120 0
1.47168e-62 -7.78187e-119 0
2.04353e-64 -4.73575e-117 0
2.76654e-66 -2.68541e-115 0
3.65385e-68 -1.40482e-113 0
4.71061e-70 -6.69267e-112 0
5.93143e-72 -2.85378e-110 0
7.29844e-74 -1.06309e-108 0
8.78034e-76 -3.33848e-107 0
1.03327e-77 -8.34799e-106 0
1.19e-79 -1.49899e-104 0
1.35665e-81 -1.52451e-103 0
1.53145e-79 -2.64612e-101 0
0 -2.83736e-196 0
3.41238e-07 -5.31087e-194 0
2.35758e-07 -9.15922e-192 0
6.16565e-08 -1.17943e-189 0
9.89514e-09 -1.04571e-187 0
4.00737e-10 -1.03401e-187 0
3.69389e-11 0 0
2.96622e-12 8.68666e-179 0
2.23937e-13 -2.74039e-180 0
1.48878e-14 -4.62809e-178 0
8.83915e-16 -6.82128e-176 0
4.73947e-17 -9.75891e-174 0
2.31623e-18 -1.37232e-171 0
1.03968e-19 -1.8988e-169 0
4.31432e-21 -2.58412e-167 0
1.66439e-22 -3.45761e-165 0
5.99845e-24 -4.54652e-163 0
2.02821e-25 -5.87249e-161 0
6.45824e-27 -7.44717e-159 0
1.9431e-28 -9.26738e-157 0
5.54058e-30 -1.13103e-154 0
1.5013e-31 -1.35292e-152 0
3.8752e-33 -1.58516e-150 0
9.54986e-35 -1.81788e-148 0
2.25142e-36 -2.03897e-146 0
5.0872e-38 -2.23484e-144 0
1.10358e-39 -2.3915e-142 0
2.30208e-41 -2.496e-140 0
4.62444e-43 -2.53796e-138 0
8.95795e-45 -2.51104e-136 0
1.67539e-46 -2.4141e-134 0
3.02896e-48 -2.25174e-132 0
5.29927e-50 -2.03418e-130 0
8.98118e-52 -1.77629e-128 0
1.47593e-53 -1.49594e-126 0
2.35401e-55 -1.2119e-124 0
3.64697e-57 -9.41596e-123 0
5.49277e-59 -6.99154e-121 0
8.04856e-61 -4.9405e-119 0
1.14823e-62 -3.30573e-117 0
1.59594e-64 -2.08157e-115 0
2.16259e-66 -1.2241e-113 0
2.85867e-68 -6.6577e-112 0
3.68848e-70 -3.30694e-110 0
4.64801e-72 -1.47482e-108 0
5.72345e-74 -5.76664e-107 0
6.89036e-76 -1.90833e-105 0
8.11398e-78 -5.0506e-104 0
9.35058e-80 -9.64197e-103 0
1.06665e-81 -1.04516e-101 0
1.20112e-79 -1.85735e-99 0
0 -3.63248e-198 0
4.63592e-07 -6.86151e-196 0
3.50186e-07 -1.00204e-193 0
9.28336e-08 -1.00105e-191 0
1.44662e-08 -6.02567e-190 0
0 -5.92656e-190 0
0 0 0
0 0 0
1.29043e-14 -1.44839e-176 0
1.53284e-15 -9.01879e-177 0
1.21479e-16 -1.48685e-174 0
7.79477e-18 -2.16877e-172 0
4.31262e-19 -3.08179e-170 0
2.12109e-20 -4.31038e-168 0
9.44339e-22 -5.93188e-166 0
3.85262e-23 -8.02904e-164 0
1.4532e-24 -1.06844e-161 0
5.10314e-26 -1.3972e-159 0
1.67771e-27 -1.79469e-157 0
5.1877e-29 -2.26319e-155 0
1.51467e-30 -2.80039e-153 0
4.19004e-32 -3.39807e-151 0
1.10146e-33 -4.04099e-149 0
2.75871e-35 -4.70646e-147 0
6.59867e-37 -5.36451e-145 0
1.51055e-38 -5.97927e-143 0
3.31572e-40 -6.51132e-141 0
6.99101e-42 -6.92109e-139 0
1.41813e-43 -7.17306e-137 0
2.77172e-45 -7.24015e-135 0
5.22667e-47 -7.1078e-133 0
9.52122e-49 -6.7769e-131 0
1.67749e-50 -6.26492e-129 0
2.86155e-52 -5.60498e-127 0
4.73107e-54 -4.84256e-125 0
7.58839e-56 -4.03034e-123 0
1.18185e-57 -3.222e-121 0
1.7888e-59 -2.46579e-119 0
2.63329e-61 -1.79922e-117 0
3.77308e-63 -1.24568e-115 0
5.26579e-65 -8.13471e-114 0
7.16302e-67 -4.97371e-112 0
9.5032e-69 -2.82055e-110 0
1.23041e-70 -1.46542e-108 0
1.55557e-72 -6.86065e-107 0
1.92143e-74 -2.82751e-105 0
2.31998e-76 -9.90819e-104 0
2.73962e-78 -2.79119e-102 0
3.16556e-80 -5.70292e-101 0
3.62031e-82 -6.6399e-100 0
4.01574e-80 -1.20883e-97 0
0 -1.11615e-198 0
5.32938e-07 -2.09203e-196 0
4.2434e-07 -2.72788e-194 0
1.13763e-07 -2.49918e-192 0
1.76345e-08 -1.47992e-190 0
9.24908e-10 -1.4552e-190 0
0 0 0
0 0 0
0 0 0
7.38657e-17 2.37666e-174 0
9.06111e-18 -2.52476e-173 0
7.25571e-19 -4.06028e-171 0
4.64181e-20 -5.83217e-169 0
2.53858e-21 -8.24864e-167 0
1.22715e-22 -1.14832e-164 0
5.34935e-24 -1.57295e-162 0
2.13137e-25 -2.11916e-160 0
7.83845e-27 -2.80692e-158 0
2.68093e-28 -3.6536e-156 0
8.57895e-30 -4.67123e-154 0
2.5812e-31 -5.86323e-152 0
7.33246e-33 -7.22108e-150 0
1.97362e-34 -8.72105e-148 0
5.04901e-36 -1.03219e-145 0
1.23099e-37 -1.1964e-143 0
2.86718e-39 -1.35702e-141 0
6.39359e-41 -1.505e-139 0
1.36763e-42 -1.63052e-137 0
2.81122e-44 -1.72396e-135 0
5.56189e-46 -1.77686e-133 0
1.0607e-47 -1.78308e-131 0
1.95251e-49 -1.73971e-129 0
3.47357e-51 -1.64775e-127 0
5.97921e-53 -1.51234e-125 0
9.9694e-55 -1.34234e-123 0
1.61172e-56 -1.14951e-121 0
2.52884e-58 -9.47152e-120 0
3.8543e-60 -7.48483e-118 0
5.71121e-62 -5.65116e-116 0
8.23396e-64 -4.05767e-114 0
1.15588e-65 -2.75508e-112 0
1.58103e-67 -1.75643e-110 0
2.10855e-69 -1.04191e-108 0
2.74357e-71 -5.68308e-107 0
3.48495e-73 -2.80478e-105 0
4.32389e-75 -1.22434e-103 0
5.24306e-77 -4.56888e-102 0
6.21659e-79 -1.37914e-100 0
7.21094e-81 -3.03982e-99 0
8.27767e-83 -3.83769e-98 0
9.00386e-81 -7.16204e-96 0
0 -9.60928e-197 0
5.32846e-07 -1.78394e-194 0
4.24271e-07 -2.55802e-192 0
1.13758e-07 -2.83338e-190 0
1.7801e-08 -2.48736e-188 0
1.91688e-09 -1.52818e-186 0
8.26618e-11 -1.50359e-186 0
0 0 0
0 0 0
0 0 0
3.74123e-19 -4.11931e-172 0
1.30368e-19 -6.15086e-170 0
1.38363e-20 -8.93426e-168 0
9.95311e-22 -1.27823e-165 0
5.72515e-23 -1.80079e-163 0
2.81511e-24 -2.49729e-161 0
1.22521e-25 -3.40776e-159 0
4.82036e-27 -4.57394e-157 0
1.73866e-28 -6.03607e-155 0
5.80753e-30 -7.82826e-153 0
1.81014e-31 -9.97278e-151 0
5.29624e-33 -1.24734e-148 0
1.46172e-34 -1.53085e-146 0
3.8207e-36 -1.84245e-144 0
9.49045e-38 -2.17319e-142 0
2.24682e-39 -2.51032e-140 0
5.0828e-41 -2.83763e-138 0
1.10122e-42 -3.13625e-136 0
2.28956e-44 -3.38601e-134 0
4.57646e-46 -3.56729e-132 0
8.80884e-48 -3.66319e-130 0
1.63519e-49 -3.66177e-128 0
2.9314e-51 -3.55794e-126 0
5.08141e-53 -3.35477e-124 0
8.52709e-55 -3.06377e-122 0
1.38674e-56 -2.70413e-120 0
2.18777e-58 -2.30071e-118 0
3.35141e-60 -1.88126e-116 0
4.98948e-62 -1.47307e-114 0
7.22507e-64 -1.09973e-112 0
1.01841e-65 -7.78586e-111 0
1.39835e-67 -5.19233e-109 0
1.87163e-69 -3.23374e-107 0
2.44354e-71 -1.85953e-105 0
3.11373e-73 -9.72167e-104 0
3.87489e-75 -4.52029e-102 0
4.71192e-77 -1.80839e-100 0
5.60179e-79 -5.89602e-99 0
6.51427e-81 -1.41559e-97 0
7.49612e-83 -1.96085e-96 0
8.15007e-81 -3.75373e-94 0
0 -6.83549e-195 0
4.62781e-07 -1.25803e-192 0
3.49617e-07 -1.92571e-190 0
9.27034e-08 -2.45903e-188 0
1.46897e-08 -2.72847e-186 0
1.74784e-09 -2.56765e-184 0
1.56915e-10 -1.72226e-182 0
5.38465e-12 -1.69685e-182 0
0 0 0
0 0 0
0 -4.71511e-171 0
2.02817e-18 -7.07492e-169 0
1.78108e-19 -1.03947e-166 0
1.08832e-20 -1.50496e-164 0
5.51075e-22 -2.14647e-162 0
2.44927e-23 -3.01488e-160 0
9.82202e-25 -4.16881e-158 0
3.61151e-26 -5.67276e-156 0
1.23063e-27 -7.59359e-154 0
3.91602e-29 -9.9952e-152 0
1.17055e-30 -1.29311e-149 0
3.30217e-32 -1.6435e-147 0
8.82573e-34 -2.05106e-145 0
2.24216e-35 -2.51198e-143 0
5.42963e-37 -3.01735e-141 0
1.25642e-38 -3.55242e-139 0
2.78427e-40 -4.09641e-137 0
5.92036e-42 -4.623e-135 0
1.21008e-43 -5.10166e-133 0
2.38125e-45 -5.49989e-131 0
4.51812e-47 -5.78615e-129 0
8.27673e-49 -5.93338e-127 0
1.46571e-50 -5.92252e-125 0
2.51203e-52 -5.74566e-123 0
4.17115e-54 -5.40807e-121 0
6.71698e-56 -4.9287e-119 0
1.04999e-57 -4.33894e-117 0
1.59468e-59 -3.67944e-115 0
2.35501e-61 -2.99553e-113 0
3.38439e-63 -2.33184e-111 0
4.73647e-65 -1.72695e-109 0
6.45979e-67 -1.20916e-107 0
8.59123e-69 -7.93943e-106 0
1.1149e-70 -4.83658e-104 0
1.41259e-72 -2.69372e-102 0
1.7484e-74 -1.34307e-100 0
2.11517e-76 -5.80651e-99 0
2.50235e-78 -2.06477e-97 0
2.89643e-80 -5.46524e-96 0
3.31807e-82 -8.43259e-95 0
3.68317e-80 -1.65704e-92 0
0 -3.48963e-193 0
3.36117e-07 -6.36741e-191 0
2.32466e-07 -1.03133e-188 0
6.0808e-08 -1.50731e-186 0
9.84277e-09 -2.04672e-184 0
1.20756e-09 -2.56559e-182 0
1.20207e-10 -2.82451e-180 0
9.28597e-12 -2.30836e-178 0
2.49906e-13 -2.28037e-178 0
1.45877e-14 0 0
8.18958e-16 -3.6238e-170 0
4.39777e-17 -5.49952e-168 0
2.15185e-18 -8.17628e-166 0
9.66897e-20 -1.19837e-163 0
4.01595e-21 -1.73103e-161 0
1.55054e-22 -2.4636e-159 0
5.59219e-24 -3.45342e-157 0
1.89211e-25 -4.76647e-155 0
6.02852e-27 -6.47529e-153 0
1.81483e-28 -8.65509e-151 0
5.17752e-30 -1.13778e-148 0
1.40361e-31 -1.47038e-146 0
3.62466e-33 -1.86718e-144 0
8.93621e-35 -2.32868e-142 0
2.10758e-36 -2.85076e-140 0
4.76395e-38 -3.42363e-138 0
1.03382e-39 -4.03093e-136 0
2.15726e-41 -4.64956e-134 0
4.33486e-43 -5.25011e-132 0
8.39946e-45 -5.79829e-130 0
1.57137e-46 -6.25737e-128 0
2.84164e-48 -6.59137e-126 0
4.97279e-50 -6.76903e-124 0
8.42985e-52 -6.76776e-122 0
1.38564e-53 -6.57724e-120 0
2.21046e-55 -6.20196e-118 0
3.42528e-57 -5.662e-116 0
5.15988e-59 -4.99193e-114 0
7.56217e-61 -4.23745e-112 0
1.07903e-62 -3.45044e-110 0
1.50002e-64 -2.68284e-108 0
2.03293e-66 -1.98041e-106 0
2.68769e-68 -1.37758e-104 0
3.46838e-70 -8.9405e-103 0
4.37128e-72 -5.34004e-101 0
5.38342e-74 -2.87793e-99 0
6.48186e-76 -1.3577e-97 0
7.63391e-78 -5.32953e-96 0
8.79841e-80 -1.57922e-94 0
1.00378e-81 -2.76878e-93 0
1.13257e-79 -5.58902e-91 0
0 -9.73174e-192 0
1.75911e-07 -1.76025e-189 0
1.10889e-07 -3.02612e-187 0
2.883e-08 -5.11292e-185 0
4.7882e-09 -8.53645e-183 0
6.02745e-10 -1.40812e-180 0
6.16592e-11 -2.29445e-178 0
5.2723e-12 -3.69245e-176 0
3.51211e-13 -5.86767e-174 0
2.11383e-14 -9.20542e-172 0
1.1987e-15 -1.42542e-169 0
6.19836e-17 -2.1744e-167 0
2.94193e-18 -3.27217e-165 0
1.28925e-19 -4.85656e-163 0
5.2443e-21 -7.10732e-161 0
1.9894e-22 -1.0253e-158 0
7.06759e-24 -1.4576e-156 0
2.36033e-25 -2.04143e-154 0
7.43534e-27 -2.81583e-152 0
2.21607e-28 -3.82385e-150 0
6.26654e-30 -5.1105e-148 0
1.68549e-31 -6.71929e-146 0
4.32195e-33 -8.68765e-144 0
1.05877e-34 -1.10409e-141 0
2.48271e-36 -1.37855e-139 0
5.58256e-38 -1.69015e-137 0
1.20568e-39 -2.03361e-135 0
2.50489e-41 -2.39982e-133 0
5.01316e-43 -2.77562e-131 0
9.67774e-45 -3.14402e-129 0
1.80431e-46 -3.48487e-127 0
3.2525e-48 -3.77619e-125 0
5.67496e-50 -3.99601e-123 0
9.59368e-52 -4.12458e-121 0
1.57288e-53 -4.14679e-119 0
2.50314e-55 -4.05441e-117 0
3.87006e-57 -3.84778e-115 0
5.81757e-59 -3.53668e-113 0
8.50909e-61 -3.13996e-111 0
1.21186e-62 -2.68399e-109 0
1.6817e-64 -2.19995e-107 0
2.27535e-66 -1.72025e-105 0
3.00345e-68 -1.27474e-103 0
3.87006e-70 -8.87206e-102 0
4.8706e-72 -5.72813e-100 0
5.99028e-74 -3.36924e-98 0
7.20332e-76 -1.75543e-96 0
8.47326e-78 -7.72416e-95 0
9.75449e-80 -2.61437e-93 0
1.11162e-81 -5.35307e-92 0
1.26043e-79 -1.11087e-89 0
0 0 0
4.53051e-08 0 0
2.64984e-08 0 0
6.90917e-09 0 0
1.17512e-09 0 0
1.51049e-10 0 0
1.57058e-11 0 0
1.37098e-12 0 0
1.01304e-13 0 0
6.55062e-15 0 0
3.7974e-16 0 0
1.99493e-17 0 0
9.58013e-19 0 0
4.23588e-20 0 0
1.73498e-21 0 0
6.61767e-23 0 0
2.36139e-24 0 0
7.9147e-26 0 0
2.50068e-27 0 0
7.47189e-29 0 0
2.11737e-30 0 0
5.70541e-32 0 0
1.46529e-33 0 0
3.59451e-35 0 0
8.439e-37 0 0
1.8996e-38 0 0
4.10653e-40 0 0
8.53888e-42 0 0
1.71025e-43 0 0
3.30389e-45 0 0
6.16364e-47 0 0
1.11173e-48 0 0
1.94078e-50 0 0
3.28258e-52 0 0
5.38427e-54 0 0
8.57239e-56 0 0
1.3259e-57 0 0
1.99387e-59 0 0
2.91737e-61 0 0
4.15631e-63 0 0
5.76953e-65 0 0
7.80857e-67 0 0
1.03102e-68 0 0
1.32887e-70 0 0
1.67287e-72 0 0
2.05795e-74 0 0
2.47528e-76 0 0
2.91235e-78 0 0
3.35347e-80 0 0
3.82244e-82 0 0
4.33502e-80 0 0
0 0 -1.23675e-196
7.5832e-08 0 -2.31853e-194
4.35642e-08 0 -3.77595e-192
1.13701e-08 0 -4.85771e-190
1.94664e-09 0 -5.25697e-188
2.50539e-10 0 -4.63968e-186
2.60137e-11 0 -2.69734e-184
2.26958e-12 0 -1.90841e-185
1.70905e-13 0 -2.13154e-183
1.13233e-14 0 -3.084e-181
6.69781e-16 0 -4.38975e-179
3.57791e-17 0 -6.14828e-177
1.74228e-18 0 -8.47085e-175
7.79408e-20 0 -1.1476e-172
3.22411e-21 0 -1.52815e-170
1.24019e-22 0 -1.99921e-168
4.45768e-24 0 -2.5684e-166
1.50353e-25 0 -3.23864e-164
4.77672e-27 0 -4.00613e-162
1.43419e-28 0 -4.85847e-160
4.08164e-30 0 -5.77324e-158
1.10403e-31 0 -6.71734e-156
2.84512e-33 0 -7.64754e-154
7.00086e-35 0 -8.51249e-152
1.64819e-36 0 -9.25629e-150
3.71938e-38 0 -9.82348e-148
8.05897e-40 0 -1.0165e-145
1.67925e-41 0 -1.02444e-143
3.36981e-43 0 -1.00432e-141
6.52138e-45 0 -9.56512e-140
1.2186e-46 0 -8.83664e-138
2.20128e-48 0 -7.9057e-136
3.84824e-50 0 -6.83651e-134
6.51725e-52 0 -5.70226e-132
1.07029e-53 0 -4.57641e-130
1.70596e-55 0 -3.5242e-128
2.64141e-57 0 -2.59568e-126
3.97607e-59 0 -1.82161e-124
5.82311e-61 0 -1.21265e-122
8.30334e-63 0 -7.61661e-121
1.15357e-64 0 -4.4844e-119
1.56248e-66 0 -2.45507e-117
2.06458e-68 0 -1.23713e-115
2.66287e-70 0 -5.66286e-114
3.35441e-72 0 -2.31351e-112
4.12918e-74 0 -8.23143e-111
4.9695e-76 0 -2.46034e-109
5.85031e-78 0 -5.83358e-108
6.74008e-80 0 -9.89536e-107
7.68665e-82 0 -9.4918e-106
8.62682e-80 0 -1.60923e-103
0.0036 -1.15504e-195 -1.19975e-195
0.00245621 -3.74372e-191 -3.96116e-191
0.000695787 -1.18106e-188 -1.16176e-188
0.000118332 -2.03154e-186 -1.95268e-186
1.48935e-05 -2.78661e-184 -2.65744e-184
1.49755e-06 -3.27864e-182 -3.11196e-182
1.26903e-07 -2.85202e-180 -2.69806e-180
9.32354e-09 -5.89445e-182 -5.73109e-182
6.05246e-10 -4.01259e-180 -4.01323e-180
3.51996e-11 -5.93242e-178 -5.93255e-178
1.85393e-12 -8.6097e-176 -8.60971e-176
8.92083e-14 -1.22957e-173 -1.22957e-173
3.95047e-15 -1.72798e-171 -1.72798e-171
1.62e-16 -2.38888e-169 -2.38888e-169
6.18477e-18 -3.24747e-167 -3.24747e-167
2.20846e-19 -4.33919e-165 -4.33919e-165
7.40608e-21 -5.69624e-163 -5.69624e-163
2.34094e-22 -7.34302e-161 -7.34302e-161
6.99673e-24 -9.29063e-159 -9.29063e-159
1.98318e-25 -1.15309e-156 -1.15309e-156
5.34476e-27 -1.40303e-154 -1.40303e-154
1.37284e-28 -1.67257e-152 -1.67257e-152
3.36804e-30 -1.95217e-150 -1.95217e-150
7.90784e-32 -2.22918e-148 -2.22918e-148
1.78012e-33 -2.48836e-146 -2.48836e-146
3.84837e-35 -2.71298e-144 -2.71298e-144
8.00224e-37 -2.88617e-142 -2.88617e-142
1.60278e-38 -2.99286e-140 -2.99286e-140
3.09631e-40 -3.02157e-138 -3.02157e-138
5.77643e-42 -2.9662e-136 -2.9662e-136
1.04189e-43 -2.82729e-134 -2.82729e-134
1.81887e-45 -2.61242e-132 -2.61242e-132
3.07639e-47 -2.33578e-130 -2.33578e-130
5.04609e-49 -2.01675e-128 -2.01675e-128
8.03402e-51 -1.67759e-126 -1.67759e-126
1.24264e-52 -1.3408e-124 -1.3408e-124
1.86868e-54 -1.02643e-122 -1.02643e-122
2.73424e-56 -7.49893e-121 -7.49893e-121
3.89548e-58 -5.20577e-119 -5.20577e-119
5.40758e-60 -3.41606e-117 -3.41606e-117
7.31886e-62 -2.10554e-115 -2.10554e-115
9.66387e-64 -1.20944e-113 -1.20944e-113
1.2456e-65 -6.40997e-112 -6.40997e-112
1.5681e-67 -3.09431e-110 -3.09431e-110
1.92914e-69 -1.33714e-108 -1.33714e-108
2.32045e-71 -5.04873e-107 -5.04873e-107
2.7303e-73 -1.60719e-105 -1.60719e-105
3.14399e-75 -4.07421e-104 -4.07421e-104
3.5447e-77 -7.41621e-103 -7.41621e-103
3.95701e-79 -7.64139e-102 -7.64139e-102
3.92234e-79 -1.38057e-101 -1.38057e-101
0.01 -8.71958e-195 3.48169e-195
0.0067986 -4.47019e-190 -2.10163e-190
0.00201305 -3.68691e-187 -3.4899e-187
0.000333974 -8.88149e-185 -8.60552e-185
4.02849e-05 -1.63167e-182 -1.5666e-182
3.63634e-06 -2.85136e-180 -2.71212e-180
2.86992e-07 -4.9036e-178 -4.63596e-178
2.00679e-08 -3.49565e-180 -3.36193e-180
1.25866e-09 -1.13304e-178 -1.13406e-178
7.13999e-11 -1.7196e-176 -1.71982e-176
3.69119e-12 -2.52488e-174 -2.52491e-174
1.75092e-13 -3.64233e-172 -3.64233e-172
7.66691e-15 -5.17123e-170 -5.17123e-170
3.11576e-16 -7.22474e-168 -7.22474e-168
1.18078e-17 -9.9288e-166 -9.9288e-166
4.19061e-19 -1.34166e-163 -1.34166e-163
1.39812e-20 -1.78184e-161 -1.78184e-161
4.39992e-22 -2.32475e-159 -2.32475e-159
1.31014e-23 -2.97821e-157 -2.97821e-157
3.70144e-25 -3.74431e-155 -3.74431e-155
9.94711e-27 -4.61726e-153 -4.61726e-153
2.54857e-28 -5.5812e-151 -5.5812e-151
6.23855e-30 -6.6087e-149 -6.6087e-149
1.46183e-31 -7.66024e-147 -7.66024e-147
3.2848e-33 -8.68505e-145 -8.68505e-145
7.08978e-35 -9.62365e-143 -9.62365e-143
1.47207e-36 -1.04123e-140 -1.04123e-140
2.94448e-38 -1.09889e-138 -1.09889e-138
5.68125e-40 -1.13e-136 -1.13e-136
1.05869e-41 -1.13081e-134 -1.13081e-134
1.90755e-43 -1.09972e-132 -1.09972e-132
3.32686e-45 -1.03775e-130 -1.03775e-130
5.6219e-47 -9.48566e-129 -9.48566e-129
9.21366e-49 -8.38211e-127 -8.38211e-127
1.46578e-50 -7.14454e-125 -7.14454e-125
2.26549e-52 -5.85878e-123 -5.85878e-123
3.4045e-54 -4.60835e-121 -4.60835e-121
4.9782e-56 -3.46463e-119 -3.46463e-119
7.08809e-58 -2.47925e-117 -2.47925e-117
9.83373e-60 -1.68015e-115 -1.68015e-115
1.33021e-61 -1.07168e-113 -1.07168e-113
1.7555e-63 -6.38488e-112 -6.38488e-112
2.26158e-65 -3.51877e-110 -3.51877e-110
2.84577e-67 -1.77129e-108 -1.77129e-108
3.49939e-69 -8.00691e-107 -8.00691e-107
4.20739e-71 -3.17375e-105 -3.17375e-105
4.94846e-73 -1.06485e-103 -1.06485e-103
5.69597e-75 -2.85758e-102 -2.85758e-102
6.4195e-77 -5.53136e-101 -5.53136e-101
7.16352e-79 -6.07594e-100 -6.07594e-100
7.10105e-79 -1.10439e-99 -1.10439e-99
0.0148 -3.6216e-196 -6.33519e-194
0.0117928 -1.02275e-192 8.64998e-190
0.00387971 -5.33892e-189 -6.65924e-187
0.000647438 -9.85816e-187 -1.83557e-184
7.51194e-05 -9.27572e-185 -2.51337e-182
2.41171e-06 -9.17767e-185 -2.69089e-180
1.84061e-07 0 -4.60913e-178
1.25536e-08 8.33442e-176 7.82799e-176
8.15107e-10 -2.52592e-177 -2.54187e-177
4.75037e-11 -4.34734e-175 -4.35075e-175
2.50928e-12 -6.5324e-173 -6.5329e-173
1.21132e-13 -9.53165e-171 -9.53165e-171
5.38166e-15 -1.36761e-168 -1.36761e-168
2.21388e-16 -1.93161e-166 -1.93161e-166
8.47737e-18 -2.6846e-164 -2.6846e-164
3.03559e-19 -3.6701e-162 -3.6701e-162
1.02064e-20 -4.93324e-160 -4.93324e-160
3.23386e-22 -6.51709e-158 -6.51709e-158
9.68712e-24 -8.45744e-156 -8.45744e-156
2.75141e-25 -1.07763e-153 -1.07763e-153
7.42928e-27 -1.34745e-151 -1.34745e-151
1.91162e-28 -1.65241e-149 -1.65241e-149
4.69748e-30 -1.98615e-147 -1.98615e-147
1.10458e-31 -2.33833e-145 -2.33833e-145
2.48997e-33 -2.69449e-143 -2.69449e-143
5.38993e-35 -3.03656e-141 -3.03656e-141
1.12212e-36 -3.34379e-139 -3.34379e-139
2.25003e-38 -3.59446e-137 -3.59446e-137
4.3512e-40 -3.76795e-135 -3.76795e-135
8.12539e-42 -3.8472e-133 -3.8472e-133
1.46689e-43 -3.82106e-131 -3.82106e-131
2.56298e-45 -3.68627e-129 -3.68627e-129
4.33836e-47 -3.44856e-127 -3.44856e-127
7.1213e-49 -3.12263e-125 -3.12263e-125
1.13458e-50 -2.73089e-123 -2.73089e-123
1.75601e-52 -2.301e-121 -2.301e-121
2.6423e-54 -1.86255e-119 -1.86255e-119
3.86838e-56 -1.44348e-117 -1.44348e-117
5.51422e-58 -1.06678e-115 -1.06678e-115
7.65848e-60 -7.48166e-114 -7.48166e-114
1.03702e-61 -4.94997e-112 -4.94997e-112
1.36989e-63 -3.06674e-110 -3.06674e-110
1.76642e-65 -1.76253e-108 -1.76253e-108
2.22461e-67 -9.28196e-107 -9.28196e-107
2.7378e-69 -4.40539e-105 -4.40539e-105
3.29427e-71 -1.8409e-103 -1.8409e-103
3.87736e-73 -6.5417e-102 -6.5417e-102
4.46619e-75 -1.86896e-100 -1.86896e-100
5.03685e-77 -3.87272e-99 -3.87272e-99
5.62422e-79 -4.57051e-98 -4.57051e-98
5.57506e-79 -8.3604e-98 -8.3604e-98
0.018 -8.21961e-198 -4.38918e-192
0.0160592 4.71419e-194 4.96066e-188
0.00581261 -5.21399e-191 -1.15156e-185
0.000987704 -8.1647e-189 -8.40854e-183
0.000111107 -5.25066e-187 -1.66602e-180
0 -5.16954e-187 -1.65763e-180
0 0 0
0 0 7.82832e-176
4.18257e-11 -1.41704e-173 -1.33028e-173
4.41398e-12 -8.63655e-174 -8.69023e-174
3.14973e-13 -1.45217e-171 -1.45303e-171
1.83747e-14 -2.16124e-169 -2.16124e-169
9.31652e-16 -3.1349e-167 -3.1349e-167
4.22751e-17 -4.4778e-165 -4.4778e-165
1.74654e-18 -6.29617e-163 -6.29617e-163
6.64527e-20 -8.71164e-161 -8.71164e-161
2.34802e-21 -1.18567e-158 -1.18567e-158
7.75404e-23 -1.58669e-156 -1.58669e-156
2.40563e-24 -2.08683e-154 -2.08683e-154
7.04136e-26 -2.69616e-152 -2.69616e-152
1.95157e-27 -3.42017e-150 -3.42017e-150
5.13771e-29 -4.25752e-148 -4.25752e-148
1.28826e-30 -5.19774e-146 -5.19774e-146
3.08417e-32 -6.21938e-144 -6.21938e-144
7.06515e-34 -7.28876e-142 -7.28876e-142
1.55168e-35 -8.36e-140 -8.36e-140
3.27305e-37 -9.37666e-138 -9.37666e-138
6.64171e-39 -1.02751e-135 -1.02751e-135
1.29847e-40 -1.09897e-133 -1.09897e-133
2.44908e-42 -1.14596e-131 -1.14596e-131
4.46217e-44 -1.16359e-129 -1.16359e-129
7.86276e-46 -1.14889e-127 -1.14889e-127
1.34142e-47 -1.10135e-125 -1.10135e-125
2.21801e-49 -1.02322e-123 -1.02322e-123
3.55783e-51 -9.19464e-122 -9.19464e-122
5.54146e-53 -7.97261e-120 -7.97261e-120
8.38779e-55 -6.65248e-118 -6.65248e-118
1.23482e-56 -5.32462e-116 -5.32462e-116
1.76936e-58 -4.07242e-114 -4.07242e-114
2.46944e-60 -2.96256e-112 -2.96256e-112
3.35926e-62 -2.03831e-110 -2.03831e-110
4.45688e-64 -1.31698e-108 -1.31698e-108
5.77063e-66 -7.91894e-107 -7.91894e-107
7.29581e-68 -4.379e-105 -4.379e-105
9.012e-70 -2.19137e-103 -2.19137e-103
1.08817e-71 -9.70094e-102 -9.70094e-102
1.28504e-73 -3.67181e-100 -3.67181e-100
1.48487e-75 -1.12431e-98 -1.12431e-98
1.67964e-77 -2.51384e-97 -2.51384e-97
1.88094e-79 -3.21789e-96 -3.21789e-96
1.86425e-79 -5.92542e-96 -5.92542e-96
0.0196 -2.20438e-198 -1.23957e-192
0.0184826 8.59465e-195 1.67672e-188
0.00706644 -1.49263e-191 -4.7709e-186
0.00121845 -2.07356e-189 -3.01128e-184
0.000135773 -1.30862e-187 -1.30852e-182
5.68954e-06 -1.28804e-187 2.85172e-178
0 0 2.85184e-178
0 0 0
0 0 -1.33003e-173
1.93149e-13 2.37237e-171 2.21661e-171
2.14955e-14 -2.51586e-170 -2.53027e-170
1.57621e-15 -4.13e-168 -4.13e-168
9.29816e-17 -6.05834e-166 -6.05834e-166
4.71653e-18 -8.75471e-164 -8.75471e-164
2.1255e-19 -1.24588e-161 -1.24588e-161
8.67627e-21 -1.74544e-159 -1.74544e-159
3.24992e-22 -2.40641e-157 -2.40641e-157
1.12759e-23 -3.26365e-155 -3.26365e-155
3.64985e-25 -4.35234e-153 -4.35234e-153
1.10846e-26 -5.70476e-151 -5.70476e-151
3.17333e-28 -7.3458e-149 -7.3458e-149
8.59727e-30 -9.28768e-147 -9.28768e-147
2.21163e-31 -1.1524e-144 -1.1524e-144
5.41791e-33 -1.40238e-142 -1.40238e-142
1.26716e-34 -1.67269e-140 -1.67269e-140
2.83595e-36 -1.95411e-138 -1.95411e-138
6.08576e-38 -2.23424e-136 -2.23424e-136
1.25452e-39 -2.49801e-134 -2.49801e-134
2.48834e-41 -2.72858e-132 -2.72858e-132
4.75636e-43 -2.90876e-130 -2.90876e-130
8.7736e-45 -3.02279e-128 -3.02279e-128
1.56379e-46 -3.05829e-126 -3.05829e-126
2.69646e-48 -3.00805e-124 -3.00805e-124
4.50302e-50 -2.87149e-122 -2.87149e-122
7.2905e-52 -2.65536e-120 -2.65536e-120
1.14544e-53 -2.37345e-118 -2.37345e-118
1.74799e-55 -2.04535e-116 -2.04535e-116
2.59313e-57 -1.69423e-114 -1.69423e-114
3.74263e-59 -1.3441e-112 -1.3441e-112
5.25921e-61 -1.01683e-110 -1.01683e-110
7.20052e-63 -7.29617e-109 -7.29617e-109
9.61165e-65 -4.93227e-107 -4.93227e-107
1.2517e-66 -3.11429e-105 -3.11429e-105
1.59122e-68 -1.81593e-103 -1.81593e-103
1.97579e-70 -9.62832e-102 -9.62832e-102
2.39754e-72 -4.5411e-100 -4.5411e-100
2.84468e-74 -1.84306e-98 -1.84306e-98
3.30187e-76 -6.09695e-97 -6.09695e-97
3.75103e-78 -1.48528e-95 -1.48528e-95
4.21802e-80 -2.08671e-94 -2.08671e-94
4.17986e-80 -3.86938e-94 -3.86938e-94
0.0196 -7.50363e-197 -1.11082e-192
0.0184819 -1.47794e-192 1.5319e-188
0.00706598 -1.59297e-189 -4.50972e-186
0.0012184 -2.41651e-187 -2.00903e-184
0.000136608 -2.24121e-185 -3.06062e-183
1.1615e-05 -1.40721e-183 4.75485e-183
4.13235e-07 -1.38504e-183 -4.84976e-176
0 0 -4.84976e-176
0 0 0
0 0 2.22488e-171
8.17494e-16 -4.19079e-169 -4.16975e-169
2.75693e-16 -6.38885e-167 -6.38886e-167
2.72336e-17 -9.48158e-165 -9.48158e-165
1.82504e-18 -1.3867e-162 -1.3867e-162
9.81307e-20 -1.9981e-160 -1.9981e-160
4.52684e-21 -2.83557e-158 -2.83557e-158
1.85479e-22 -3.96193e-156 -3.96193e-156
6.89185e-24 -5.44825e-154 -5.44825e-154
2.35457e-25 -7.37099e-152 -7.37099e-152
7.4694e-27 -9.80693e-150 -9.80693e-150
2.21647e-28 -1.28259e-147 -1.28259e-147
6.18786e-30 -1.64811e-145 -1.64811e-145
1.63285e-31 -2.07971e-143 -2.07971e-143
4.0884e-33 -2.57575e-141 -2.57575e-141
9.74491e-35 -3.12917e-139 -3.12917e-139
2.21736e-36 -3.72645e-137 -3.72645e-137
4.82829e-38 -4.34707e-135 -4.34707e-135
1.00829e-39 -4.96358e-133 -4.96358e-133
2.02323e-41 -5.54267e-131 -5.54267e-131
3.90775e-43 -6.0472e-129 -6.0472e-129
7.27626e-45 -6.43935e-127 -6.43935e-127
1.308e-46 -6.68445e-125 -6.68445e-125
2.27297e-48 -6.75529e-123 -6.75529e-123
3.82285e-50 -6.63612e-121 -6.63612e-121
6.22974e-52 -6.32582e-119 -6.32582e-119
9.84668e-54 -5.83947e-117 -5.83947e-117
1.511e-55 -5.20784e-115 -5.20784e-115
2.2531e-57 -4.47462e-113 -4.47462e-113
3.26741e-59 -3.69163e-111 -3.69163e-111
4.61186e-61 -2.91262e-109 -2.91262e-109
6.34044e-63 -2.18664e-107 -2.18664e-107
8.49646e-65 -1.55227e-105 -1.55227e-105
1.1105e-66 -1.03355e-103 -1.03355e-103
1.41655e-68 -6.3858e-102 -6.3858e-102
1.76456e-70 -3.60777e-100 -3.60777e-100
2.14771e-72 -1.82503e-98 -1.82503e-98
2.55556e-74 -8.0064e-97 -8.0064e-97
2.9743e-76 -2.88938e-95 -2.88938e-95
3.38756e-78 -7.76206e-94 -7.76206e-94
3.81865e-80 -1.21511e-92 -1.21511e-92
3.78408e-80 -2.26976e-92 -2.26976e-92
0.018 -1.72937e-195 -7.34891e-193
0.0160519 -3.67422e-190 -5.67991e-189
0.00580821 -1.39017e-187 1.17691e-185
0.000986881 -2.16529e-185 4.37861e-184
0.00011222 -2.50686e-183 5.02948e-183
1.04068e-05 -2.40968e-181 -1.48197e-181
7.74725e-07 -1.6479e-179 -1.59187e-179
2.25964e-08 -1.62405e-179 8.14394e-174
0 0 8.14396e-174
0 0 0
0 -4.89756e-168 -4.89384e-168
4.78191e-15 -7.50733e-166 -7.5073e-166
3.85071e-16 -1.12754e-163 -1.12754e-163
2.17167e-17 -1.66964e-161 -1.66964e-161
1.02065e-18 -2.4369e-159 -2.4369e-159
4.2313e-20 -3.50469e-157 -3.50469e-157
1.58963e-21 -4.96504e-155 -4.96504e-155
5.49694e-23 -6.92644e-153 -6.92644e-153
1.76762e-24 -9.51174e-151 -9.51174e-151
5.3245e-26 -1.28531e-148 -1.28531e-148
1.5108e-27 -1.70836e-146 -1.70836e-146
4.05595e-29 -2.23249e-144 -2.23249e-144
1.03399e-30 -2.86704e-142 -2.86704e-142
2.51083e-32 -3.61657e-140 -3.61657e-140
5.82292e-34 -4.4786e-138 -4.4786e-138
1.29269e-35 -5.44148e-136 -5.44148e-136
2.75273e-37 -6.48248e-134 -6.48248e-134
5.63316e-39 -7.56674e-132 -7.56674e-132
1.10963e-40 -8.64738e-130 -8.64738e-130
2.10714e-42 -9.66708e-128 -9.66708e-128
3.86279e-44 -1.05615e-125 -1.05615e-125
6.84461e-46 -1.12645e-123 -1.12645e-123
1.17367e-47 -1.17146e-121 -1.17146e-121
1.9497e-49 -1.18624e-119 -1.18624e-119
3.14088e-51 -1.16779e-117 -1.16779e-117
4.91142e-53 -1.1156e-115 -1.1156e-115
7.46137e-55 -1.032e-113 -1.032e-113
1.10217e-56 -9.22095e-112 -9.22095e-112
1.58429e-58 -7.93378e-110 -7.93378e-110
2.21767e-60 -6.54925e-108 -6.54925e-108
3.02509e-62 -5.16327e-106 -5.16327e-106
4.0239e-64 -3.86522e-104 -3.86522e-104
5.22267e-66 -2.72709e-102 -2.72709e-102
6.61811e-68 -1.7955e-100 -1.7955e-100
8.19248e-70 -1.08814e-98 -1.08814e-98
9.91223e-72 -5.95132e-97 -5.95132e-97
1.1728e-73 -2.84972e-95 -2.84972e-95
1.35765e-75 -1.13557e-93 -1.13557e-93
1.53838e-77 -3.41609e-92 -3.41609e-92
1.7256e-79 -6.07877e-91 -6.07877e-91
1.7103e-79 -1.14429e-90 -1.14429e-90
0.0148 -1.01377e-192 4.26331e-192
0.0117308 -3.63434e-188 -8.3173e-188
0.00384942 -8.50013e-186 -2.1181e-185
0.000641586 -1.37107e-183 -1.79298e-183
7.47871e-05 -1.91878e-181 -1.99237e-181
7.15145e-06 -2.4549e-179 -2.46535e-179
5.84008e-07 -2.75654e-177 -2.75781e-177
3.8621e-08 -2.29838e-175 -2.29847e-175
9.03007e-10 -2.27106e-175 -1.35189e-171
4.6883e-11 0 -2.16927e-169
2.35309e-12 -3.84494e-167 -3.8665e-167
1.13632e-13 -5.96407e-165 -5.96407e-165
5.04993e-15 -9.06887e-163 -9.06887e-163
2.07795e-16 -1.36021e-160 -1.36021e-160
7.95877e-18 -2.01181e-158 -2.01181e-158
2.85055e-19 -2.93347e-156 -2.93347e-156
9.5864e-21 -4.21568e-154 -4.21568e-154
3.03807e-22 -5.96916e-152 -5.96916e-152