# vtk DataFile Version 2.0
Tobias Weinzierl: CPU, Manycore and Cluster Computing
ASCII

DATASET STRUCTURED_POINTS
DIMENSIONS  51 11 6

ORIGIN 0 0 0 

SPACING 0.1 0.1 0.1 

POINT_DATA 3366

VECTORS velocity float
0 0 0
3.56655e-12 0 0
5.94264e-09 0 0
6.37144e-09 0 0
-1.735e-08 0 0
5.31324e-10 0 0
2.46659e-09 0 0
8.30691e-10 0 0
-9.97696e-10 0 0
-2.71141e-09 0 0
-2.34616e-09 0 0
-1.91415e-09 0 0
-4.79571e-09 0 0
-1.082e-08 0 0
-1.65693e-08 0 0
-1.95306e-08 0 0
-2.00689e-08 0 0
-1.98929e-08 0 0
-2.01823e-08 0 0
-2.11518e-08 0 0
-2.24963e-08 0 0
-2.38535e-08 0 0
-2.5001e-08 0 0
-2.58644e-08 0 0
-2.64613e-08 0 0
-2.68468e-08 0 0
-2.70813e-08 0 0
-2.72158e-08 0 0
-2.72873e-08 0 0
-2.73195e-08 0 0
-2.73236e-08 0 0
-2.73015e-08 0 0
-2.72471e-08 0 0
-2.71323e-08 0 0
-2.68858e-08 0 0
-2.64213e-08 0 0
-2.57129e-08 0 0
-2.48193e-08 0 0
-2.38328e-08 0 0
-2.28238e-08 0 0
-2.18225e-08 0 0
-2.08239e-08 0 0
-1.97986e-08 0 0
-1.87115e-08 0 0
-1.75519e-08 0 0
-1.63555e-08 0 0
-1.5203e-08 0 0
-1.41991e-08 0 0
-1.34477e-08 0 0
-1.30574e-08 0 0
0.00147801 0 0
0 3.90705e-07 0
3.67964e-12 -5.33825e-09 0
9.59121e-09 -1.09359e-08 0
1.43533e-08 -2.3445e-09 0
-1.63143e-08 -1.55445e-08 0
1.58078e-08 -2.00156e-08 0
1.49175e-08 4.91527e-09 0
7.15241e-09 1.34886e-08 0
2.88719e-09 1.41224e-08 0
-1.22191e-09 1.0459e-08 0
-3.09655e-09 5.89972e-09 0
-4.38174e-09 6.16336e-09 0
-1.02114e-08 9.87363e-09 0
-2.05781e-08 1.12192e-08 0
-2.98748e-08 8.17529e-09 0
-3.45079e-08 3.70163e-09 0
-3.60725e-08 9.31107e-10 0
-3.78179e-08 3.79493e-10 0
-4.12945e-08 9.33862e-10 0
-4.61414e-08 1.53017e-09 0
-5.12861e-08 1.74694e-09 0
-5.58512e-08 1.61413e-09 0
-5.9426e-08 1.30272e-09 0
-6.19753e-08 9.57906e-10 0
-6.36601e-08 6.59072e-10 0
-6.46982e-08 4.33776e-10 0
-6.52897e-08 2.8073e-10 0
-6.55889e-08 1.86492e-10 0
-6.57004e-08 1.34285e-10 0
-6.56848e-08 1.0739e-10 0
-6.55643e-08 9.08133e-11 0
-6.53286e-08 7.11648e-11 0
-6.49469e-08 2.4259e-11 0
-6.43495e-08 -1.01895e-10 0
-6.33613e-08 -3.56721e-10 0
-6.17361e-08 -7.13957e-10 0
-5.93588e-08 -1.06991e-09 0
-5.63477e-08 -1.33484e-09 0
-5.2935e-08 -1.49453e-09 0
-4.9322e-08 -1.58934e-09 0
-4.56309e-08 -1.66939e-09 0
-4.19194e-08 -1.77181e-09 0
-3.81903e-08 -1.91046e-09 0
-3.44149e-08 -2.0625e-09 0
-3.05996e-08 -2.16833e-09 0
-2.68493e-08 -2.15798e-09 0
-2.33695e-08 -1.98225e-09 0
-2.04222e-08 -1.62326e-09 0
-1.82504e-08 -1.07587e-09 0
-1.70675e-08 -4.13601e-10 0
0.00412303 -1.10753e-05 0
0 -2.2755e-08 0
2.11774e-12 -4.52291e-09 0
1.01705e-08 -1.61276e-08 0
2.63218e-08 -2.58802e-08 0
2.04038e-08 -5.32892e-08 0
5.0207e-08 -4.45359e-08 0
3.94651e-08 -2.05623e-09 0
2.49708e-08 3.03997e-09 0
6.01591e-09 -3.98097e-09 0
-8.69213e-09 -6.66168e-09 0
-1.49008e-08 -3.0441e-09 0
-1.43043e-08 3.23064e-09 0
-1.66296e-08 7.72114e-09 0
-2.49833e-08 9.64646e-09 0
-3.28454e-08 1.11161e-08 0
-3.59776e-08 1.31532e-08 0
-3.60632e-08 1.48247e-08 0
-3.65521e-08 1.51638e-08 0
-3.91701e-08 1.40803e-08 0
-4.35983e-08 1.20121e-08 0
-4.86341e-08 9.51275e-09 0
-5.32091e-08 7.04985e-09 0
-5.67764e-08 4.92106e-09 0
-5.92495e-08 3.25022e-09 0
-6.07944e-08 2.03464e-09 0
-6.16535e-08 1.20413e-09 0
-6.20487e-08 6.66028e-10 0
-6.21441e-08 3.30442e-10 0
-6.2042e-08 1.19881e-10 0
-6.1792e-08 -3.17445e-11 0
-6.13978e-08 -1.83786e-10 0
-6.08171e-08 -3.8701e-10 0
-5.99855e-08 -6.94286e-10 0
-5.88377e-08 -1.20775e-09 0
-5.71903e-08 -2.05639e-09 0
-5.46694e-08 -3.22379e-09 0
-5.10139e-08 -4.47676e-09 0
-4.63431e-08 -5.55528e-09 0
-4.09958e-08 -6.35065e-09 0
-3.52917e-08 -6.88731e-09 0
-2.94621e-08 -7.23036e-09 0
-2.36818e-08 -7.44147e-09 0
-1.80516e-08 -7.5654e-09 0
-1.25792e-08 -7.59379e-09 0
-7.26334e-09 -7.44052e-09 0
-2.20938e-09 -6.98163e-09 0
2.34985e-09 -6.12283e-09 0
6.11374e-09 -4.83738e-09 0
8.82677e-09 -3.1751e-09 0
1.03786e-08 -1.31544e-09 0
0.0057111 -2.75687e-05 0
0 -6.47658e-07 0
7.59555e-12 -7.41051e-09 0
1.2875e-08 -2.53345e-08 0
3.21297e-08 -4.6779e-08 0
2.13458e-08 -6.28267e-08 0
3.49297e-08 -3.3987e-08 0
2.70233e-08 -1.64769e-11 0
1.86497e-08 -4.04418e-09 0
-1.17228e-08 -1.6119e-08 0
-3.04658e-08 -2.83399e-08 0
-3.24407e-08 -3.43707e-08 0
-3.0599e-08 -3.31974e-08 0
-3.47276e-08 -2.11519e-08 0
-4.5996e-08 -1.64766e-09 0
-5.50025e-08 1.62723e-08 0
-5.63757e-08 2.64307e-08 0
-5.12219e-08 2.83918e-08 0
-4.36661e-08 2.5436e-08 0
-3.73654e-08 2.07763e-08 0
-3.38e-08 1.60347e-08 0
-3.25738e-08 1.17658e-08 0
-3.26008e-08 8.16317e-09 0
-3.29817e-08 5.30989e-09 0
-3.32566e-08 3.19847e-09 0
-3.32986e-08 1.73811e-09 0
-3.31394e-08 7.90011e-10 0
-3.28497e-08 2.0548e-10 0
-3.24848e-08 -1.50489e-10 0
-3.20677e-08 -3.90631e-10 0
-3.15929e-08 -6.0885e-10 0
-3.10332e-08 -8.93041e-10 0
-3.03236e-08 -1.32373e-09 0
-2.93694e-08 -1.96131e-09 0
-2.81389e-08 -2.91738e-09 0
-2.65428e-08 -4.41114e-09 0
-2.41091e-08 -6.50605e-09 0
-2.03343e-08 -8.84891e-09 0
-1.52974e-08 -1.09293e-08 0
-9.45666e-09 -1.24559e-08 0
-3.24278e-09 -1.33887e-08 0
3.03683e-09 -1.37994e-08 0
9.11395e-09 -1.38018e-08 0
1.48216e-08 -1.35321e-08 0
2.01835e-08 -1.30701e-08 0
2.52955e-08 -1.23563e-08 0
3.01226e-08 -1.12341e-08 0
3.44587e-08 -9.57563e-09 0
3.80193e-08 -7.35889e-09 0
4.05746e-08 -4.72193e-09 0
4.2144e-08 -2.10504e-09 0
0.00624134 -4.4662e-05 0
0 -1.2598e-06 0
3.75643e-12 -1.35804e-08 0
5.41174e-09 -3.67166e-08 0
1.09921e-08 -4.72067e-08 0
-1.7675e-09 -3.76504e-08 0
-6.24172e-12 -1.3587e-08 0
-7.56696e-11 -1.03845e-10 0
9.51653e-11 -1.04114e-10 0
-1.3853e-08 -1.5354e-08 0
-4.32436e-08 -4.35777e-08 0
-5.13784e-08 -5.87636e-08 0
-5.12434e-08 -5.35856e-08 0
-5.87013e-08 -3.0129e-08 0
-6.90172e-08 7.47175e-10 0
-7.547e-08 2.38781e-08 0
-7.50172e-08 3.29748e-08 0
-6.702e-08 3.05695e-08 0
-5.3938e-08 2.32958e-08 0
-4.02709e-08 1.60732e-08 0
-2.9406e-08 1.05084e-08 0
-2.21944e-08 6.46786e-09 0
-1.78391e-08 3.54915e-09 0
-1.52127e-08 1.50462e-09 0
-1.35053e-08 1.74638e-10 0
-1.22846e-08 -5.99196e-10 0
-1.13531e-08 -9.85004e-10 0
-1.06186e-08 -1.14018e-09 0
-1.00246e-08 -1.19677e-09 0
-9.52193e-09 -1.25918e-09 0
-9.06027e-09 -1.40966e-09 0
-8.59969e-09 -1.72922e-09 0
-8.08638e-09 -2.3129e-09 0
-7.39642e-09 -3.22356e-09 0
-6.49365e-09 -4.53664e-09 0
-5.45868e-09 -6.54699e-09 0
-3.79278e-09 -9.50756e-09 0
-5.70671e-10 -1.30177e-08 0
4.28687e-09 -1.62367e-08 0
1.0188e-08 -1.85705e-08 0
1.65728e-08 -1.98474e-08 0
2.30471e-08 -2.0145e-08 0
2.92211e-08 -1.9672e-08 0
3.48571e-08 -1.87289e-08 0
4.00511e-08 -1.75571e-08 0
4.50291e-08 -1.61672e-08 0
4.98152e-08 -1.43809e-08 0
5.41878e-08 -1.20346e-08 0
5.78398e-08 -9.1065e-09 0
6.05271e-08 -5.77602e-09 0
6.22779e-08 -2.7302e-09 0
0.0063366 -5.88243e-05 0
0 -1.13655e-06 0
-6.17315e-12 -1.49046e-08 0
-3.42398e-09 -3.17582e-08 0
-4.44066e-09 -3.69846e-08 0
-1.59839e-08 -3.8999e-08 0
-1.43464e-08 -1.8871e-08 0
-8.66734e-11 8.37247e-11 0
1.10877e-11 -1.10877e-11 0
8.97204e-11 -1.00855e-10 0
-2.29587e-08 -2.42694e-08 0
-6.11563e-08 -6.18654e-08 0
-6.35171e-08 -6.46366e-08 0
-6.61842e-08 -3.47139e-08 0
-6.81501e-08 1.80559e-09 0
-7.01488e-08 2.77423e-08 0
-7.19939e-08 3.58773e-08 0
-6.88035e-08 2.95083e-08 0
-5.79057e-08 1.78567e-08 0
-4.2744e-08 7.91387e-09 0
-2.85939e-08 1.64068e-09 0
-1.82133e-08 -1.74443e-09 0
-1.16154e-08 -3.37003e-09 0
-7.69447e-09 -3.96212e-09 0
-5.38399e-09 -3.93769e-09 0
-3.98778e-09 -3.57455e-09 0
-3.11608e-09 -3.07774e-09 0
-2.55732e-09 -2.59351e-09 0
-2.1917e-09 -2.21948e-09 0
-1.9447e-09 -2.02121e-09 0
-1.75932e-09 -2.04527e-09 0
-1.60513e-09 -2.34036e-09 0
-1.47718e-09 -3.00275e-09 0
-1.25624e-09 -4.12844e-09 0
-8.23753e-10 -5.74715e-09 0
-4.41189e-10 -8.15583e-09 0
2.34601e-10 -1.18762e-08 0
2.73965e-09 -1.66078e-08 0
7.52315e-09 -2.11482e-08 0
1.38183e-08 -2.44531e-08 0
2.08572e-08 -2.6113e-08 0
2.80525e-08 -2.62e-08 0
3.48047e-08 -2.50642e-08 0
4.08261e-08 -2.32433e-08 0
4.63534e-08 -2.12101e-08 0
5.17632e-08 -1.90846e-08 0
5.70888e-08 -1.66723e-08 0
6.20254e-08 -1.37612e-08 0
6.62029e-08 -1.03042e-08 0
6.93492e-08 -6.48079e-09 0
7.14045e-08 -3.14822e-09 0
0.00625548 -6.77349e-05 0
0 -7.86989e-07 0
-2.2805e-12 -9.60436e-09 0
-3.77451e-09 -2.43408e-08 0
-4.33404e-09 -3.1147e-08 0
-2.42854e-08 -2.94915e-08 0
-3.57118e-08 -1.61571e-08 0
-1.46101e-08 -3.07529e-09 0
-8.38368e-11 8.36338e-11 0
5.62178e-12 -5.62178e-12 0
8.05299e-11 -9.8888e-11 0
-2.80681e-08 -3.60612e-08 0
-4.59239e-08 -6.27428e-08 0
-5.27738e-08 -3.31386e-08 0
-5.07212e-08 4.75366e-09 0
-4.70349e-08 3.12369e-08 0
-4.86748e-08 3.83471e-08 0
-5.18454e-08 2.88437e-08 0
-4.87641e-08 1.33105e-08 0
-3.882e-08 6.61023e-10 0
-2.71407e-08 -6.4331e-09 0
-1.79618e-08 -9.17314e-09 0
-1.23548e-08 -9.4103e-09 0
-9.53313e-09 -8.4426e-09 0
-8.37415e-09 -7.02223e-09 0
-8.05387e-09 -5.56795e-09 0
-8.10198e-09 -4.29958e-09 0
-8.28674e-09 -3.31457e-09 0
-8.50871e-09 -2.64227e-09 0
-8.73532e-09 -2.28699e-09 0
-8.9551e-09 -2.25442e-09 0
-9.17138e-09 -2.56044e-09 0
-9.44465e-09 -3.28177e-09 0
-9.73073e-09 -4.57089e-09 0
-9.80283e-09 -6.47913e-09 0
-1.00041e-08 -9.22112e-09 0
-1.03831e-08 -1.35189e-08 0
-8.64714e-09 -1.92712e-08 0
-3.58547e-09 -2.49571e-08 0
3.73252e-09 -2.90693e-08 0
1.21977e-08 -3.09887e-08 0
2.08563e-08 -3.08163e-08 0
2.87947e-08 -2.90432e-08 0
3.57791e-08 -2.6422e-08 0
4.22717e-08 -2.36434e-08 0
4.87621e-08 -2.09368e-08 0
5.52015e-08 -1.80888e-08 0
6.11421e-08 -1.48323e-08 0
6.61458e-08 -1.10831e-08 0
6.99432e-08 -6.98672e-09 0
7.23412e-08 -3.43113e-09 0
0.00608315 -7.14859e-05 0
0 -5.52222e-07 0
3.37817e-12 -7.29575e-09 0
-1.98578e-09 -1.81818e-08 0
-6.51599e-09 -2.32139e-08 0
-2.53419e-08 -1.9789e-08 0
-4.42797e-08 -7.77138e-09 0
-3.91646e-08 -7.24559e-10 0
-2.04081e-08 -4.14548e-10 0
-9.136e-11 7.657e-11 0
7.76916e-11 7.00162e-11 0
3.41759e-12 -1.93389e-08 0
-2.92925e-08 -3.28798e-08 0
-5.14064e-08 -1.22837e-08 0
-5.17466e-08 1.38985e-08 0
-3.53664e-08 2.98099e-08 0
-2.28506e-08 3.15554e-08 0
-2.35014e-08 2.15945e-08 0
-2.87292e-08 7.46824e-09 0
-3.00898e-08 -3.73193e-09 0
-2.77703e-08 -9.57121e-09 0
-2.51971e-08 -1.11452e-08 0
-2.41714e-08 -1.03553e-08 0
-2.46161e-08 -8.6091e-09 0
-2.58199e-08 -6.7034e-09 0
-2.71942e-08 -5.02037e-09 0
-2.84353e-08 -3.70218e-09 0
-2.9449e-08 -2.76803e-09 0
-3.02504e-08 -2.18821e-09 0
-3.09006e-08 -1.92901e-09 0
-3.14667e-08 -1.98189e-09 0
-3.20071e-08 -2.36575e-09 0
-3.26342e-08 -3.13681e-09 0
-3.34147e-08 -4.46341e-09 0
-3.41011e-08 -6.50624e-09 0
-3.50003e-08 -9.42549e-09 0
-3.67073e-08 -1.3906e-08 0
-3.61551e-08 -1.98369e-08 0
-3.06318e-08 -2.53451e-08 0
-2.18865e-08 -2.88919e-08 0
-1.14644e-08 -3.03122e-08 0
-6.94488e-10 -2.99352e-08 0
9.25344e-09 -2.81688e-08 0
1.82103e-08 -2.56436e-08 0
2.67405e-08 -2.30161e-08 0
3.52398e-08 -2.05026e-08 0
4.34351e-08 -1.78439e-08 0
5.07268e-08 -1.47459e-08 0
5.6675e-08 -1.11318e-08 0
6.10941e-08 -7.14794e-09 0
6.37305e-08 -3.58345e-09 0
0.00580301 -7.24109e-05 0
0 -4.70247e-07 0
4.0914e-12 -3.93407e-09 0
-1.11043e-09 -1.07822e-08 0
-1.02234e-08 -1.53722e-08 0
-3.23443e-08 -1.39717e-08 0
-5.36726e-08 -1.90124e-09 0
-5.36954e-08 5.90303e-09 0
-4.51662e-08 -1.0424e-08 0
-2.81829e-08 -1.27806e-08 0
-2.57925e-08 1.87577e-13 0
-2.88264e-08 -3.17554e-09 0
-5.22434e-08 1.45703e-09 0
-7.27182e-08 1.5791e-08 0
-6.64471e-08 2.20085e-08 0
-3.60268e-08 1.75478e-08 0
-1.17505e-08 8.92416e-09 0
-1.18565e-08 1.15525e-09 0
-2.60572e-08 -3.83603e-09 0
-3.86965e-08 -5.92142e-09 0
-4.52582e-08 -6.05063e-09 0
-4.83115e-08 -5.33571e-09 0
-5.04798e-08 -4.4271e-09 0
-5.26506e-08 -3.55817e-09 0
-5.47766e-08 -2.79471e-09 0
-5.66514e-08 -2.16431e-09 0
-5.81773e-08 -1.6832e-09 0
-5.93711e-08 -1.35805e-09 0
-6.0311e-08 -1.19048e-09 0
-6.10982e-08 -1.18508e-09 0
-6.1836e-08 -1.36195e-09 0
-6.26252e-08 -1.76834e-09 0
-6.36104e-08 -2.46404e-09 0
-6.49365e-08 -3.56612e-09 0
-6.64802e-08 -5.30399e-09 0
-6.8558e-08 -7.85968e-09 0
-7.21881e-08 -1.15486e-08 0
-7.37841e-08 -1.58781e-08 0
-6.85267e-08 -1.876e-08 0
-5.95523e-08 -1.95388e-08 0
-4.85632e-08 -1.95556e-08 0
-3.68239e-08 -1.94667e-08 0
-2.50514e-08 -1.90343e-08 0
-1.35329e-08 -1.81121e-08 0
-2.25404e-09 -1.6939e-08 0
8.67643e-09 -1.5611e-08 0
1.86861e-08 -1.39088e-08 0
2.71432e-08 -1.16511e-08 0
3.3755e-08 -8.86411e-09 0
3.85069e-08 -5.76655e-09 0
4.11738e-08 -2.986e-09 0
0.00523709 -6.92078e-05 0
0 -4.86356e-07 0
8.43496e-12 -9.2834e-10 0
-8.13109e-10 -3.46688e-09 0
-1.28866e-08 -5.95321e-09 0
-3.60401e-08 -5.93835e-09 0
-5.77551e-08 -3.55902e-09 0
-5.94944e-08 -3.4825e-10 0
-5.20657e-08 -4.93681e-09 0
-6.00398e-08 -6.29958e-09 0
-5.68358e-08 4.14285e-09 0
-5.20329e-08 1.25077e-08 0
-5.14192e-08 1.58768e-08 0
-4.9658e-08 1.45767e-08 0
-3.71461e-08 9.49337e-09 0
-1.59458e-08 1.70101e-09 0
-5.867e-09 -6.39995e-09 0
-1.60845e-08 -1.04644e-08 0
-3.51482e-08 -8.97195e-09 0
-4.97311e-08 -4.82409e-09 0
-5.67185e-08 -1.40414e-09 0
-5.91422e-08 1.95125e-10 0
-6.00374e-08 5.09272e-10 0
-6.07549e-08 3.0781e-10 0
-6.15778e-08 3.56259e-11 0
-6.24388e-08 -1.56769e-10 0
-6.32466e-08 -2.63648e-10 0
-6.39668e-08 -3.23322e-10 0
-6.46168e-08 -3.75827e-10 0
-6.52488e-08 -4.54643e-10 0
-6.5937e-08 -5.89415e-10 0
-6.67789e-08 -8.14626e-10 0
-6.7916e-08 -1.16813e-09 0
-6.95049e-08 -1.69888e-09 0
-7.16148e-08 -2.56083e-09 0
-7.46692e-08 -3.86793e-09 0
-7.93443e-08 -5.34674e-09 0
-8.20453e-08 -6.44191e-09 0
-7.78121e-08 -6.36976e-09 0
-7.13798e-08 -5.54009e-09 0
-6.42069e-08 -5.40117e-09 0
-5.68532e-08 -6.22704e-09 0
-4.8536e-08 -7.18197e-09 0
-3.90784e-08 -7.5239e-09 0
-2.91647e-08 -7.23607e-09 0
-1.95221e-08 -6.59136e-09 0
-1.08265e-08 -5.71665e-09 0
-3.56172e-09 -4.6338e-09 0
2.11531e-09 -3.37925e-09 0
6.21609e-09 -2.09342e-09 0
8.45569e-09 -1.0842e-09 0
0.00381373 -4.73432e-05 0
0 0 0
5.66355e-12 0 0
-3.96588e-10 0 0
-6.48814e-09 0 0
-1.69911e-08 0 0
-2.69914e-08 0 0
-3.03552e-08 0 0
-2.73073e-08 0 0
-3.1865e-08 0 0
-3.10453e-08 0 0
-2.32032e-08 0 0
-1.35803e-08 0 0
-6.56902e-09 0 0
-1.62802e-09 0 0
1.60797e-09 0 0
-6.44394e-10 0 0
-8.82976e-09 0 0
-1.80627e-08 0 0
-2.4085e-08 0 0
-2.64691e-08 0 0
-2.68144e-08 0 0
-2.65399e-08 0 0
-2.62993e-08 0 0
-2.62436e-08 0 0
-2.63338e-08 0 0
-2.65028e-08 0 0
-2.67061e-08 0 0
-2.69286e-08 0 0
-2.71775e-08 0 0
-2.74777e-08 0 0
-2.78708e-08 0 0
-2.84197e-08 0 0
-2.91958e-08 0 0
-3.02814e-08 0 0
-3.19178e-08 0 0
-3.42075e-08 0 0
-3.5425e-08 0 0
-3.35781e-08 0 0
-3.13793e-08 0 0
-2.94707e-08 0 0
-2.78843e-08 0 0
-2.57421e-08 0 0
-2.26638e-08 0 0
-1.90801e-08 0 0
-1.54757e-08 0 0
-1.21672e-08 0 0
-9.34035e-09 0 0
-7.06515e-09 0 0
-5.37269e-09 0 0
-4.44694e-09 0 0
0.00139064 0 0
0 0 5.4225e-07
3.6559e-12 0 -6.0123e-10
9.62964e-09 0 4.57201e-09
1.95794e-08 0 2.56427e-08
-4.82138e-08 0 2.13864e-08
-4.45081e-09 0 1.98462e-10
3.76375e-09 0 -5.21197e-09
7.63541e-09 0 -1.00204e-08
1.28494e-08 0 -1.05765e-08
1.71552e-08 0 -9.10669e-09
2.40337e-08 0 -6.69375e-09
3.01989e-08 0 -3.71085e-09
2.76754e-08 0 -9.64609e-10
1.43196e-08 0 5.5774e-10
-3.44078e-09 0 5.38568e-10
-1.81875e-08 0 -1.99044e-10
-2.7996e-08 0 -5.66059e-10
-3.50314e-08 0 -2.63501e-10
-4.1482e-08 0 3.27609e-10
-4.79409e-08 0 7.86353e-10
-5.39857e-08 0 9.57109e-10
-5.90799e-08 0 8.92678e-10
-6.29802e-08 0 7.10243e-10
-6.57377e-08 0 5.04338e-10
-6.75604e-08 0 3.25026e-10
-6.86936e-08 0 1.8785e-10
-6.93544e-08 0 8.98088e-11
-6.97083e-08 0 2.10194e-11
-6.98684e-08 0 -2.91899e-11
-6.99024e-08 0 -6.99056e-11
-6.9839e-08 0 -1.07669e-10
-6.96761e-08 0 -1.46512e-10
-6.93872e-08 0 -1.92414e-10
-6.88934e-08 0 -2.58575e-10
-6.80052e-08 0 -3.53572e-10
-6.64722e-08 0 -4.5821e-10
-6.41749e-08 0 -5.31415e-10
-6.12126e-08 0 -5.44771e-10
-5.78007e-08 0 -5.00476e-10
-5.41371e-08 0 -4.20507e-10
-5.03492e-08 0 -3.3021e-10
-4.65005e-08 0 -2.51747e-10
-4.26036e-08 0 -2.01582e-10
-3.86448e-08 0 -1.8404e-10
-3.46434e-08 0 -1.87545e-10
-3.07092e-08 0 -1.90761e-10
-2.70481e-08 0 -1.7413e-10
-2.39262e-08 0 -1.31806e-10
-2.1611e-08 0 -6.60017e-11
-2.03662e-08 0 2.11824e-11
0.00409408 0 1.1615e-05
0.0036 -3.13753e-07 -6.46669e-08
0.0035998 -0.00136993 -1.53767e-05
0.00672574 -0.00387686 0.00010544
0.0135962 -0.00597892 -0.000620012
0.0236 -0.0143924 -0.00437685
0.0461961 -0.0131295 -0.00489172
0.0496561 -0.00179788 -0.00166262
0.049404 0.00273722 -0.000184855
0.0443961 0.0050498 0.00053326
0.0387434 0.00520937 0.000494905
0.0335783 0.0045484 0.000216692
0.0292509 0.00365492 -5.03618e-05
0.0258574 0.00272723 -0.000234994
0.0233166 0.0018849 -0.000321091
0.0214522 0.00122574 -0.000313276
0.0200869 0.000780458 -0.000241229
0.0190891 0.000508638 -0.000150043
0.018368 0.00034566 -7.43686e-05
0.0178577 0.000241216 -2.63397e-05
0.0175067 0.000168192 -2.16121e-06
0.0172726 0.000114976 6.95396e-06
0.0171213 7.66225e-05 8.50887e-06
0.0170259 5.01251e-05 7.13408e-06
0.0169665 3.29189e-05 5.1247e-06
0.0169285 2.27417e-05 3.38397e-06
0.016902 1.77784e-05 2.14088e-06
0.0168799 1.67399e-05 1.36227e-06
0.0168571 1.88493e-05 9.49611e-07
0.0168293 2.37815e-05 8.17908e-07
0.0167926 3.15975e-05 9.21885e-07
0.0167428 4.26892e-05 1.26393e-06
0.0166748 5.76948e-05 1.88174e-06
0.0165822 7.73719e-05 2.82307e-06
0.0164574 0.000102628 4.23187e-06
0.0162914 0.000134517 6.49564e-06
0.0160735 0.000173069 9.94366e-06
0.0157944 0.000215215 1.41762e-05
0.0154509 0.000254462 1.80253e-05
0.0150504 0.000283273 2.03047e-05
0.0146101 0.000296108 2.04781e-05
0.0141534 0.000291153 1.87529e-05
0.0137046 0.000270288 1.58074e-05
0.013285 0.000237886 1.24824e-05
0.0129102 0.000199094 9.49967e-06
0.0125895 0.000158264 7.23363e-06
0.012327 0.000118077 5.65513e-06
0.0121241 7.95585e-05 4.42484e-06
0.0119798 4.27225e-05 3.06073e-06
0.0118922 1.01931e-05 3.57135e-06
0.0118584 -4.49286e-06 1.67616e-05
0.0118584 -4.67966e-06 2.86631e-05
0.01 -1.42361e-07 -1.47381e-06
0.0100008 -0.00299093 -0.000588087
0.0148065 -0.0099174 -0.000767368
0.0241467 -0.0177002 -0.00131011
0.0383751 -0.0322819 -0.00339749
0.0588801 -0.0244906 -0.000807068
0.0561633 -0.00260085 0.00312918
0.0556339 0.00522196 0.00331211
0.0498667 0.0102679 0.00288195
0.0443714 0.0104637 0.00194559
0.0398557 0.00938701 0.000990446
0.0361424 0.00789946 0.000257212
0.0331641 0.00630562 -0.000250146
0.0308678 0.00482276 -0.000520395
0.0291106 0.00357559 -0.000557659
0.0277759 0.00258907 -0.000441108
0.0267857 0.00183572 -0.00027774
0.0260751 0.00127521 -0.000140314
0.0255827 0.000867243 -5.24263e-05
0.0252537 0.000576483 -7.3891e-06
0.025042 0.000374185 1.03814e-05
0.0249109 0.000237595 1.42047e-05
0.0248323 0.000148792 1.23709e-05
0.0247857 9.39129e-05 9.05436e-06
0.0247566 6.26603e-05 5.95057e-06
0.0247351 4.78092e-05 3.53399e-06
0.0247142 4.46676e-05 1.78459e-06
0.024689 5.05501e-05 5.36962e-07
0.0246548 6.43322e-05 -3.77728e-07
0.0246071 8.61141e-05 -1.08508e-06
0.0245405 0.00011701 -1.64215e-06
0.0244483 0.000158985 -2.02761e-06
0.0243215 0.000214461 -2.21913e-06
0.024149 0.000285994 -2.09383e-06
0.0239175 0.000376324 -9.28418e-07
0.0236112 0.000486241 2.22753e-06
0.0232142 0.00060935 6.85224e-06
0.022718 0.00073009 1.05723e-05
0.0221298 0.00082876 1.09813e-05
0.0214717 0.000889026 7.27711e-06
0.0207762 0.000902763 3.64921e-07
0.020079 0.000870879 -7.9004e-06
0.0194127 0.000801269 -1.54596e-05
0.0188033 0.000705331 -2.06775e-05
0.0182685 0.000594241 -2.28532e-05
0.0178184 0.00047637 -2.23152e-05
0.0174582 0.000356872 -2.00325e-05
0.0171898 0.000238769 -1.73434e-05
0.0170124 0.00012466 -1.27873e-05
0.0169277 2.93485e-05 1.26168e-05
0.0169275 -1.02704e-05 3.47195e-05
0.0148 -9.72923e-07 -1.76421e-06
0.0148024 -0.00528475 -0.00112459
0.0203292 -0.0163449 -0.0024212
0.0273639 -0.0285823 -0.00395726
0.031933 -0.045768 -0.00573606
0.0304422 -0.0282656 -0.00135458
0.0267301 -1.23635e-05 0.0032755
0.0261946 0.00713209 0.00345911
0.0298259 0.0146274 0.00331454
0.0302307 0.0141533 0.0023174
0.0294295 0.0124117 0.00133174
0.0285744 0.0105619 0.000480004
0.0278852 0.00858329 -0.000118222
0.0275263 0.00662806 -0.000428714
0.0274009 0.0049072 -0.000472094
0.0274061 0.00350271 -0.000359546
0.0274714 0.00242441 -0.000206982
0.0275517 0.00163756 -8.22427e-05
0.0276246 0.00108294 -5.55677e-06
0.0276847 0.000700487 2.96938e-05
0.0277335 0.000442055 3.85938e-05
0.0277735 0.000272317 3.46167e-05
0.0278054 0.000165501 2.64011e-05
0.0278292 0.000102665 1.82315e-05
0.0278441 7.01685e-05 1.16394e-05
0.0278495 5.87119e-05 6.79934e-06
0.0278448 6.25234e-05 3.37814e-06
0.0278286 7.86372e-05 9.46434e-07
0.027799 0.000106307 -8.59773e-07
0.027753 0.000146569 -2.30053e-06
0.0276856 0.000201965 -3.51032e-06
0.0275901 0.000276437 -4.41219e-06
0.0274571 0.000374813 -4.83718e-06
0.0272734 0.000501834 -4.64083e-06
0.027023 0.000662511 -2.62237e-06
0.0266857 0.00085994 3.52179e-06
0.026237 0.0010854 1.34076e-05
0.0256613 0.00131239 2.22121e-05
0.0249648 0.001505 2.46521e-05
0.0241764 0.00163208 1.88083e-05
0.0233387 0.00167672 6.31608e-06
0.0224976 0.00163805 -9.24307e-06
0.0216943 0.00152788 -2.38635e-05
0.0209604 0.00136501 -3.43555e-05
0.0203165 0.00116888 -3.93344e-05
0.0197744 0.000954908 -3.93823e-05
0.0193397 0.000732911 -3.61896e-05
0.0190155 0.000508598 -3.17774e-05
0.0188017 0.000286534 -2.58209e-05
0.0186996 8.13943e-05 5.15109e-06
0.0186994 -1.38723e-05 3.24128e-05
0.018 -1.96652e-06 -1.72517e-06
0.018003 -0.00694296 -0.0018854
0.0207063 -0.0187895 -0.00491274
0.0206158 -0.0246507 -0.00631877
0.0160189 -0.0267337 -0.00759083
-1.60599e-06 -0.0139392 -0.00430043
9.53852e-05 2.37677e-05 9.18979e-07
-3.08014e-05 3.22124e-05 0.00063422
0.00667321 0.00421895 0.00137603
0.0137446 0.00964259 0.0013208
0.0171968 0.010582 0.000899708
0.0189098 0.0095994 0.000342604
0.0205658 0.00787495 -0.000138359
0.0222657 0.00592638 -0.000365508
0.0238282 0.00421407 -0.00037587
0.0251636 0.00285672 -0.000277233
0.0262461 0.00186142 -0.000152786
0.0270778 0.00117868 -4.808e-05
0.0276846 0.000729461 1.91554e-05
0.0281099 0.000439074 4.99298e-05
0.0284007 0.000254061 5.51424e-05
0.0285967 0.000140268 4.72137e-05
0.0287269 7.54625e-05 3.52052e-05
0.0288112 4.42991e-05 2.39094e-05
0.0288629 3.61362e-05 1.50293e-05
0.0288908 4.41269e-05 8.65177e-06
0.0289003 6.45981e-05 4.25853e-06
0.0288944 9.64842e-05 1.24179e-06
0.0288738 0.000140878 -8.81442e-07
0.0288373 0.000200719 -2.41527e-06
0.0287811 0.000280586 -3.4943e-06
0.0286993 0.000386821 -3.86976e-06
0.0285829 0.000527357 -2.88131e-06
0.0284173 0.000709962 -1.1716e-07
0.0281831 0.000942849 6.36206e-06
0.0278542 0.00123438 2.18919e-05
0.0273923 0.00157651 4.74702e-05
0.0267675 0.00192982 7.33594e-05
0.0259854 0.00223621 8.72473e-05
0.025086 0.00244441 8.3558e-05
0.0241286 0.00252648 6.44675e-05
0.0231737 0.00248035 3.68744e-05
0.0222719 0.00232376 8.85671e-06
0.0214584 0.00208515 -1.32351e-05
0.0207533 0.00179408 -2.67177e-05
0.0201658 0.00147384 -3.26075e-05
0.0196994 0.00113927 -3.38068e-05
0.0193555 0.000798896 -3.33675e-05
0.0191323 0.00045968 -3.14596e-05
0.0190296 0.000138821 -2.80788e-06
0.0190293 -1.36695e-05 2.42071e-05
0.0196 -2.82463e-06 -2.61199e-06
0.019601 -0.00581998 -0.00274466
0.0190688 -0.0129867 -0.0064559
0.0159982 -0.0159464 -0.00666319
0.0109926 -0.0149152 -0.00668194
0.00179238 -0.00613833 -0.00501559
7.03225e-05 -6.43089e-05 -0.00128309
3.35075e-05 -3.35075e-05 -4.021e-08
-3.01518e-05 3.14511e-05 0.000239996
0.00407882 0.00295811 0.000506492
0.00940689 0.0069618 0.000433716
0.0123261 0.00729142 9.03701e-05
0.0155702 0.00559205 -0.000276457
0.0187224 0.0038016 -0.000412202
0.0214203 0.00237841 -0.000389736
0.0236051 0.00133308 -0.000302505
0.025317 0.000639743 -0.000195405
0.0266036 0.000238954 -9.3071e-05
0.0275213 3.75018e-05 -1.54095e-05
0.0281443 -5.13701e-05 2.84904e-05
0.0285518 -8.30077e-05 4.33602e-05
0.0288115 -8.52232e-05 4.08003e-05
0.0289735 -7.10771e-05 3.1349e-05
0.0290719 -4.72743e-05 2.1281e-05
0.0291293 -1.73815e-05 1.31402e-05
0.0291599 1.72819e-05 7.35756e-06
0.0291727 5.73078e-05 3.52619e-06
0.0291725 0.000104938 1.08073e-06
0.0291615 0.000163915 -4.03143e-07
0.0291395 0.000239511 -1.09197e-06
0.0291041 0.00033855 -9.52772e-07
0.0290501 0.000469775 5.52178e-07
0.0289691 0.00064465 5.07688e-06
0.0288458 0.000875224 1.40281e-05
0.0286557 0.00117405 3.06657e-05
0.0283646 0.00155854 6.6964e-05
0.0279117 0.00202669 0.000129789
0.0272405 0.00252392 0.000200671
0.0263563 0.0029611 0.000250267
0.0253203 0.00326016 0.000262014
0.0242207 0.00338079 0.000237265
0.0231411 0.00332212 0.00018975
0.0221428 0.00311143 0.000136381
0.021262 0.00278987 8.99714e-05
0.0205136 0.00239888 5.56655e-05
0.0199006 0.00197019 3.17861e-05
0.0194216 0.00152339 1.37327e-05
0.0190747 0.00106971 -2.74194e-06
0.0188558 0.000618662 -1.76675e-05
0.01876 0.000192307 -5.28642e-06
0.0187597 -1.04924e-05 1.37301e-05
0.0196 -1.35117e-06 -3.61886e-06
0.0195999 -0.00363935 -0.00311761
0.0188161 -0.007945 -0.00649122
0.0175768 -0.00789595 -0.00605412
0.0133056 -0.00405034 -0.00556477
0.00921474 0.00274803 -0.00528772
0.00618705 0.00320942 -0.00303581
7.04706e-05 -5.81472e-05 -0.000636136
2.79954e-05 -2.79954e-05 -1.28838e-07
-2.95545e-05 3.07491e-05 8.35148e-05
0.00292803 0.00222751 0.000343855
0.00739269 0.00355649 0.000269736
0.012741 0.00180289 -0.000114997
0.0174002 0.000458215 -0.000279254
0.0209795 -0.00032067 -0.000304831
0.0236104 -0.000767469 -0.000282546
0.0255123 -0.000956355 -0.000233119
0.0268482 -0.000933024 -0.000159881
0.0277393 -0.000785611 -8.31392e-05
0.0282983 -0.000604098 -2.59046e-05
0.02863 -0.000439701 4.51481e-06
0.0288176 -0.000307344 1.45835e-05
0.0289193 -0.000204564 1.4156e-05
0.028972 -0.000124259 1.02909e-05
0.0289979 -5.92586e-05 6.41006e-06
0.0290097 -3.08029e-06 3.60396e-06
0.0290143 5.03056e-05 1.94018e-06
0.0290156 0.000106847 1.21571e-06
0.0290149 0.000172832 1.31324e-06
0.0290123 0.00025547 2.42665e-06
0.0290063 0.000363433 5.03242e-06
0.0289926 0.000507377 1.01461e-05
0.0289642 0.000701776 2.09699e-05
0.0289062 0.000963892 4.13948e-05
0.0287885 0.00131171 7.73983e-05
0.0285659 0.00177457 0.000154176
0.0281464 0.00236302 0.000295676
0.0274251 0.00300533 0.000469341
0.0264072 0.00357109 0.000606312
0.0251924 0.00395146 0.000662476
0.0239174 0.00409667 0.000636258
0.0226982 0.00401235 0.000555741
0.0216057 0.00373997 0.000455604
0.0206706 0.0033357 0.00036056
0.0198962 0.00285307 0.000280196
0.0192746 0.00233107 0.000212521
0.0187979 0.00179242 0.000151353
0.0184602 0.00125017 9.16972e-05
0.0182549 0.000716808 3.46369e-05
0.0181715 0.000221596 6.56503e-06
0.0181711 -1.0982e-05 5.65035e-06
0.018 -8.71441e-07 -3.59781e-06
0.018001 -0.00197089 -0.0030399
0.0183374 -0.00375485 -0.00613762
0.0184309 -0.00246623 -0.00529323
0.0174621 0.000850179 -0.00424281
0.0172167 0.00723021 -0.00396846
0.0179462 0.0126337 -0.00292372
0.011045 0.00693509 -0.0014206
7.20113e-05 -4.42832e-05 -0.0004142
-2.25383e-05 -5.19957e-05 5.58694e-07
7.92585e-06 -0.000555678 0.00074679
0.008514 -0.00256408 0.00110346
0.0160305 -0.00425196 0.000516262
0.021122 -0.00416909 0.000243521
0.0242776 -0.00352212 0.000111902
0.0261502 -0.00289069 -8.7591e-06
0.0272237 -0.00233537 -0.000115045
0.0278042 -0.00180515 -0.000160332
0.0280815 -0.00131286 -0.000141942
0.0281817 -0.000903696 -9.57913e-05
0.02819 -0.000597277 -5.35733e-05
0.0281599 -0.000382134 -2.62758e-05
0.0281206 -0.000234748 -1.18148e-05
0.0280859 -0.00013288 -4.98782e-06
0.0280606 -5.93875e-05 -1.83203e-06
0.0280459 -1.71011e-06 -1.46458e-07
0.0280413 4.96005e-05 1.14487e-06
0.0280463 0.00010225 2.61067e-06
0.0280606 0.000163336 4.71337e-06
0.0280842 0.000240403 8.18046e-06
0.028117 0.000342545 1.42053e-05
0.0281572 0.000481164 2.46538e-05
0.0282002 0.000671893 4.46892e-05
0.0282341 0.000936152 8.25857e-05
0.0282259 0.00129766 0.000149932
0.02812 0.00179525 0.000294271
0.0277911 0.00245217 0.000573565
0.0270561 0.00317923 0.000929147
0.0259171 0.00380624 0.00121492
0.0245288 0.0042051 0.00133955
0.0230975 0.00432895 0.00130361
0.021773 0.00419826 0.0011656
0.0206262 0.00387118 0.000989565
0.019672 0.00341555 0.000816369
0.0188966 0.00289093 0.000660309
0.018281 0.0023372 0.000518679
0.017812 0.00177538 0.000383857
0.0174822 0.00121744 0.000250816
0.0172847 0.000678036 0.000123261
0.0172075 0.00019407 3.03509e-05
0.0172072 -2.71892e-05 -1.41688e-06
0.0148 -4.89322e-07 -3.18604e-06
0.0148015 -0.00100654 -0.00281422
0.0162527 -0.00154944 -0.00540626
0.0178785 0.000133887 -0.00431295
0.0192989 0.00336174 -0.00313785
0.0211206 0.00746598 -0.00290082
0.0249404 0.0129705 -0.00240143
0.0282185 0.0195547 -0.00146265
0.0231698 0.0113657 -0.000305329
0.0235995 1.20199e-10 0.000634215
0.0267606 -0.0066549 0.00156471
0.0303941 -0.0130394 0.0021172
0.0314383 -0.0110995 0.00167181
0.0309233 -0.0079106 0.00123178
0.0298278 -0.00532388 0.000805302
0.0286618 -0.00355428 0.000384719
0.0276336 -0.00237366 3.75983e-05
0.0268079 -0.0015584 -0.000155296
0.0261857 -0.0009902 -0.000196725
0.0257384 -0.000609272 -0.000156459
0.0254288 -0.000366604 -9.94473e-05
0.0252215 -0.00021647 -5.51674e-05
0.0250876 -0.000123067 -2.78663e-05
0.0250053 -6.24071e-05 -1.28802e-05
0.0249592 -1.95298e-05 -5.0071e-06
0.0249394 1.49714e-05 -6.92254e-07
0.02494 4.75203e-05 2.14995e-06
0.0249585 8.32237e-05 4.76682e-06
0.0249945 0.000126982 8.10187e-06
0.0250498 0.00018436 1.32951e-05
0.0251271 0.000262615 2.21817e-05
0.0252293 0.00037169 3.77598e-05
0.0253573 0.000525436 6.70873e-05
0.0255058 0.000745026 0.000123493
0.0256471 0.00105624 0.000228075
0.025726 0.00149096 0.000454228
0.0255966 0.00206332 0.000892312
0.0249728 0.00267807 0.00142706
0.023867 0.00318045 0.00182476
0.0224612 0.00346526 0.00196558
0.021042 0.00350258 0.0018715
0.0197641 0.00333341 0.00165381
0.0186757 0.00302023 0.0014043
0.0177716 0.00262344 0.00116836
0.0170283 0.00218961 0.000955303
0.0164262 0.00174525 0.000756637
0.0159564 0.00130189 0.00056197
0.0156158 0.000866737 0.000366964
0.0154021 0.000452843 0.00017941
0.0153102 9.66232e-05 3.25827e-05
0.01531 -6.02638e-05 -2.43336e-05
0.01 -9.34037e-07 -2.8793e-06
0.0100008 -0.000618867 -0.00229341
0.0113545 -0.000663014 -0.0041413
0.0133035 0.0006317 -0.00295401
0.0158679 0.00260843 -0.00189635
0.0198932 0.0056342 -0.00189594
0.0258424 0.00836868 -0.0023901
0.0349046 0.0101279 -0.00207993
0.0465725 0.0048646 -0.00049168
0.0463087 -0.00403274 0.00100851
0.0458003 -0.00830628 0.00164444
0.0385438 -0.00854673 0.00180687
0.0315957 -0.00591316 0.00155415
0.0264141 -0.00343554 0.00116158
0.0228961 -0.00177853 0.000749541
0.0206212 -0.000828157 0.000364329
0.0191993 -0.000332636 6.82624e-05