# vtk DataFile Version 2.0
Tobias Weinzierl: CPU, Manycore and Cluster Computing
ASCII

DATASET STRUCTURED_POINTS
DIMENSIONS  51 11 6

ORIGIN 0 0 0 

SPACING 0.1 0.1 0.1 

POINT_DATA 3366

VECTORS velocity float
0 0 0
1.63502e-08 0 0
1.17209e-08 0 0
3.89333e-09 0 0
8.41717e-10 0 0
1.35464e-10 0 0
1.75388e-11 0 0
1.90871e-12 0 0
1.79538e-13 0 0
1.4883e-14 0 0
1.10312e-15 0 0
7.39374e-17 0 0
4.52255e-18 0 0
2.54372e-19 0 0
1.32402e-20 0 0
6.41269e-22 0 0
2.90382e-23 0 0
1.2345e-24 0 0
4.94537e-26 0 0
1.87292e-27 0 0
6.7255e-29 0 0
2.29596e-30 0 0
7.46926e-32 0 0
2.32066e-33 0 0
6.89972e-35 0 0
1.96667e-36 0 0
5.3832e-38 0 0
1.41721e-39 0 0
3.59368e-41 0 0
8.78892e-43 0 0
2.07569e-44 0 0
4.73944e-46 0 0
1.04737e-47 0 0
2.24247e-49 0 0
4.65609e-51 0 0
9.38374e-53 0 0
1.83722e-54 0 0
3.49724e-56 0 0
6.47738e-58 0 0
1.16814e-59 0 0
2.05262e-61 0 0
3.51661e-63 0 0
5.8777e-65 0 0
9.58992e-67 0 0
1.52823e-68 0 0
2.37994e-70 0 0
3.62379e-72 0 0
5.39752e-74 0 0
7.86801e-76 0 0
1.13866e-77 0 0
1.62447e-75 0 0
0 -9.73536e-186 0
7.94273e-08 -1.4287e-183 0
6.08788e-08 -2.01902e-181 0
2.0168e-08 -2.43402e-179 0
4.25625e-09 -2.56456e-177 0
6.57351e-10 -2.34027e-175 0
8.22862e-11 -1.57948e-173 0
8.73053e-12 -5.51811e-175 0
8.05969e-13 -3.78545e-173 0
6.58853e-14 -4.34378e-171 0
4.83202e-15 -4.89146e-169 0
3.21238e-16 -5.41862e-167 0
1.95237e-17 -5.905e-165 0
1.09251e-18 -6.32817e-163 0
5.663e-20 -6.66628e-161 0
2.73344e-21 -6.89993e-159 0
1.23425e-22 -7.01386e-157 0
5.2346e-24 -6.9985e-155 0
2.0927e-25 -6.85103e-153 0
7.91167e-27 -6.57599e-151 0
2.83672e-28 -6.18522e-149 0
9.67123e-30 -5.69707e-147 0
3.14262e-31 -5.13499e-145 0
9.75394e-33 -4.5257e-143 0
2.89737e-34 -3.89697e-141 0
8.25181e-36 -3.27541e-139 0
2.25705e-37 -2.68454e-137 0
5.93812e-39 -2.14321e-135 0
1.50485e-40 -1.66466e-133 0
3.67835e-42 -1.25624e-131 0
8.6829e-44 -9.19733e-130 0
1.98167e-45 -6.52184e-128 0
4.37747e-47 -4.4708e-126 0
9.36876e-49 -2.95657e-124 0
1.94456e-50 -1.88162e-122 0
3.91773e-52 -1.14924e-120 0
7.66807e-54 -6.71467e-119 0
1.45924e-55 -3.7389e-117 0
2.702e-57 -1.9753e-115 0
4.87161e-59 -9.84859e-114 0
8.55826e-61 -4.60415e-112 0
1.4659e-62 -2.00205e-110 0
2.44962e-64 -8.01583e-109 0
3.99598e-66 -2.91662e-107 0
6.36677e-68 -9.47694e-106 0
9.91333e-70 -2.68385e-104 0
1.5092e-71 -6.3925e-103 0
2.24756e-73 -1.21032e-101 0
3.2758e-75 -1.64685e-100 0
4.7401e-77 -1.28631e-99 0
6.80625e-75 -2.72023e-97 0
0 -2.08026e-184 0
1.89406e-07 -3.01729e-182 0
1.6387e-07 -5.39819e-180 0
5.50608e-08 -8.33516e-178 0
1.12294e-08 -1.16606e-175 0
1.50532e-09 -1.57894e-173 0
1.72601e-10 -2.10593e-171 0
1.72807e-11 -2.18698e-173 0
1.53655e-12 -8.30442e-172 0
1.22462e-13 -9.77933e-170 0
8.82298e-15 -1.11377e-167 0
5.79051e-16 -1.24586e-165 0
3.48567e-17 -1.37113e-163 0
1.93629e-18 -1.48439e-161 0
9.97971e-20 -1.58019e-159 0
4.79533e-21 -1.65339e-157 0
2.15741e-22 -1.69962e-155 0
9.12264e-24 -1.71565e-153 0
3.6381e-25 -1.69974e-151 0
1.37259e-26 -1.65187e-149 0
4.91281e-28 -1.57381e-147 0
1.67243e-29 -1.46904e-145 0
5.42749e-31 -1.34254e-143 0
1.68269e-32 -1.20035e-141 0
4.99348e-34 -1.04913e-139 0
1.42094e-35 -8.95587e-138 0
3.88361e-37 -7.4598e-136 0
1.02105e-38 -6.05663e-134 0
2.58601e-40 -4.78757e-132 0
6.31758e-42 -3.67977e-130 0
1.49055e-43 -2.74616e-128 0
3.4003e-45 -1.98672e-126 0
7.50811e-47 -1.39081e-124 0
1.6063e-48 -9.40227e-123 0
3.33284e-50 -6.12376e-121 0
6.71255e-52 -3.8323e-119 0
1.31344e-53 -2.29722e-117 0
2.4988e-55 -1.31421e-115 0
4.6257e-57 -7.14444e-114 0
8.33796e-59 -3.6716e-112 0
1.46445e-60 -1.77249e-110 0
2.50786e-62 -7.97526e-109 0
4.18996e-64 -3.31158e-107 0
6.83363e-66 -1.25276e-105 0
1.0886e-67 -4.24385e-104 0
1.69471e-69 -1.25686e-102 0
2.5796e-71 -3.14131e-101 0
3.84104e-73 -6.26355e-100 0
5.59748e-75 -9.00654e-99 0
8.0984e-77 -7.44025e-98 0
1.16793e-74 -1.61196e-95 0
0 -5.19805e-186 0
3.12105e-07 -7.60559e-184 0
3.15289e-07 -1.09866e-181 0
1.10048e-07 -1.19541e-179 0
2.15948e-08 -8.53668e-178 0
9.83437e-10 -8.41823e-178 0
1.07854e-10 0 0
1.04589e-11 2.77508e-169 0
9.77925e-13 -1.43714e-170 0
8.09254e-14 -1.91872e-168 0
6.00203e-15 -2.23564e-166 0
4.03073e-16 -2.52862e-164 0
2.47194e-17 -2.81133e-162 0
1.39441e-18 -3.07572e-160 0
7.27984e-20 -3.30995e-158 0
3.53641e-21 -3.50234e-156 0
1.606e-22 -3.64227e-154 0
6.84645e-24 -3.72101e-152 0
2.74985e-25 -3.7326e-150 0
1.044e-26 -3.67448e-148 0
3.75758e-28 -3.54788e-146 0
1.28555e-29 -3.3579e-144 0
4.19068e-31 -3.11319e-142 0
1.3045e-32 -2.82538e-140 0
3.88541e-34 -2.50811e-138 0
1.10933e-35 -2.17596e-136 0
3.04123e-37 -1.84327e-134 0
8.01828e-39 -1.52309e-132 0
2.03603e-40 -1.22625e-130 0
4.98588e-42 -9.60758e-129 0
1.17896e-43 -7.31532e-127 0
2.69501e-45 -5.4047e-125 0
5.96216e-47 -3.86792e-123 0
1.27783e-48 -2.67608e-121 0
2.65574e-50 -1.78592e-119 0
5.35717e-52 -1.14669e-117 0
1.04977e-53 -7.06234e-116 0
1.99992e-55 -4.15758e-114 0
3.70698e-57 -2.32975e-112 0
6.69011e-59 -1.23643e-110 0
1.17638e-60 -6.17676e-109 0
2.01674e-62 -2.88251e-107 0
3.37291e-64 -1.24453e-105 0
5.50643e-66 -4.90904e-104 0
8.77992e-68 -1.73945e-102 0
1.36804e-69 -5.40741e-101 0
2.0841e-71 -1.42415e-99 0
3.10571e-73 -3.00511e-98 0
4.52933e-75 -4.5922e-97 0
6.55781e-77 -4.03803e-96 0
9.4315e-75 -8.9687e-94 0
0 -8.24754e-188 0
4.08449e-07 -1.21779e-185 0
4.76186e-07 -1.48644e-183 0
1.74616e-07 -1.27737e-181 0
3.33031e-08 -6.23181e-180 0
0 -6.10554e-180 0
0 0 0
0 0 0
6.78088e-14 -3.67035e-167 0
1.00563e-14 -2.95756e-167 0
9.94308e-16 -3.85511e-165 0
7.9752e-17 -4.44589e-163 0
5.52618e-18 -4.99515e-161 0
3.40941e-19 -5.5245e-159 0
1.90655e-20 -6.01222e-157 0
9.77982e-22 -6.43585e-155 0
4.64223e-23 -6.77372e-153 0
2.05293e-24 -7.00662e-151 0
8.50439e-26 -7.11946e-149 0
3.31516e-27 -7.10272e-147 0
1.22076e-28 -6.95358e-145 0
4.26061e-30 -6.67648e-143 0
1.41349e-31 -6.28306e-141 0
4.46911e-33 -5.79146e-139 0
1.34978e-34 -5.22491e-137 0
3.90231e-36 -4.60997e-135 0
1.08199e-37 -3.97436e-133 0
2.88213e-39 -3.3448e-131 0
7.3873e-41 -2.74503e-129 0
1.8246e-42 -2.19428e-127 0
4.34859e-44 -1.70623e-125 0
1.00131e-45 -1.28868e-123 0
2.23013e-47 -9.43856e-122 0
4.80959e-49 -6.69117e-120 0
1.0054e-50 -4.58149e-118 0
2.0391e-52 -3.02238e-116 0
4.01598e-54 -1.9155e-114 0
7.68713e-56 -1.16237e-112 0
1.4312e-57 -6.72649e-111 0
2.59373e-59 -3.6942e-109 0
4.57875e-61 -1.91412e-107 0
7.87875e-63 -9.28838e-106 0
1.32231e-64 -4.18178e-104 0
2.16589e-66 -1.72552e-102 0
3.46433e-68 -6.41883e-101 0
5.41403e-70 -2.10332e-99 0
8.27118e-72 -5.86576e-98 0
1.23588e-73 -1.31726e-96 0
1.80701e-75 -2.15342e-95 0
2.62276e-77 -2.03109e-94 0
3.71922e-75 -4.62783e-92 0
0 -2.13311e-188 0
4.56829e-07 -3.12832e-186 0
5.80889e-07 -3.39274e-184 0
2.20589e-07 -2.65709e-182 0
4.21283e-08 -1.26978e-180 0
2.57727e-09 -1.24354e-180 0
0 0 0
0 0 0
0 0 0
5.90931e-16 4.76565e-165 0
9.09832e-17 -5.1798e-164 0
9.13148e-18 -6.58706e-162 0
7.33132e-19 -7.4815e-160 0
5.03811e-20 -8.36747e-158 0
3.06342e-21 -9.2122e-156 0
1.68115e-22 -9.98013e-154 0
8.43831e-24 -1.06352e-151 0
3.91164e-25 -1.11431e-149 0
1.68712e-26 -1.14744e-147 0
6.81073e-28 -1.16068e-145 0
2.58597e-29 -1.15274e-143 0
9.27292e-31 -1.12344e-141 0
3.15139e-32 -1.07377e-139 0
1.01814e-33 -1.00587e-137 0
3.13546e-35 -9.22875e-136 0
9.22614e-37 -8.28678e-134 0
2.59952e-38 -7.27635e-132 0
7.02683e-40 -6.24216e-130 0
1.82549e-41 -5.22657e-128 0
4.5651e-43 -4.26659e-126 0
1.10054e-44 -3.39149e-124 0
2.56117e-46 -2.62149e-122 0
5.76083e-48 -1.96733e-120 0
1.25387e-49 -1.43091e-118 0
2.6437e-51 -1.00663e-116 0
5.40503e-53 -6.83348e-115 0
1.07256e-54 -4.46418e-113 0
2.0676e-56 -2.79756e-111 0
3.87519e-58 -1.67532e-109 0
7.06715e-60 -9.54317e-108 0
1.25499e-61 -5.14175e-106 0
2.17162e-63 -2.60186e-104 0
3.66408e-65 -1.22546e-102 0
6.03191e-67 -5.30908e-101 0
9.69424e-69 -2.0821e-99 0
1.52191e-70 -7.22659e-98 0
2.33514e-72 -2.14615e-96 0
3.50359e-74 -5.16354e-95 0
5.14284e-76 -9.10209e-94 0
7.49294e-78 -9.2955e-93 0
1.04234e-75 -2.1743e-90 0
0 -1.46705e-186 0
4.56671e-07 -2.13083e-184 0
5.80708e-07 -2.53795e-182 0
2.20568e-07 -2.35754e-180 0
4.26672e-08 -1.66466e-178 0
5.35918e-09 -8.11721e-177 0
2.68077e-10 -7.95307e-177 0
0 0 0
0 0 0
0 0 0
4.62056e-18 -6.66886e-163 0
1.78449e-18 -7.90024e-161 0
2.32243e-19 -9.07428e-159 0
2.07567e-20 -1.02668e-156 0
1.49103e-21 -1.14392e-154 0
9.1817e-23 -1.25471e-152 0
5.01384e-24 -1.35432e-150 0
2.47829e-25 -1.438e-148 0
1.12419e-26 -1.50134e-146 0
4.72621e-28 -1.54058e-144 0
1.85529e-29 -1.55299e-142 0
6.84041e-31 -1.53715e-140 0
2.38005e-32 -1.49308e-138 0
7.84591e-34 -1.42237e-136 0
2.45871e-35 -1.32808e-134 0
7.34575e-37 -1.21455e-132 0
2.09762e-38 -1.08706e-130 0
5.73785e-40 -9.51409e-129 0
1.5065e-41 -8.135e-127 0
3.80335e-43 -6.78854e-125 0
9.24792e-45 -5.52236e-123 0
2.16894e-46 -4.37364e-121 0
4.9132e-48 -3.36745e-119 0
1.07631e-49 -2.5164e-117 0
2.2828e-51 -1.82163e-115 0
4.69266e-53 -1.27464e-113 0
9.35894e-55 -8.59923e-112 0
1.81256e-56 -5.57654e-110 0
3.41191e-58 -3.46374e-108 0
6.24735e-60 -2.05168e-106 0
1.11358e-61 -1.15276e-104 0
1.9337e-63 -6.10262e-103 0
3.27338e-65 -3.01797e-101 0
5.40538e-67 -1.37855e-99 0
8.71254e-69 -5.72739e-98 0
1.37153e-70 -2.11753e-96 0
2.10985e-72 -6.74165e-95 0
3.17329e-74 -1.75169e-93 0
4.66876e-76 -3.36188e-92 0
6.81731e-78 -3.7613e-91 0
9.48015e-76 -9.03887e-89 0
0 -8.57504e-185 0
4.07239e-07 -1.23522e-182 0
4.74936e-07 -1.55557e-180 0
1.74243e-07 -1.62911e-178 0
3.40233e-08 -1.44428e-176 0
4.81266e-09 -1.07698e-174 0
5.06997e-10 -5.72038e-173 0
2.03638e-11 -5.61411e-173 0
0 0 0
0 0 0
0 -6.05762e-162 0
2.08405e-17 -7.19972e-160 0
2.28581e-18 -8.36484e-158 0
1.74842e-19 -9.57753e-156 0
1.11018e-20 -1.08037e-153 0
6.19598e-22 -1.20025e-151 0
3.12351e-23 -1.31283e-149 0
1.44507e-24 -1.41325e-147 0
6.20015e-26 -1.49673e-145 0
2.48576e-27 -1.55882e-143 0
9.36625e-29 -1.59585e-141 0
3.33213e-30 -1.60518e-139 0
1.12352e-31 -1.58551e-137 0
3.60198e-33 -1.53706e-135 0
1.10106e-34 -1.46162e-133 0
3.21695e-36 -1.36243e-131 0
9.00288e-38 -1.24401e-129 0
2.41803e-39 -1.1118e-127 0
6.24373e-41 -9.71748e-126 0
1.55245e-42 -8.29834e-124 0
3.7223e-44 -6.91642e-122 0
8.61801e-46 -5.61965e-120 0
1.92904e-47 -4.44523e-118 0
4.17934e-49 -3.41803e-116 0
8.77343e-51 -2.55034e-114 0
1.78631e-52 -1.84282e-112 0
3.53082e-54 -1.28649e-110 0
6.78112e-56 -8.65289e-109 0
1.26646e-57 -5.58856e-107 0
2.30186e-59 -3.45197e-105 0
4.07456e-61 -2.02907e-103 0
7.02908e-63 -1.12789e-101 0
1.18254e-64 -5.88119e-100 0
1.94132e-66 -2.84616e-98 0
3.11174e-68 -1.2598e-96 0
4.87278e-70 -4.99474e-95 0
7.45844e-72 -1.71841e-93 0
1.11645e-73 -4.86897e-92 0
1.63518e-75 -1.0297e-90 0
2.37725e-77 -1.28117e-89 0
3.37503e-75 -3.16563e-87 0
0 -3.61527e-183 0
3.05586e-07 -5.16605e-181 0
3.09442e-07 -6.765e-179 0
1.08099e-07 -7.94645e-177 0
2.14922e-08 -8.57209e-175 0
3.17395e-09 -8.50556e-173 0
3.80629e-10 -7.40889e-171 0
3.50249e-11 -4.79343e-169 0
1.1192e-12 -4.72018e-169 0
7.8762e-14 0 0
5.43827e-15 -3.69343e-161 0
3.65267e-16 -4.4398e-159 0
2.24043e-17 -5.21967e-157 0
1.26407e-18 -6.05006e-155 0
6.60109e-20 -6.91183e-153 0
3.20766e-21 -7.78061e-151 0
1.4572e-22 -8.62752e-149 0
6.21434e-24 -9.42033e-147 0
2.49691e-25 -1.01251e-144 0
9.48327e-27 -1.07084e-142 0
3.41456e-28 -1.11395e-140 0
1.16864e-29 -1.1393e-138 0
3.811e-31 -1.14508e-136 0
1.18675e-32 -1.13044e-134 0
3.53596e-34 -1.09557e-132 0
1.00991e-35 -1.04173e-130 0
2.7696e-37 -9.71209e-129 0
7.30449e-39 -8.87183e-127 0
1.85537e-40 -7.93449e-125 0
4.54485e-42 -6.94159e-123 0
1.07498e-43 -5.93497e-121 0
2.45803e-45 -4.95376e-119 0
5.43935e-47 -4.03166e-117 0
1.16608e-48 -3.19499e-115 0
2.4241e-50 -2.46155e-113 0
4.89109e-52 -1.84039e-111 0
9.58662e-54 -1.33245e-109 0
1.82676e-55 -9.31817e-108 0
3.38674e-57 -6.27541e-106 0
6.11344e-59 -4.05495e-104 0
1.0752e-60 -2.50256e-102 0
1.84362e-62 -1.4667e-100 0
3.08395e-64 -8.10264e-99 0
5.03559e-66 -4.17779e-97 0
8.03057e-68 -1.98326e-95 0
1.25149e-69 -8.49935e-94 0
1.90685e-71 -3.19072e-92 0
2.84202e-73 -9.97814e-91 0
4.14539e-75 -2.3611e-89 0
6.00281e-77 -3.33237e-88 0
8.65787e-75 -8.47338e-86 0
0 -8.31154e-182 0
1.62706e-07 -1.17801e-179 0
1.4273e-07 -1.60371e-177 0
4.80702e-08 -2.14265e-175 0
9.81416e-09 -2.82906e-173 0
1.50325e-09 -3.69088e-171 0
1.87767e-10 -4.75709e-169 0
1.9621e-11 -6.05618e-167 0
1.56881e-12 -7.61411e-165 0
1.14476e-13 -9.4519e-163 0
7.99482e-15 -1.1582e-160 0
5.12057e-16 -1.3969e-158 0
3.02317e-17 -1.66218e-156 0
1.65328e-18 -1.95083e-154 0
8.41265e-20 -2.25778e-152 0
3.9997e-21 -2.57602e-150 0
1.78354e-22 -2.89665e-148 0
7.48522e-24 -3.20917e-146 0
2.96599e-25 -3.50189e-144 0
1.11283e-26 -3.76251e-142 0
3.96399e-28 -3.9789e-140 0
1.34377e-29 -4.13991e-138 0
4.34479e-31 -4.23626e-136 0
1.34261e-32 -4.26133e-134 0
3.97265e-34 -4.21184e-132 0
1.1275e-35 -4.08823e-130 0
3.07438e-37 -3.89485e-128 0
8.06582e-39 -3.63974e-126 0
2.03888e-40 -3.33409e-124 0
4.97224e-42 -2.99149e-122 0
1.17126e-43 -2.62685e-120 0
2.668e-45 -2.25535e-118 0
5.88319e-47 -1.89133e-116 0
1.25709e-48 -1.54729e-114 0
2.60529e-50 -1.23319e-112 0
5.24163e-52 -9.55985e-111 0
1.02461e-53 -7.19487e-109 0
1.9475e-55 -5.24548e-107 0
3.60206e-57 -3.69474e-105 0
6.48759e-59 -2.50619e-103 0
1.1386e-60 -1.63051e-101 0
1.94845e-62 -1.01228e-99 0
3.25318e-64 -5.95742e-98 0
5.30245e-66 -3.2941e-96 0
8.44185e-68 -1.69033e-94 0
1.31347e-69 -7.9058e-93 0
1.99824e-71 -3.27745e-91 0
2.9739e-73 -1.14863e-89 0
4.33175e-75 -3.10281e-88 0
6.26428e-77 -5.10476e-87 0
9.08569e-75 -1.33697e-84 0
0 0 0
4.18435e-08 0 0
3.27952e-08 0 0
1.08818e-08 0 0
2.28328e-09 0 0
3.6004e-10 0 0
4.60575e-11 0 0
4.95993e-12 0 0
4.49612e-13 0 0
3.57144e-14 0 0
2.55655e-15 0 0
1.66549e-16 0 0
9.95187e-18 0 0
5.48994e-19 0 0
2.81155e-20 0 0
1.3432e-21 0 0
6.01175e-23 0 0
2.53027e-24 0 0
1.00487e-25 0 0
3.77696e-27 0 0
1.3473e-28 0 0
4.57254e-30 0 0
1.47982e-31 0 0
4.5764e-33 0 0
1.35498e-34 0 0
3.84768e-36 0 0
1.04962e-37 0 0
2.75475e-39 0 0
6.96568e-41 0 0
1.69918e-42 0 0
4.00348e-44 0 0
9.12126e-46 0 0
2.01166e-47 0 0
4.29904e-49 0 0
8.91076e-51 0 0
1.79296e-52 0 0
3.50514e-54 0 0
6.66288e-56 0 0
1.23244e-57 0 0
2.21987e-59 0 0
3.8962e-61 0 0
6.66783e-63 0 0
1.11333e-64 0 0
1.81473e-66 0 0
2.88929e-68 0 0
4.49563e-70 0 0
6.83963e-72 0 0
1.01795e-73 0 0
1.48278e-75 0 0
2.14437e-77 0 0
3.11198e-75 0 0
0 0 -2.36247e-186
7.39168e-08 0 -3.46354e-184
5.58927e-08 0 -4.70826e-182
1.845e-08 0 -5.00588e-180
3.9026e-09 0 -4.34197e-178
6.162e-10 0 -3.03761e-176
7.86857e-11 0 -1.39701e-174
8.48002e-12 0 -1.85912e-175
7.92095e-13 0 -1.81365e-173
6.53253e-14 0 -2.07377e-171
4.82324e-15 0 -2.33292e-169
3.22325e-16 0 -2.58259e-167
1.967e-17 0 -2.81255e-165
1.10429e-18 0 -3.01208e-163
5.7392e-20 0 -3.17083e-161
2.77624e-21 0 -3.27965e-159
1.25584e-22 0 -3.33141e-157
5.33425e-24 0 -3.32167e-155
2.13529e-25 0 -3.24923e-153
8.08159e-27 0 -3.11639e-151
2.90041e-28 0 -2.9289e-149
9.89658e-30 0 -2.69557e-147
3.21818e-31 0 -2.42763e-145
9.99489e-33 0 -2.13777e-143
2.97063e-34 0 -1.83919e-141
8.46477e-36 0 -1.54448e-139
2.31635e-37 0 -1.26472e-137
6.09664e-39 0 -1.00875e-135
1.5456e-40 0 -7.82765e-134
3.77921e-42 0 -5.9014e-132
8.92373e-44 0 -4.31628e-130
2.03721e-45 0 -3.05753e-128
4.50131e-47 0 -2.09377e-126
9.63607e-49 0 -1.38313e-124
2.00048e-50 0 -8.79272e-123
4.0312e-52 0 -5.3642e-121
7.89166e-54 0 -3.13049e-119
1.50205e-55 0 -1.74104e-117
2.78172e-57 0 -9.1867e-116
5.0161e-59 0 -4.57455e-114
8.81335e-61 0 -2.13577e-112
1.5098e-62 0 -9.2746e-111
2.52329e-64 0 -3.70824e-109
4.11663e-66 0 -1.34735e-107
6.55974e-68 0 -4.37151e-106
1.02149e-69 0 -1.23614e-104
1.55526e-71 0 -2.93974e-103
2.31637e-73 0 -5.55712e-102
3.37639e-75 0 -7.54938e-101
4.88607e-77 0 -5.88764e-100
7.00877e-75 0 -1.24424e-97
0.0036 -1.72503e-185 -1.5746e-185
0.00301696 -4.68112e-181 -4.99067e-181
0.00110102 -1.37626e-178 -1.3606e-178
0.000236192 -2.10251e-176 -2.00352e-176
3.67023e-05 -2.34917e-174 -2.21214e-174
4.51027e-06 -2.19514e-172 -2.05492e-172
4.68326e-07 -1.50964e-170 -1.40761e-170
4.236e-08 -5.06802e-172 -4.93277e-172
3.4007e-09 -3.48142e-170 -3.48212e-170
2.4552e-10 -4.06769e-168 -4.0678e-168
1.61025e-11 -4.66565e-166 -4.66566e-166
9.67226e-13 -5.26641e-164 -5.26641e-164
5.35743e-14 -5.85012e-162 -5.85012e-162
2.75236e-15 -6.39313e-160 -6.39313e-160
1.31815e-16 -6.87051e-158 -6.87051e-158
5.91088e-18 -7.25784e-156 -7.25784e-156
2.4915e-19 -7.5331e-154 -7.5331e-154
9.90602e-21 -7.67855e-152 -7.67855e-152
3.72665e-22 -7.68249e-150 -7.68249e-150
1.33026e-23 -7.54057e-148 -7.54057e-148
4.51706e-25 -7.25655e-146 -7.25655e-146
1.46244e-26 -6.84234e-144 -6.84234e-144
4.52397e-28 -6.31731e-142 -6.31731e-142
1.33974e-29 -5.70677e-140 -5.70677e-140
3.80496e-31 -5.04e-138 -5.04e-138
1.03806e-32 -4.34784e-136 -4.34784e-136
2.72458e-34 -3.66018e-134 -3.66018e-134
6.88954e-36 -3.00374e-132 -3.00374e-132
1.6806e-37 -2.40021e-130 -2.40021e-130
3.95963e-39 -1.86512e-128 -1.86512e-128
9.02103e-41 -1.40738e-126 -1.40738e-126
1.98946e-42 -1.02961e-124 -1.02961e-124
4.25135e-44 -7.28957e-123 -7.28957e-123
8.81136e-46 -4.98445e-121 -4.98445e-121
1.77284e-47 -3.28402e-119 -3.28402e-119
3.46557e-49 -2.07923e-117 -2.07923e-117
6.58718e-51 -1.26112e-115 -1.26112e-115
1.21835e-52 -7.30098e-114 -7.30098e-114
2.19434e-54 -4.017e-112 -4.017e-112
3.85111e-56 -2.08961e-110 -2.08961e-110
6.59022e-58 -1.02123e-108 -1.02123e-108
1.1003e-59 -4.65236e-107 -4.65236e-107
1.79337e-61 -1.95618e-105 -1.95618e-105
2.85511e-63 -7.49447e-104 -7.49447e-104
4.4422e-65 -2.57151e-102 -2.57151e-102
6.75797e-67 -7.71473e-101 -7.71473e-101
1.00575e-68 -1.95338e-99 -1.95338e-99
1.46493e-70 -3.94602e-98 -3.94602e-98
2.08928e-72 -5.74792e-97 -5.74792e-97
2.95879e-74 -4.80647e-96 -4.80647e-96
2.93844e-74 -8.50367e-96 -8.50367e-96
0.01 -1.98099e-184 -3.97971e-185
0.00818739 -2.68636e-180 5.19367e-181
0.00319872 -2.95731e-177 -2.65957e-177
0.000681078 -7.09366e-175 -6.776e-175
0.000100831 -1.08416e-172 -1.02814e-172
1.08246e-05 -1.50871e-170 -1.41574e-170
1.02881e-06 -2.05108e-168 -1.91093e-168
8.75723e-08 -2.06876e-170 -1.98247e-170
6.74599e-09 -7.7759e-169 -7.78467e-169
4.73039e-10 -9.32704e-167 -9.32848e-167
3.0371e-11 -1.08239e-164 -1.08241e-164
1.7954e-12 -1.23418e-162 -1.23418e-162
9.82337e-14 -1.38508e-160 -1.38508e-160
4.99837e-15 -1.52974e-158 -1.52974e-158
2.37545e-16 -1.66202e-156 -1.66202e-156
1.05857e-17 -1.77564e-154 -1.77564e-154
4.43907e-19 -1.86461e-152 -1.86461e-152
1.75737e-20 -1.9237e-150 -1.9237e-150
6.58732e-22 -1.9489e-148 -1.9489e-148
2.34414e-23 -1.93782e-146 -1.93782e-146
7.93866e-25 -1.89004e-144 -1.89004e-144
2.56428e-26 -1.80715e-142 -1.80715e-142
7.91645e-28 -1.69278e-140 -1.69278e-140
2.34023e-29 -1.55232e-138 -1.55232e-138
6.63596e-31 -1.39254e-136 -1.39254e-136
1.80787e-32 -1.22099e-134 -1.22099e-134
4.7391e-34 -1.04544e-132 -1.04544e-132
1.197e-35 -8.73232e-131 -8.73232e-131
2.9169e-37 -7.10762e-129 -7.10762e-129
6.86603e-39 -5.63052e-127 -5.63052e-127
1.56292e-40 -4.33519e-125 -4.33519e-125
3.4441e-42 -3.23919e-123 -3.23919e-123
7.35455e-44 -2.34468e-121 -2.34468e-121
1.5233e-45 -1.64096e-119 -1.64096e-119
3.06299e-47 -1.10792e-117 -1.10792e-117
5.98414e-49 -7.1977e-116 -7.1977e-116
1.13683e-50 -4.48592e-114 -4.48592e-114
2.10162e-52 -2.67273e-112 -2.67273e-112
3.78341e-54 -1.51597e-110 -1.51597e-110
6.63707e-56 -8.14473e-109 -8.14473e-109
1.1353e-57 -4.11955e-107 -4.11955e-107
1.89476e-59 -1.94671e-105 -1.94671e-105
3.08715e-61 -8.51202e-104 -8.51202e-104
4.91315e-63 -3.4008e-102 -3.4008e-102
7.64175e-65 -1.2207e-100 -1.2207e-100
1.16219e-66 -3.8446e-99 -3.8446e-99
1.7291e-68 -1.02595e-97 -1.02595e-97
2.51783e-70 -2.19361e-96 -2.19361e-96
3.58995e-72 -3.39634e-95 -3.39634e-95
5.08269e-74 -3.02373e-94 -3.02373e-94
5.04788e-74 -5.3884e-94 -5.3884e-94
0.0148 -7.952e-186 1.48473e-184
0.0140955 1.24423e-182 -1.67682e-180
0.00631906 -4.53979e-179 -2.6229e-177
0.00139556 -9.75651e-177 -1.19119e-174
0.000197898 -7.79901e-175 -1.50205e-172
7.18497e-06 -7.70189e-175 -1.40031e-170
6.54819e-07 0 -1.89696e-168
5.40213e-08 2.75521e-166 2.54572e-166
4.33815e-09 -1.37062e-167 -1.38146e-167
3.14209e-10 -1.86457e-165 -1.8664e-165
2.07005e-11 -2.21455e-163 -2.21476e-163
1.24962e-12 -2.55422e-161 -2.55422e-161
6.95646e-14 -2.89706e-159 -2.89706e-159
3.59128e-15 -3.23482e-157 -3.23482e-157
1.72786e-16 -3.5545e-155 -3.5545e-155
7.78151e-18 -3.84216e-153 -3.84216e-153
3.29313e-19 -4.08377e-151 -4.08377e-151
1.31418e-20 -4.26627e-149 -4.26627e-149
4.9609e-22 -4.37856e-147 -4.37856e-147
1.77644e-23 -4.41262e-145 -4.41262e-145
6.04978e-25 -4.36425e-143 -4.36425e-143
1.96397e-26 -4.23372e-141 -4.23372e-141
6.09067e-28 -4.02589e-139 -4.02589e-139
1.8079e-29 -3.75007e-137 -3.75007e-137
5.14567e-31 -3.4193e-135 -3.4193e-135
1.40666e-32 -3.04936e-133 -3.04936e-133
3.69894e-34 -2.65752e-131 -2.65752e-131
9.36972e-36 -2.26114e-129 -2.26114e-129
2.28934e-37 -1.87629e-127 -1.87629e-127
5.40211e-39 -1.51667e-125 -1.51667e-125
1.2325e-40 -1.1927e-123 -1.1927e-123
2.72176e-42 -9.11147e-122 -9.11147e-122
5.82359e-44 -6.75068e-120 -6.75068e-120
1.20844e-45 -4.84169e-118 -4.84169e-118
2.4341e-47 -3.35436e-116 -3.35436e-116
4.76322e-49 -2.23931e-114 -2.23931e-114
9.06272e-51 -1.43637e-112 -1.43637e-112
1.6778e-52 -8.82268e-111 -8.82268e-111
3.02453e-54 -5.16866e-109 -5.16866e-109
5.3126e-56 -2.87409e-107 -2.87409e-107
9.09846e-58 -1.508e-105 -1.508e-105
1.52022e-59 -7.41106e-104 -7.41106e-104
2.47959e-61 -3.37964e-102 -3.37964e-102
3.95029e-63 -1.41273e-100 -1.41273e-100
6.15015e-65 -5.32451e-99 -5.32451e-99
9.36207e-67 -1.76795e-97 -1.76795e-97
1.39412e-68 -4.99661e-96 -4.99661e-96
2.03175e-70 -1.1372e-94 -1.1372e-94
2.89922e-72 -1.88397e-93 -1.88397e-93
4.10792e-74 -1.79959e-92 -1.79959e-92
4.07971e-74 -3.2314e-92 -3.2314e-92
0.018 -1.54407e-187 3.6919e-182
0.019017 4.75914e-184 -4.15037e-178
0.00965362 -4.59481e-181 5.82129e-176
0.00224682 -1.00377e-178 -3.32777e-173
0.000309261 -5.59492e-177 -6.67217e-171
0 -5.495e-177 -6.63884e-171
0 0 0
0 0 2.54591e-166
2.68456e-10 -3.71502e-164 -3.43107e-164
3.53056e-11 -2.92949e-164 -2.95228e-164
3.13837e-12 -3.89387e-162 -3.89675e-162
2.28522e-13 -4.58115e-160 -4.58115e-160
1.44904e-14 -5.25318e-158 -5.25318e-158
8.23661e-16 -5.93227e-156 -5.93227e-156
4.26848e-17 -6.59511e-154 -6.59511e-154
2.03952e-18 -7.21551e-152 -7.21551e-152
9.05829e-20 -7.76581e-150 -7.76581e-150
3.76307e-21 -8.21867e-148 -8.21867e-148
1.46961e-22 -8.5491e-146 -8.5491e-146
5.41789e-24 -8.73653e-144 -8.73653e-144
1.89221e-25 -8.76672e-142 -8.76672e-142
6.27978e-27 -8.63334e-140 -8.63334e-140
1.98576e-28 -8.33893e-138 -8.33893e-138
5.99718e-30 -7.89506e-136 -7.89506e-136
1.73355e-31 -7.32176e-134 -7.32176e-134
4.80542e-33 -6.64608e-132 -6.64608e-132
1.27965e-34 -5.89996e-130 -5.89996e-130
3.2788e-36 -5.11769e-128 -5.11769e-128
8.09543e-38 -4.33321e-126 -4.33321e-126
1.92866e-39 -3.57748e-124 -3.57748e-124
4.43921e-41 -2.87636e-122 -2.87636e-122
9.88326e-43 -2.24911e-120 -2.24911e-120
2.13064e-44 -1.70766e-118 -1.70766e-118
4.45223e-46 -1.25676e-116 -1.25676e-116
9.02641e-48 -8.94708e-115 -8.94708e-115
1.7771e-49 -6.14722e-113 -6.14722e-113
3.40042e-51 -4.06502e-111 -4.06502e-111
6.3288e-53 -2.57895e-109 -2.57895e-109
1.14658e-54 -1.56373e-107 -1.56373e-107
2.02344e-56 -9.02025e-106 -9.02025e-106
3.48073e-58 -4.92219e-104 -4.92219e-104
5.8401e-60 -2.52298e-102 -2.52298e-102
9.56322e-62 -1.20384e-100 -1.20384e-100
1.52923e-63 -5.2844e-99 -5.2844e-99
2.38927e-65 -2.10011e-97 -2.10011e-97
3.64928e-67 -7.38743e-96 -7.38743e-96
5.45153e-69 -2.22377e-94 -2.22377e-94
7.96904e-71 -5.42346e-93 -5.42346e-93
1.14043e-72 -9.69055e-92 -9.69055e-92
1.6204e-74 -1.00254e-90 -1.00254e-90
1.60911e-74 -1.81464e-90 -1.81464e-90
0.0196 -3.89341e-188 -2.76613e-182
0.0217215 1.04856e-184 2.51756e-178
0.0118413 -1.1796e-181 -2.55703e-176
0.00286022 -2.12922e-179 -3.44362e-174
0.000392229 -1.15481e-177 -1.03372e-172
1.91738e-05 -1.13364e-177 9.26861e-169
0 0 9.26961e-169
0 0 0
0 0 -3.42976e-164
1.88524e-12 4.92087e-162 4.51035e-162
2.62823e-13 -5.33693e-161 -5.37508e-161
2.41169e-14 -6.92665e-159 -6.92666e-159
1.78276e-15 -8.03295e-157 -8.03295e-157
1.13473e-16 -9.17784e-155 -9.17784e-155
6.42387e-18 -1.03272e-152 -1.03272e-152
3.29715e-19 -1.14408e-150 -1.14408e-150
1.5541e-20 -1.24738e-148 -1.24738e-148
6.78943e-22 -1.33795e-146 -1.33795e-146
2.76865e-23 -1.41126e-144 -1.41126e-144
1.0598e-24 -1.4632e-142 -1.4632e-142
3.82556e-26 -1.49048e-140 -1.49048e-140
1.30727e-27 -1.49091e-138 -1.49091e-138
4.24298e-29 -1.46367e-136 -1.46367e-136
1.31178e-30 -1.40944e-134 -1.40944e-134
3.87283e-32 -1.33039e-132 -1.33039e-132
1.09434e-33 -1.23009e-130 -1.23009e-130
2.96557e-35 -1.11324e-128 -1.11324e-128
7.72115e-37 -9.85303e-127 -9.85303e-127
1.93461e-38 -8.52074e-125 -8.52074e-125
4.67192e-40 -7.19225e-123 -7.19225e-123
1.08891e-41 -5.91881e-121 -5.91881e-121
2.45266e-43 -4.74272e-119 -4.74272e-119
5.34495e-45 -3.695e-117 -3.695e-117
1.12821e-46 -2.79433e-115 -2.79433e-115
2.30897e-48 -2.04738e-113 -2.04738e-113
4.58614e-50 -1.45019e-111 -1.45019e-111
8.84838e-52 -9.90496e-110 -9.90496e-110
1.65971e-53 -6.5039e-108 -6.5039e-108
3.02901e-55 -4.091e-106 -4.091e-106
5.38257e-57 -2.45432e-104 -2.45432e-104
9.31979e-59 -1.39687e-102 -1.39687e-102
1.57341e-60 -7.49195e-101 -7.49195e-101
2.59161e-62 -3.75418e-99 -3.75418e-99
4.16728e-64 -1.73783e-97 -1.73783e-97
6.54542e-66 -7.31794e-96 -7.31794e-96
1.00476e-67 -2.74263e-94 -2.74263e-94
1.50817e-69 -8.85236e-93 -8.85236e-93
2.21471e-71 -2.33207e-91 -2.33207e-91
3.18325e-73 -4.53783e-90 -4.53783e-90
4.54204e-75 -5.14462e-89 -5.14462e-89
4.50979e-75 -9.39081e-89 -9.39081e-89
0.0196 -1.80863e-186 -2.80649e-182
0.0217201 -6.79813e-183 2.56296e-178
0.0118397 -1.20728e-179 -2.63566e-176
0.00285996 -1.97453e-177 -2.89427e-174
0.000395495 -1.54259e-175 -4.88105e-173
3.91962e-05 -7.72819e-174 2.66275e-173
1.62188e-06 -7.57589e-174 -1.25303e-166
0 0 -1.25303e-166
0 0 0
0 0 4.53809e-162
1.22941e-14 -7.014e-160 -6.97186e-160
4.57184e-15 -8.48141e-158 -8.48144e-158
5.53543e-16 -9.95173e-156 -9.95173e-156
4.60557e-17 -1.15079e-153 -1.15079e-153
3.08992e-18 -1.31116e-151 -1.31116e-151
1.78354e-19 -1.47143e-149 -1.47143e-149
9.16078e-21 -1.62592e-147 -1.62592e-147
4.2728e-22 -1.76839e-145 -1.76839e-145
1.83434e-23 -1.8924e-143 -1.8924e-143
7.31829e-25 -1.99169e-141 -1.99169e-141
2.733e-26 -2.06071e-139 -2.06071e-139
9.60778e-28 -2.09505e-137 -2.09505e-137
3.19408e-29 -2.09186e-135 -2.09186e-135
1.00798e-30 -2.0502e-133 -2.0502e-133
3.02926e-32 -1.97118e-131 -1.97118e-131
8.69351e-34 -1.85799e-129 -1.85799e-129
2.38822e-35 -1.71569e-127 -1.71569e-127
6.29358e-37 -1.5509e-125 -1.5509e-125
1.594e-38 -1.3712e-123 -1.3712e-123
3.88678e-40 -1.18462e-121 -1.18462e-121
9.13842e-42 -9.99003e-120 -9.99003e-120
2.07465e-43 -8.21384e-118 -8.21384e-118
4.55376e-45 -6.57564e-116 -6.57564e-116
9.6753e-47 -5.1178e-114 -5.1178e-114
1.99207e-48 -3.86567e-112 -3.86567e-112
3.97865e-50 -2.82806e-110 -2.82806e-110
7.71557e-52 -1.99918e-108 -1.99918e-108
1.45408e-53 -1.36177e-106 -1.36177e-106
2.66538e-55 -8.90849e-105 -8.90849e-105
4.75575e-57 -5.57434e-103 -5.57434e-103
8.26584e-59 -3.31977e-101 -3.31977e-101
1.40044e-60 -1.86992e-99 -1.86992e-99
2.3144e-62 -9.88177e-98 -9.88177e-98
3.73317e-64 -4.84735e-96 -4.84735e-96
5.88081e-66 -2.17512e-94 -2.17512e-94
9.05236e-68 -8.74365e-93 -8.74365e-93
1.36233e-69 -3.05041e-91 -3.05041e-91
2.00549e-71 -8.7652e-90 -8.7652e-90
2.88926e-73 -1.87986e-88 -1.87986e-88
4.1318e-75 -2.37089e-87 -2.37089e-87
4.10245e-75 -4.36641e-87 -4.36641e-87
0.018 -5.42256e-185 4.64608e-182
0.0190033 -2.70146e-180 -5.61494e-178
0.00964142 -9.97745e-178 9.26624e-176
0.00224372 -1.43946e-175 6.30841e-174
0.000313564 -1.3671e-173 9.8578e-173
3.45243e-05 -1.04481e-171 1.88652e-172
3.02641e-06 -5.65893e-170 -5.00773e-170
1.0372e-07 -5.5558e-170 1.6688e-164
0 0 1.6688e-164
0 0 0
0 -6.50296e-159 -6.49581e-159
5.97673e-14 -7.89422e-157 -7.89415e-157
6.00391e-15 -9.37402e-155 -9.37402e-155
4.23332e-16 -1.09754e-152 -1.09754e-152
2.49185e-17 -1.2667e-150 -1.2667e-150
1.29567e-18 -1.44065e-148 -1.44065e-148
6.11214e-20 -1.61412e-146 -1.61412e-146
2.65649e-21 -1.781e-144 -1.781e-144
1.07452e-22 -1.93461e-142 -1.93461e-142
4.07409e-24 -2.06803e-140 -2.06803e-140
1.4559e-25 -2.17462e-138 -2.17462e-138
4.92499e-27 -2.24847e-136 -2.24847e-136
1.58271e-28 -2.2849e-134 -2.2849e-134
4.84651e-30 -2.28092e-132 -2.28092e-132
1.41782e-31 -2.23552e-130 -2.23552e-130
3.97157e-33 -2.14991e-128 -2.14991e-128
1.06741e-34 -2.0275e-126 -2.0275e-126
2.75752e-36 -1.87367e-124 -1.87367e-124
6.85847e-38 -1.69545e-122 -1.69545e-122
1.64477e-39 -1.50094e-120 -1.50094e-120
3.80844e-41 -1.29873e-118 -1.29873e-118
8.52501e-43 -1.0972e-116 -1.0972e-116
1.84694e-44 -9.0394e-115 -9.0394e-115
3.87692e-46 -7.25253e-113 -7.25253e-113
7.89284e-48 -5.65785e-111 -5.65785e-111
1.55991e-49 -4.28386e-109 -4.28386e-109
2.99547e-51 -3.14135e-107 -3.14135e-107
5.59355e-53 -2.22537e-105 -2.22537e-105
1.0165e-54 -1.51837e-103 -1.51837e-103
1.79902e-56 -9.94148e-102 -9.94148e-102
3.10299e-58 -6.21787e-100 -6.21787e-100
5.21941e-60 -3.69363e-98 -3.69363e-98
8.56703e-62 -2.06852e-96 -2.06852e-96
1.37298e-63 -1.08134e-94 -1.08134e-94
2.14963e-65 -5.20527e-93 -5.20527e-93
3.28976e-67 -2.26235e-91 -2.26235e-91
4.92364e-69 -8.61445e-90 -8.61445e-90
7.21012e-71 -2.73273e-88 -2.73273e-88
1.03356e-72 -6.55959e-87 -6.55959e-87
1.47092e-74 -9.38777e-86 -9.38777e-86
1.46069e-74 -1.74526e-85 -1.74526e-85
0.0148 -8.46508e-183 9.19942e-183
0.0139945 -2.74957e-178 -1.18931e-178
0.00625128 -5.45711e-176 -1.7711e-175
0.00137852 -7.38333e-174 -1.28923e-173
0.000196927 -8.29549e-172 -9.25546e-172
2.26592e-05 -8.41316e-170 -8.5378e-170
2.23405e-06 -7.4745e-168 -7.48828e-168
1.76693e-07 -4.93276e-166 -4.93368e-166
4.91955e-09 -4.85885e-166 -2.19716e-162
3.08591e-10 0 -2.79781e-160
1.90484e-11 -4.04896e-158 -4.07671e-158
1.14868e-12 -4.97364e-156 -4.97364e-156
6.38903e-14 -5.97935e-154 -5.97935e-154
3.29611e-15 -7.09099e-152 -7.09099e-152
1.58501e-16 -8.29322e-150 -8.29322e-150
7.13539e-18 -9.56285e-148 -9.56285e-148
3.01882e-19 -1.08687e-145 -1.08687e-145
1.20446e-20 -1.2172e-143 -1.2172e-143
4.5461e-22 -1.34279e-141 -1.34279e-141
1.62777e-23 -1.4587e-139 -1.4587e-139
5.54322e-25 -1.55984e-137 -1.55984e-137