# vtk DataFile Version 2.0
Tobias Weinzierl: CPU, Manycore and Cluster Computing
ASCII

DATASET STRUCTURED_POINTS
DIMENSIONS  51 11 6

ORIGIN 0 0 0 

SPACING 0.1 0.1 0.1 

POINT_DATA 3366

VECTORS velocity float
0 0 0
1.02786e-08 0 0
1.94517e-08 0 0
1.66907e-08 0 0
7.8188e-09 0 0
2.27902e-09 0 0
5.03799e-10 0 0
9.31585e-11 0 0
1.51244e-11 0 0
2.21087e-12 0 0
2.95146e-13 0 0
3.63025e-14 0 0
4.13933e-15 0 0
4.39626e-16 0 0
4.36636e-17 0 0
4.06969e-18 0 0
3.57092e-19 0 0
2.95827e-20 0 0
2.32005e-21 0 0
1.72678e-22 0 0
1.22252e-23 0 0
8.25055e-25 0 0
5.31839e-26 0 0
3.28057e-27 0 0
1.93971e-28 0 0
1.10113e-29 0 0
6.01041e-31 0 0
3.15894e-32 0 0
1.60073e-33 0 0
7.83006e-35 0 0
3.70156e-36 0 0
1.69295e-37 0 0
7.49875e-39 0 0
3.21984e-40 0 0
1.34144e-41 0 0
5.42722e-43 0 0
2.13403e-44 0 0
8.16161e-46 0 0
3.03822e-47 0 0
1.10162e-48 0 0
3.89316e-50 0 0
1.34184e-51 0 0
4.51321e-53 0 0
1.4822e-54 0 0
4.75555e-56 0 0
1.4914e-57 0 0
4.57406e-59 0 0
1.37256e-60 0 0
4.03175e-62 0 0
1.19239e-63 0 0
3.60842e-61 0 0
0 -9.79369e-156 0
3.52498e-08 -6.80237e-154 0
8.35848e-08 -5.42636e-152 0
8.34931e-08 -4.00623e-150 0
4.14933e-08 -2.46985e-148 0
1.13186e-08 -1.19749e-146 0
2.32375e-09 -4.05785e-145 0
4.0414e-10 -8.51033e-146 0
6.26369e-11 -4.32992e-144 0
8.84872e-12 -2.47369e-142 0
1.15225e-12 -1.38712e-140 0
1.39182e-13 -7.65378e-139 0
1.56614e-14 -4.15568e-137 0
1.64723e-15 -2.21954e-135 0
1.62422e-16 -1.16563e-133 0
1.50564e-17 -6.01658e-132 0
1.31566e-18 -3.05091e-130 0
1.08648e-19 -1.5191e-128 0
8.49986e-21 -7.4233e-127 0
6.31412e-22 -3.55807e-125 0
4.46344e-23 -1.67178e-123 0
3.00863e-24 -7.69505e-122 0
1.9375e-25 -3.46742e-120 0
1.19418e-26 -1.52839e-118 0
7.05637e-28 -6.5848e-117 0
4.00367e-29 -2.77038e-115 0
2.18444e-30 -1.13711e-113 0
1.1477e-31 -4.54843e-112 0
5.81407e-33 -1.77094e-110 0
2.84333e-34 -6.70287e-109 0
1.34389e-35 -2.46262e-107 0
6.14549e-37 -8.76807e-106 0
2.72173e-38 -3.01983e-104 0
1.16854e-39 -1.00399e-102 0
4.86797e-41 -3.21448e-101 0
1.96935e-42 -9.88431e-100 0
7.74327e-44 -2.90979e-98 0
2.9613e-45 -8.17052e-97 0
1.10233e-46 -2.17878e-95 0
3.99685e-48 -5.48879e-94 0
1.41248e-49 -1.29802e-92 0
4.86828e-51 -2.859e-91 0
1.63742e-52 -5.80747e-90 0
5.37752e-54 -1.07415e-88 0
1.72536e-55 -1.77869e-87 0
5.41097e-57 -2.57612e-86 0
1.65954e-58 -3.15498e-85 0
4.97995e-60 -3.10062e-84 0
1.46283e-61 -2.23484e-83 0
4.32639e-63 -9.83836e-83 0
1.31208e-60 -3.98132e-80 0
0 -8.97575e-155 0
4.47824e-08 -6.15831e-153 0
1.60385e-07 -6.12618e-151 0
2.17186e-07 -6.14608e-149 0
1.24804e-07 -5.42892e-147 0
2.79948e-08 -4.02618e-145 0
4.96891e-09 -2.68852e-143 0
7.76163e-10 -1.10672e-144 0
1.11898e-10 -4.76601e-143 0
1.50547e-11 -2.79493e-141 0
1.89709e-12 -1.5853e-139 0
2.24168e-13 -8.8337e-138 0
2.48563e-14 -4.84429e-136 0
2.5888e-15 -2.61402e-134 0
2.53605e-16 -1.38743e-132 0
2.34081e-17 -7.24032e-131 0
2.03975e-18 -3.71325e-129 0
1.68147e-19 -1.87067e-127 0
1.31408e-20 -9.25276e-126 0
9.7562e-22 -4.49097e-124 0
6.89515e-23 -2.13774e-122 0
4.64786e-24 -9.9734e-121 0
2.9937e-25 -4.55739e-119 0
1.84572e-26 -2.03826e-117 0
1.09104e-27 -8.91512e-116 0
6.19305e-29 -3.81021e-114 0
3.38055e-30 -1.5897e-112 0
1.77698e-31 -6.46814e-111 0
9.00631e-33 -2.56357e-109 0
4.40663e-34 -9.88472e-108 0
2.08379e-35 -3.70278e-106 0
9.53355e-37 -1.3454e-104 0
4.22423e-38 -4.73332e-103 0
1.81445e-39 -1.60916e-101 0
7.5621e-41 -5.27418e-100 0
3.0606e-42 -1.66223e-98 0
1.2039e-43 -5.02197e-97 0
4.60599e-45 -1.44927e-95 0
1.71524e-46 -3.97809e-94 0
6.22148e-48 -1.03332e-92 0
2.19946e-49 -2.52427e-91 0
7.5834e-51 -5.75507e-90 0
2.55151e-52 -1.21275e-88 0
8.38227e-54 -2.33272e-87 0
2.69027e-55 -4.02788e-86 0
8.43967e-57 -6.10086e-85 0
2.58921e-58 -7.8383e-84 0
7.77191e-60 -8.1061e-83 0
2.28358e-61 -6.1622e-82 0
6.75565e-63 -2.85475e-81 0
2.0507e-60 -1.18846e-78 0
0 -4.09821e-156 0
2.4779e-08 -2.83977e-154 0
1.75071e-07 -2.21022e-152 0
3.77151e-07 -1.59155e-150 0
2.75712e-07 -7.81519e-149 0
1.89552e-08 -7.65822e-149 0
3.14896e-09 0 0
4.65181e-10 1.76492e-141 0
7.19842e-11 -4.12278e-142 0
1.02063e-11 -2.74298e-140 0
1.33956e-12 -1.59222e-138 0
1.63518e-13 -8.97269e-137 0
1.86179e-14 -4.97169e-135 0
1.98202e-15 -2.71158e-133 0
1.97762e-16 -1.45518e-131 0
1.85403e-17 -7.68095e-130 0
1.63728e-18 -3.98597e-128 0
1.36537e-19 -2.03272e-126 0
1.07786e-20 -1.01821e-124 0
8.07364e-22 -5.00718e-123 0
5.75098e-23 -2.41603e-121 0
3.90383e-24 -1.14317e-119 0
2.5303e-25 -5.30071e-118 0
1.56888e-26 -2.40701e-116 0
9.32163e-28 -1.06957e-114 0
5.31597e-29 -4.64706e-113 0
2.91419e-30 -1.97238e-111 0
1.53784e-31 -8.16993e-110 0
7.82242e-33 -3.29905e-108 0
3.84012e-34 -1.29712e-106 0
1.82151e-35 -4.9591e-105 0
8.35747e-37 -1.84081e-103 0
3.713e-38 -6.62302e-102 0
1.59884e-39 -2.30521e-100 0
6.67901e-41 -7.7449e-99 0
2.70909e-42 -2.50536e-97 0
1.06782e-43 -7.78029e-96 0
4.09325e-45 -2.31148e-94 0
1.52707e-46 -6.5429e-93 0
5.54849e-48 -1.75589e-91 0
1.96473e-49 -4.44074e-90 0
6.7845e-51 -1.05053e-88 0
2.28604e-52 -2.30276e-87 0
7.52057e-54 -4.62017e-86 0
2.41689e-55 -8.34674e-85 0
7.59156e-57 -1.32719e-83 0
2.3318e-58 -1.79657e-82 0
7.00724e-60 -1.9648e-81 0
2.06114e-61 -1.58424e-80 0
6.10412e-63 -7.77138e-80 0
1.8455e-60 -3.33179e-77 0
0 -1.20965e-157 0
5.03337e-09 -8.46551e-156 0
1.21669e-07 -5.48193e-154 0
4.74478e-07 -3.09607e-152 0
4.55716e-07 -1.12953e-150 0
0 -1.09911e-150 0
0 0 0
0 0 0
7.59893e-12 -1.18546e-139 0
1.97877e-12 -2.11665e-139 0
3.48631e-13 -1.37562e-137 0
5.09241e-14 -7.90657e-136 0
6.54806e-15 -4.42787e-134 0
7.61148e-16 -2.44168e-132 0
8.11652e-17 -1.32532e-130 0
8.01531e-18 -7.0782e-129 0
7.38019e-19 -3.71813e-127 0
6.36932e-20 -1.92017e-125 0
5.17439e-21 -9.74472e-124 0
3.97139e-22 -4.85739e-122 0
2.88875e-23 -2.37691e-120 0
1.99695e-24 -1.14118e-118 0
1.3152e-25 -5.37232e-117 0
8.27097e-27 -2.47829e-115 0
4.9767e-28 -1.11948e-113 0
2.87047e-29 -4.94778e-112 0
1.58976e-30 -2.13781e-110 0
8.46759e-32 -9.02166e-109 0
4.34377e-33 -3.71459e-107 0
2.14902e-34 -1.49055e-105 0
1.02665e-35 -5.82151e-104 0
4.74157e-37 -2.20983e-102 0
2.11942e-38 -8.13982e-101 0
9.17803e-40 -2.90406e-99 0
3.85426e-41 -1.00143e-97 0
1.57103e-42 -3.32971e-96 0
6.22086e-44 -1.06449e-94 0
2.39492e-45 -3.26129e-93 0
8.97094e-47 -9.53756e-92 0
3.27194e-48 -2.64988e-90 0
1.16276e-49 -6.95407e-89 0
4.02881e-51 -1.71136e-87 0
1.36187e-52 -3.91337e-86 0
4.49386e-54 -8.21654e-85 0
1.44836e-55 -1.55881e-83 0
4.56181e-57 -2.61303e-82 0
1.40484e-58 -3.7449e-81 0
4.23213e-60 -4.35561e-80 0
1.2478e-61 -3.74952e-79 0
3.70394e-63 -1.96198e-78 0
1.10713e-60 -8.67162e-76 0
0 -2.39281e-158 0
2.77506e-10 -1.67388e-156 0
7.13175e-08 -9.07333e-155 0
4.92823e-07 -4.44016e-153 0
5.93748e-07 -1.49135e-151 0
1.00929e-07 -1.44784e-151 0
0 0 0
0 0 0
0 0 0
1.8934e-13 7.635e-138 0
5.37286e-14 -9.27324e-137 0
1.00092e-14 -5.88287e-135 0
1.51284e-15 -3.33092e-133 0
1.9807e-16 -1.85767e-131 0
2.31647e-17 -1.02019e-129 0
2.4636e-18 -5.51492e-128 0
2.41092e-19 -2.9335e-126 0
2.1896e-20 -1.53477e-124 0
1.85762e-21 -7.89451e-123 0
1.47991e-22 -3.99054e-121 0
1.11193e-23 -1.98129e-119 0
7.90826e-25 -9.65708e-118 0
5.34098e-26 -4.61823e-116 0
3.43481e-27 -2.16555e-114 0
2.10861e-28 -9.95018e-113 0
1.23837e-29 -4.47659e-111 0
6.97164e-31 -1.97046e-109 0
3.769e-32 -8.47836e-108 0
1.95991e-33 -3.5625e-106 0
9.81801e-35 -1.46026e-104 0
4.74448e-36 -5.83194e-103 0
2.21457e-37 -2.26631e-101 0
9.9964e-39 -8.55632e-100 0
4.36851e-40 -3.13302e-98 0
1.85015e-41 -1.11042e-96 0
7.6013e-43 -3.80072e-95 0
3.03228e-44 -1.25296e-93 0
1.1755e-45 -3.96588e-92 0
4.43201e-47 -1.20072e-90 0
1.62641e-48 -3.46165e-89 0
5.81335e-50 -9.45046e-88 0
2.02527e-51 -2.4263e-86 0
6.88147e-53 -5.80667e-85 0
2.28185e-54 -1.28052e-83 0
7.3885e-56 -2.56191e-82 0
2.33738e-57 -4.54942e-81 0
7.22829e-59 -6.94219e-80 0
2.18623e-60 -8.64423e-79 0
6.47039e-62 -8.00739e-78 0
1.9278e-63 -4.51004e-77 0
5.67006e-61 -2.05735e-74 0
0 -8.5681e-157 0
1.37419e-10 -5.93358e-155 0
7.10643e-08 -3.54185e-153 0
4.92264e-07 -2.02302e-151 0
6.11483e-07 -9.19803e-150 0
2.14588e-07 -2.51783e-148 0
1.81517e-08 -2.42784e-148 0
0 0 0
0 0 0
0 0 0
4.67668e-15 -5.92265e-136 0
2.63384e-15 -3.55378e-134 0
6.01329e-16 -2.03532e-132 0
9.82284e-17 -1.14835e-130 0
1.31799e-17 -6.38264e-129 0
1.53816e-18 -3.49352e-127 0
1.60887e-19 -1.88239e-125 0
1.53572e-20 -9.98108e-124 0
1.35394e-21 -5.20583e-122 0
1.11203e-22 -2.66969e-120 0
8.56437e-24 -1.34552e-118 0
6.21667e-25 -6.6614e-117 0
4.27093e-26 -3.23782e-115 0
2.78683e-27 -1.54419e-113 0
1.73228e-28 -7.22174e-112 0
1.02842e-29 -3.3096e-110 0
5.84475e-31 -1.48518e-108 0
3.18628e-32 -6.52075e-107 0
1.66923e-33 -2.79858e-105 0
8.41748e-35 -1.1729e-103 0
4.092e-36 -4.79496e-102 0
1.92032e-37 -1.90968e-100 0
8.71067e-39 -7.39901e-99 0
3.82364e-40 -2.78433e-97 0
1.62601e-41 -1.01578e-95 0
6.70549e-43 -3.58489e-94 0
2.68418e-44 -1.22087e-92 0
1.04388e-45 -4.00032e-91 0
3.94743e-47 -1.25668e-89 0
1.45258e-48 -3.76881e-88 0
5.20534e-50 -1.07339e-86 0
1.8178e-51 -2.88421e-85 0
6.19039e-53 -7.25036e-84 0
2.05702e-54 -1.68639e-82 0
6.67368e-56 -3.57523e-81 0
2.11518e-57 -6.76381e-80 0
6.55263e-59 -1.10629e-78 0
1.98516e-60 -1.48652e-77 0
5.88454e-62 -1.49601e-76 0
1.75593e-63 -9.17309e-76 0
5.16638e-61 -4.32413e-73 0
0 -2.93589e-155 0
4.25553e-09 -2.01676e-153 0
1.19268e-07 -1.30513e-151 0
4.70077e-07 -8.06009e-150 0
4.80246e-07 -4.18148e-148 0
1.81668e-07 -1.66178e-146 0
3.18333e-08 -4.49179e-145 0
1.62977e-09 -4.32971e-145 0
0 0 0
0 0 0
0 -2.7457e-135 0
1.42626e-14 -1.64022e-133 0
2.82182e-15 -9.4994e-132 0
3.97802e-16 -5.42355e-130 0
4.73421e-17 -3.05169e-128 0
5.01782e-18 -1.69173e-126 0
4.85389e-19 -9.23667e-125 0
4.34444e-20 -4.96522e-123 0
3.62981e-21 -2.62689e-121 0
2.84881e-22 -1.36726e-119 0
2.11035e-23 -6.99813e-118 0
1.48123e-24 -3.52077e-116 0
9.88238e-26 -1.74023e-114 0
6.28435e-27 -8.44606e-113 0
3.81822e-28 -4.02285e-111 0
2.22119e-29 -1.8792e-109 0
1.23955e-30 -8.60347e-108 0
6.64734e-32 -3.85754e-106 0
3.43099e-33 -1.69247e-104 0
1.7069e-34 -7.25952e-103 0
8.19585e-36 -3.04105e-101 0
3.80288e-37 -1.2427e-99 0
1.70711e-38 -4.94737e-98 0
7.4218e-40 -1.91602e-96 0
3.12815e-41 -7.20618e-95 0
1.2794e-42 -2.62684e-93 0
5.08216e-44 -9.25943e-92 0
1.96234e-45 -3.14756e-90 0
7.37097e-47 -1.02845e-88 0
2.69539e-48 -3.21734e-87 0
9.60218e-50 -9.58933e-86 0
3.33471e-51 -2.70636e-84 0
1.1297e-52 -7.17558e-83 0
3.73545e-54 -1.76874e-81 0
1.20628e-55 -3.99585e-80 0
3.8064e-57 -8.10708e-79 0
1.17427e-58 -1.4326e-77 0
3.54347e-60 -2.09746e-76 0
1.04643e-61 -2.32071e-75 0
3.11104e-63 -1.57185e-74 0
9.33181e-61 -7.66707e-72 0
0 -7.54345e-154 0
2.09085e-08 -5.14435e-152 0
1.63131e-07 -3.4936e-150 0
3.61247e-07 -2.24399e-148 0
2.78511e-07 -1.29523e-146 0
9.61516e-08 -6.58862e-145 0
1.97337e-08 -2.88851e-143 0
2.61296e-09 -9.3904e-142 0
1.06506e-10 -9.10801e-142 0
1.11237e-11 0 0
1.23648e-12 -8.56336e-135 0
1.4526e-13 -5.17158e-133 0
1.6046e-14 -3.02988e-131 0
1.66852e-15 -1.75068e-129 0
1.6349e-16 -9.97357e-128 0
1.51148e-17 -5.60063e-126 0
1.32049e-18 -3.09909e-124 0
1.09208e-19 -1.68929e-122 0
8.5658e-21 -9.06772e-121 0
6.3842e-22 -4.79139e-119 0
4.52996e-23 -2.4913e-117 0
3.06574e-24 -1.27413e-115 0
1.98246e-25 -6.40661e-114 0
1.22699e-26 -3.16566e-112 0
7.28024e-28 -1.53637e-110 0
4.14749e-29 -7.31944e-109 0
2.27189e-30 -3.42091e-107 0
1.19824e-31 -1.56745e-105 0
6.09271e-33 -7.03578e-104 0
2.99029e-34 -3.09126e-102 0
1.41823e-35 -1.3282e-100 0
6.50699e-37 -5.57503e-99 0
2.89103e-38 -2.28338e-97 0
1.24503e-39 -9.11335e-96 0
5.20183e-41 -3.53901e-94 0
2.11035e-42 -1.33481e-92 0
8.32009e-44 -4.87966e-91 0
3.19015e-45 -1.72473e-89 0
1.19048e-46 -5.87669e-88 0
4.32678e-48 -1.92336e-86 0
1.53259e-49 -6.01959e-85 0
5.29392e-51 -1.79146e-83 0
1.78436e-52 -5.03293e-82 0
5.87206e-54 -1.32191e-80 0
1.88773e-55 -3.20302e-79 0
5.93139e-57 -7.02392e-78 0
1.82247e-58 -1.35387e-76 0
5.47845e-60 -2.18567e-75 0
1.61198e-61 -2.69922e-74 0
4.77551e-63 -2.05875e-73 0
1.45368e-60 -1.04058e-70 0
0 -1.07752e-152 0
2.92808e-08 -7.30149e-151 0
1.22201e-07 -4.9992e-149 0
1.78651e-07 -3.33609e-147 0
1.08813e-07 -2.20082e-145 0
3.4997e-08 -1.43522e-143 0
7.60093e-09 -9.25133e-142 0
1.26143e-09 -5.89368e-140 0
1.46455e-10 -3.71021e-138 0
1.61903e-11 -2.30763e-136 0
1.83534e-12 -1.41744e-134 0
1.98857e-13 -8.51095e-133 0
2.05554e-14 -5.04257e-131 0
2.02336e-15 -2.9478e-129 0
1.89423e-16 -1.69985e-127 0
1.68564e-17 -9.66671e-126 0
1.42598e-18 -5.41982e-124 0
1.14746e-19 -2.99506e-122 0
8.79133e-21 -1.63083e-120 0
6.42071e-22 -8.74696e-119 0
4.47611e-23 -4.61955e-117 0
2.98275e-24 -2.40147e-115 0
1.90261e-25 -1.22834e-113 0
1.16336e-26 -6.17936e-112 0
6.8283e-28 -3.05598e-110 0
3.85235e-29 -1.48499e-108 0
2.09177e-30 -7.08649e-107 0
1.09449e-31 -3.31905e-105 0
5.52502e-33 -1.52472e-103 0
2.69378e-34 -6.86509e-102 0
1.26988e-35 -3.02714e-100 0
5.79387e-37 -1.30605e-98 0
2.56096e-38 -5.50789e-97 0
1.09764e-39 -2.2678e-95 0
4.56576e-41 -9.10419e-94 0
1.84469e-42 -3.55815e-92 0
7.24484e-44 -1.35135e-90 0
2.76792e-45 -4.97665e-89 0
1.02945e-46 -1.7726e-87 0
3.72972e-48 -6.08714e-86 0
1.31719e-49 -2.00743e-84 0
4.53719e-51 -6.32592e-83 0
1.52527e-52 -1.89253e-81 0
5.00695e-54 -5.32867e-80 0
1.60583e-55 -1.3951e-78 0
5.03438e-57 -3.33715e-77 0
1.54358e-58 -7.09809e-76 0
4.63076e-60 -1.28251e-74 0
1.35995e-61 -1.80299e-73 0
4.02133e-63 -1.59014e-72 0
1.23318e-60 -8.34118e-70 0
0 0 0
1.27024e-08 0 0
3.57426e-08 0 0
4.03285e-08 0 0
2.16793e-08 0 0
6.85384e-09 0 0
1.54882e-09 0 0
2.78236e-10 0 0
3.99497e-11 0 0
5.06661e-12 0 0
5.98861e-13 0 0
6.65413e-14 0 0
6.97846e-15 0 0
6.9216e-16 0 0
6.50104e-17 0 0
5.78851e-18 0 0
4.8917e-19 0 0
3.92841e-20 0 0
3.00221e-21 0 0
2.18657e-22 0 0
1.51998e-23 0 0
1.00999e-24 0 0
6.42462e-26 0 0
3.91792e-27 0 0
2.29378e-28 0 0
1.29098e-29 0 0
6.99396e-31 0 0
3.65169e-32 0 0
1.83967e-33 0 0
8.95254e-35 0 0
4.2128e-36 0 0
1.91889e-37 0 0
8.46835e-39 0 0
3.62417e-40 0 0
1.5054e-41 0 0
6.07417e-43 0 0
2.38259e-44 0 0
9.09198e-46 0 0
3.37771e-47 0 0
1.22245e-48 0 0
4.31285e-50 0 0
1.48418e-51 0 0
4.98484e-53 0 0
1.63493e-54 0 0
5.23921e-56 0 0
1.64123e-57 0 0
5.02835e-59 0 0
1.50743e-60 0 0
4.42394e-62 0 0
1.30726e-63 0 0
4.01949e-61 0 0
0 0 -2.05877e-156
3.43946e-08 0 -1.42374e-154
7.70708e-08 0 -1.12293e-152
7.31476e-08 0 -7.78666e-151
3.54553e-08 0 -4.21114e-149
1.0163e-08 0 -1.62661e-147
2.17987e-09 0 -3.85601e-146
3.92075e-10 0 -4.00551e-146
6.22646e-11 0 -2.226e-144
8.94993e-12 0 -1.26638e-142
1.1798e-12 0 -7.08966e-141
1.43747e-13 0 -3.90676e-139
1.62742e-14 0 -2.11843e-137
1.7191e-15 0 -1.12993e-135
1.70031e-16 0 -5.92592e-134
1.57964e-17 0 -3.05447e-132
1.38249e-18 0 -1.54666e-130
1.14294e-19 0 -7.68984e-129
8.94862e-21 0 -3.75212e-127
6.65115e-22 0 -1.79568e-125
4.70346e-23 0 -8.42394e-124
3.17121e-24 0 -3.87124e-122
2.04252e-25 0 -1.74154e-120
1.25901e-26 0 -7.66359e-119
7.43963e-28 0 -3.29604e-117
4.22107e-29 0 -1.38428e-115
2.30296e-30 0 -5.67154e-114
1.20988e-31 0 -2.26442e-112
6.1286e-33 0 -8.79986e-111
2.99686e-34 0 -3.32421e-109
1.41631e-35 0 -1.21887e-107
6.47596e-37 0 -4.33087e-106
2.86777e-38 0 -1.48848e-104
1.2311e-39 0 -4.938e-103
5.12797e-41 0 -1.57751e-101
2.0743e-42 0 -4.83973e-100
8.15494e-44 0 -1.42142e-98
3.11838e-45 0 -3.98172e-97
1.16067e-46 0 -1.05917e-95
4.20791e-48 0 -2.66151e-94
1.4869e-49 0 -6.27773e-93
5.12424e-51 0 -1.37904e-91
1.72333e-52 0 -2.79355e-90
5.65909e-54 0 -5.15239e-89
1.81551e-55 0 -8.50721e-88
5.69316e-57 0 -1.22847e-86
1.74592e-58 0 -1.49997e-85
5.23868e-60 0 -1.46962e-84
1.53869e-61 0 -1.05606e-83
4.55034e-63 0 -4.63637e-83
1.38008e-60 0 -1.87326e-80
0.0036 -1.06428e-155 -4.41945e-156
0.00466451 -1.40053e-151 -1.03903e-151
0.00372346 -1.85273e-149 -1.76703e-149
0.00194645 -2.49449e-147 -2.40314e-147
0.000650731 -2.32543e-145 -2.08885e-145
0.000140396 -1.32326e-143 -1.14544e-143
2.42757e-05 -4.6168e-142 -4.02414e-142
3.67703e-06 -9.22913e-143 -9.09919e-143
5.05503e-07 -4.74295e-141 -4.74474e-141
6.40473e-08 -2.75692e-139 -2.75706e-139
7.53799e-09 -1.57339e-137 -1.5734e-137
8.28117e-10 -8.83885e-136 -8.83885e-136
8.52199e-11 -4.88781e-134 -4.88781e-134
8.23907e-12 -2.65981e-132 -2.65981e-132
7.50333e-13 -1.42376e-130 -1.42376e-130
6.4528e-14 -7.4936e-129 -7.4936e-129
5.25274e-15 -3.87633e-127 -3.87633e-127
4.05644e-16 -1.96982e-125 -1.96982e-125
2.97819e-17 -9.82845e-124 -9.82845e-124
2.08299e-18 -4.81246e-122 -4.81246e-122
1.39054e-19 -2.31111e-120 -2.31111e-120
8.87602e-21 -1.08787e-118 -1.08787e-118
5.42666e-22 -5.01582e-117 -5.01582e-117
3.18287e-23 -2.26362e-115 -2.26362e-115
1.7936e-24 -9.99123e-114 -9.99123e-114
9.7245e-26 -4.30938e-112 -4.30938e-112
5.07945e-27 -1.81461e-110 -1.81461e-110
2.55927e-28 -7.45202e-109 -7.45202e-109
1.2453e-29 -2.98122e-107 -2.98122e-107
5.85829e-31 -1.16037e-105 -1.16037e-105
2.66722e-32 -4.38801e-104 -4.38801e-104
1.17643e-33 -1.60963e-102 -1.60963e-102
5.03146e-35 -5.71747e-101 -5.71747e-101
2.08846e-36 -1.96257e-99 -1.96257e-99
8.42027e-38 -6.49525e-98 -6.49525e-98
3.30016e-39 -2.06714e-96 -2.06714e-96
1.25829e-40 -6.30695e-95 -6.30695e-95
4.67058e-42 -1.83816e-93 -1.83816e-93
1.68889e-43 -5.0959e-92 -5.0959e-92
5.95321e-45 -1.33695e-90 -1.33695e-90
2.04687e-46 -3.29893e-89 -3.29893e-89
6.86865e-48 -7.59736e-88 -7.59736e-88
2.25081e-49 -1.61724e-86 -1.61724e-86
7.20656e-51 -3.14246e-85 -3.14246e-85
2.25559e-52 -5.48145e-84 -5.48145e-84
6.90474e-54 -8.38724e-83 -8.38724e-83
2.06822e-55 -1.08853e-81 -1.08853e-81
6.06459e-57 -1.13702e-80 -1.13702e-80
1.74166e-58 -8.72735e-80 -8.72735e-80
5.03554e-60 -4.07789e-79 -4.07789e-79
5.01903e-60 -6.60464e-79 -6.60464e-79
0.01 -9.03021e-155 -7.30055e-157
0.0109908 -8.72511e-151 -1.44016e-151
0.00956477 -9.33487e-149 2.67402e-151
0.00580855 -2.08976e-146 -1.44034e-146
0.00210763 -4.54768e-144 -3.97299e-144
0.000369144 -4.536e-142 -3.87111e-142
5.41669e-05 -3.11486e-140 -2.71008e-140
7.2967e-06 -1.23379e-141 -1.20471e-141
9.27736e-07 -5.30977e-140 -5.32109e-140
1.1153e-07 -3.16912e-138 -3.17006e-138
1.26672e-08 -1.8301e-136 -1.83015e-136
1.35814e-09 -1.03863e-134 -1.03863e-134
1.37439e-10 -5.80315e-133 -5.80315e-133
1.31338e-11 -3.19177e-131 -3.19177e-131
1.1864e-12 -1.72743e-129 -1.72743e-129
1.01448e-13 -9.19597e-128 -9.19597e-128
8.22494e-15 -4.81329e-126 -4.81329e-126
6.3338e-16 -2.47592e-124 -2.47592e-124
4.64105e-17 -1.25105e-122 -1.25105e-122
3.24163e-18 -6.20632e-121 -6.20632e-121
2.16205e-19 -3.02116e-119 -3.02116e-119
1.37928e-20 -1.44224e-117 -1.44224e-117
8.42987e-22 -6.74753e-116 -6.74753e-116
4.94355e-23 -3.0917e-114 -3.0917e-114
2.78572e-24 -1.38633e-112 -1.38633e-112
1.51047e-25 -6.07854e-111 -6.07854e-111
7.89088e-27 -2.60376e-109 -2.60376e-109
3.9766e-28 -1.08855e-107 -1.08855e-107
1.93542e-29 -4.43671e-106 -4.43671e-106
9.10726e-31 -1.76085e-104 -1.76085e-104
4.14763e-32 -6.79585e-103 -6.79585e-103
1.82994e-33 -2.54667e-101 -2.54667e-101
7.82887e-35 -9.25063e-100 -9.25063e-100
3.25063e-36 -3.25089e-98 -3.25089e-98
1.311e-37 -1.10283e-96 -1.10283e-96
5.13981e-39 -3.60241e-95 -3.60241e-95
1.96031e-40 -1.12972e-93 -1.12972e-93
7.2786e-42 -3.38954e-92 -3.38954e-92
2.63274e-43 -9.68994e-91 -9.68994e-91
9.28293e-45 -2.62645e-89 -2.62645e-89
3.19263e-46 -6.7092e-88 -6.7092e-88
1.07165e-47 -1.60319e-86 -1.60319e-86
3.51268e-49 -3.54981e-85 -3.54981e-85
1.12497e-50 -7.19459e-84 -7.19459e-84
3.52197e-52 -1.313e-82 -1.313e-82
1.07841e-53 -2.10903e-81 -2.10903e-81
3.231e-55 -2.88386e-80 -2.88386e-80
9.47646e-57 -3.18556e-79 -3.18556e-79
2.72212e-58 -2.59352e-78 -2.59352e-78
7.87211e-60 -1.28328e-77 -1.28328e-77
7.84632e-60 -2.10218e-77 -2.10218e-77
0.0148 -4.45325e-156 6.27848e-155
0.0166295 -3.29327e-152 -9.85142e-151
0.0161362 -3.62859e-150 8.01746e-149
0.0120418 -2.52281e-148 -1.65395e-146
0.00516171 -6.50219e-146 -3.56324e-144
0.000256092 -6.47732e-146 -3.75688e-142
3.5022e-05 0 -2.67042e-140
4.44892e-06 2.08263e-138 1.78133e-138
5.99638e-07 -4.67393e-139 -4.74486e-139
7.54879e-08 -3.1659e-137 -3.17186e-137
8.89913e-09 -1.87165e-135 -1.872e-135
9.83768e-10 -1.07464e-133 -1.07464e-133
1.02116e-10 -6.06922e-132 -6.06922e-132
9.96881e-12 -3.37535e-130 -3.37535e-130
9.16965e-13 -1.84785e-128 -1.84785e-128
7.96353e-14 -9.95435e-127 -9.95435e-127
6.54372e-15 -5.27453e-125 -5.27453e-125
5.09842e-16 -2.74786e-123 -2.74786e-123
3.7744e-17 -1.40685e-121 -1.40685e-121
2.66036e-18 -7.07504e-120 -7.07504e-120
1.78876e-19 -3.49312e-118 -3.49312e-118
1.14943e-20 -1.69222e-116 -1.69222e-116
7.07102e-22 -8.03887e-115 -8.03887e-115
4.17119e-23 -3.74233e-113 -3.74233e-113
2.36311e-24 -1.70603e-111 -1.70603e-111
1.2876e-25 -7.61017e-110 -7.61017e-110
6.75675e-27 -3.31888e-108 -3.31888e-108
3.4191e-28 -1.41375e-106 -1.41375e-106
1.67041e-29 -5.8761e-105 -5.8761e-105
7.88788e-31 -2.38036e-103 -2.38036e-103
3.60402e-32 -9.38595e-102 -9.38595e-102
1.59492e-33 -3.59728e-100 -3.59728e-100
6.84272e-35 -1.33791e-98 -1.33791e-98
2.84868e-36 -4.81996e-97 -4.81996e-97
1.15173e-37 -1.67845e-95 -1.67845e-95
4.52589e-39 -5.63599e-94 -5.63599e-94
1.72994e-40 -1.81973e-92 -1.81973e-92
6.43643e-42 -5.63089e-91 -5.63089e-91
2.33263e-43 -1.66331e-89 -1.66331e-89
8.23986e-45 -4.668e-88 -4.668e-88
2.83881e-46 -1.23746e-86 -1.23746e-86
9.54448e-48 -3.07639e-85 -3.07639e-85
3.13341e-49 -7.10685e-84 -7.10685e-84
1.005e-50 -1.50748e-82 -1.50748e-82
3.15079e-52 -2.88936e-81 -2.88936e-81
9.66051e-54 -4.89325e-80 -4.89325e-80
2.89808e-55 -7.08474e-79 -7.08474e-79
8.51041e-57 -8.32374e-78 -8.32374e-78
2.44748e-58 -7.23612e-77 -7.23612e-77
7.08599e-60 -3.81999e-76 -3.81999e-76
7.06268e-60 -6.33408e-76 -6.33408e-76
0.018 -1.64232e-157 2.26877e-153
0.0203069 -4.34159e-154 -2.55052e-149
0.0207219 -1.26995e-151 2.09554e-147
0.0183257 -7.79982e-152 -2.09054e-145
0.00946701 -9.27359e-148 1.87275e-143
0 -9.27408e-148 1.89387e-143
0 0 0
0 0 1.78245e-138
5.77729e-08 -1.4242e-136 -1.22142e-136
1.3493e-08 -2.48755e-136 -2.52444e-136
2.15557e-09 -1.6471e-134 -1.64942e-134
2.87331e-10 -9.6493e-133 -9.64931e-133
3.38951e-11 -5.51023e-131 -5.51023e-131
3.63207e-12 -3.09969e-129 -3.09969e-129
3.58651e-13 -1.71711e-127 -1.71711e-127
3.2936e-14 -9.36386e-126 -9.36386e-126
2.83123e-15 -5.02487e-124 -5.02487e-124
2.2895e-16 -2.65236e-122 -2.65236e-122
1.74869e-17 -1.37655e-120 -1.37655e-120
1.26576e-18 -7.02104e-119 -7.02104e-119
8.70809e-20 -3.51762e-117 -3.51762e-117
5.70862e-21 -1.73024e-115 -1.73024e-115
3.57407e-22 -8.35065e-114 -8.35065e-114
2.14146e-23 -3.95208e-112 -3.95208e-112
1.23021e-24 -1.83286e-110 -1.83286e-110
6.78747e-26 -8.32366e-109 -8.32366e-109
3.60227e-27 -3.69854e-107 -3.69854e-107
1.84167e-28 -1.60656e-105 -1.60656e-105
9.08222e-30 -6.81538e-104 -6.81538e-104
4.32574e-31 -2.8206e-102 -2.8206e-102
1.99213e-32 -1.13744e-100 -1.13744e-100
8.88049e-34 -4.46341e-99 -4.46341e-99
3.83582e-35 -1.70173e-97 -1.70173e-97
1.60693e-36 -6.29291e-96 -6.29291e-96
6.53492e-38 -2.2526e-94 -2.2526e-94
2.58202e-39 -7.78747e-93 -7.78747e-93
9.91973e-41 -2.59314e-91 -2.59314e-91
3.70844e-42 -8.29104e-90 -8.29104e-90
1.35003e-43 -2.53581e-88 -2.53581e-88
4.7891e-45 -7.38553e-87 -7.38553e-87
1.65654e-46 -2.03703e-85 -2.03703e-85
5.59055e-48 -5.28386e-84 -5.28386e-84
1.8419e-49 -1.27765e-82 -1.27765e-82
5.92762e-51 -2.84684e-81 -2.84684e-81
1.86435e-52 -5.7549e-80 -5.7549e-80
5.73363e-54 -1.03259e-78 -1.03259e-78
1.72503e-55 -1.59204e-77 -1.59204e-77
5.07967e-57 -2.00274e-76 -2.00274e-76
1.46469e-58 -1.87377e-75 -1.87377e-75
4.25152e-60 -1.06496e-74 -1.06496e-74
4.23738e-60 -1.78893e-74 -1.78893e-74
0.0196 -2.71633e-158 -3.50598e-153
0.0221033 -1.82367e-154 3.38763e-149
0.02269 -1.96585e-152 -2.13053e-147
0.0218542 -4.94809e-151 1.6909e-145
0.0129014 -1.17712e-148 -1.05778e-143
0.00160705 -1.17237e-148 3.70551e-141
0 0 3.71626e-141
0 0 0
0 0 -1.21717e-136
1.19122e-09 9.35422e-135 7.74589e-135
3.07443e-10 -1.13135e-133 -1.14664e-133
5.24944e-11 -7.31812e-132 -7.31817e-132
7.30964e-12 -4.22697e-130 -4.22697e-130
8.85764e-13 -2.40594e-128 -2.40594e-128
9.62914e-14 -1.34911e-126 -1.34911e-126
9.5571e-15 -7.45037e-125 -7.45037e-125
8.7606e-16 -4.05059e-123 -4.05059e-123
7.47806e-17 -2.16723e-121 -2.16723e-121
5.98156e-18 -1.14069e-119 -1.14069e-119
4.50586e-19 -5.90355e-118 -5.90355e-118
3.20967e-20 -3.00294e-116 -3.00294e-116
2.16953e-21 -1.50056e-114 -1.50056e-114
1.39568e-22 -7.36207e-113 -7.36207e-113
8.56751e-24 -3.54435e-111 -3.54435e-111
5.03002e-25 -1.67337e-109 -1.67337e-109
2.83026e-26 -7.74228e-108 -7.74228e-108
1.52907e-27 -3.50787e-106 -3.50787e-106
7.94527e-29 -1.55511e-104 -1.55511e-104
3.97681e-30 -6.73948e-103 -6.73948e-103
1.92008e-31 -2.85236e-101 -2.85236e-101
8.95421e-33 -1.17763e-99 -1.17763e-99
4.03815e-34 -4.73687e-98 -4.73687e-98
1.76308e-35 -1.85369e-96 -1.85369e-96
7.46014e-37 -7.04602e-95 -7.04602e-95
3.06219e-38 -2.5966e-93 -2.5966e-93
1.22046e-39 -9.25749e-92 -9.25749e-92
4.72712e-41 -3.18507e-90 -3.18507e-90
1.78073e-42 -1.05439e-88 -1.05439e-88
6.52924e-44 -3.34663e-87 -3.34663e-87
2.33185e-45 -1.01411e-85 -1.01411e-85
8.11728e-47 -2.91847e-84 -2.91847e-84
2.75595e-48 -7.92426e-83 -7.92426e-83
9.13166e-50 -2.01299e-81 -2.01299e-81
2.95461e-51 -4.73148e-80 -4.73148e-80
9.34036e-53 -1.0137e-78 -1.0137e-78
2.88649e-54 -1.93803e-77 -1.93803e-77
8.7245e-56 -3.20323e-76 -3.20323e-76
2.58038e-57 -4.34913e-75 -4.34913e-75
7.47153e-59 -4.42147e-74 -4.42147e-74
2.17764e-60 -2.73639e-73 -2.73639e-73
2.17028e-60 -4.66099e-73 -4.66099e-73
0.0196 -7.71703e-157 -3.45248e-153
0.0221004 -1.06291e-152 3.32835e-149
0.0226836 -7.6519e-151 -2.1239e-147
0.0218259 -6.4431e-149 1.7285e-145
0.0130358 -7.33054e-147 -1.13555e-143
0.00323896 -2.76491e-145 -1.02093e-142
0.000205955 -2.69224e-145 -4.35734e-139
0 0 -4.35644e-139
0 0 0
0 0 7.96953e-135
2.48555e-11 -7.36827e-133 -7.30183e-133
1.32448e-11 -4.5074e-131 -4.50753e-131
2.81963e-12 -2.63459e-129 -2.63459e-129
4.29486e-13 -1.51779e-127 -1.51779e-127
5.38439e-14 -8.61802e-126 -8.61802e-126
5.88661e-15 -4.82132e-124 -4.82132e-124
5.7838e-16 -2.65671e-122 -2.65671e-122
5.20025e-17 -1.44142e-120 -1.44142e-120
4.32993e-18 -7.69744e-119 -7.69744e-119
3.36717e-19 -4.04424e-117 -4.04424e-117
2.46117e-20 -2.08967e-115 -2.08967e-115
1.69932e-21 -1.06138e-113 -1.06138e-113
1.11281e-22 -5.29671e-112 -5.29671e-112
6.93485e-24 -2.59568e-110 -2.59568e-110
4.12447e-25 -1.2484e-108 -1.2484e-108
2.34687e-26 -5.88907e-107 -5.88907e-107
1.28038e-27 -2.72288e-105 -2.72288e-105
6.71063e-29 -1.23303e-103 -1.23303e-103
3.3846e-30 -5.46415e-102 -5.46415e-102
1.64533e-31 -2.36741e-100 -2.36741e-100
7.72004e-33 -1.0018e-98 -1.0018e-98
3.50085e-34 -4.13566e-97 -4.13566e-97
1.53616e-35 -1.6634e-95 -1.6634e-95
6.52965e-37 -6.50868e-94 -6.50868e-94
2.69143e-38 -2.47339e-92 -2.47339e-92
1.0768e-39 -9.11048e-91 -9.11048e-91
4.18537e-41 -3.24515e-89 -3.24515e-89
1.58178e-42 -1.11478e-87 -1.11478e-87
5.81723e-44 -3.68116e-86 -3.68116e-86
2.08337e-45 -1.16386e-84 -1.16386e-84
7.27118e-47 -3.506e-83 -3.506e-83
2.47468e-48 -1.00011e-81 -1.00011e-81
8.21832e-50 -2.68019e-80 -2.68019e-80
2.66475e-51 -6.67772e-79 -6.67772e-79
8.44087e-53 -1.52487e-77 -1.52487e-77
2.61342e-54 -3.12713e-76 -3.12713e-76
7.91313e-56 -5.58531e-75 -5.58531e-75
2.34432e-57 -8.26451e-74 -8.26451e-74
6.79876e-59 -9.23939e-73 -9.23939e-73
1.9846e-60 -6.31812e-72 -6.31812e-72
1.97789e-60 -1.09237e-71 -1.09237e-71
0.018 -2.51721e-155 2.83312e-153
0.0202796 -5.37196e-151 -3.38061e-149
0.0206508 -4.55951e-149 2.94519e-147
0.0182097 -4.7294e-147 -3.11598e-145
0.0096464 -3.93042e-145 3.39423e-143
0.00253415 -1.8566e-143 1.4532e-141
0.000348441 -5.25034e-142 9.07885e-141
1.46487e-05 -5.06857e-142 3.07373e-137
0 0 3.07296e-137
0 0 0
0 -3.48079e-132 -3.46902e-132
7.95242e-11 -2.12145e-130 -2.12133e-130
1.45198e-11 -1.25453e-128 -1.25453e-128
1.89495e-12 -7.31713e-127 -7.31713e-127
2.09459e-13 -4.20817e-125 -4.20817e-125
2.06882e-14 -2.38571e-123 -2.38571e-123
1.87103e-15 -1.33286e-121 -1.33286e-121
1.57068e-16 -7.33586e-120 -7.33586e-120
1.23458e-17 -3.97626e-118 -3.97626e-118
9.14177e-19 -2.12176e-116 -2.12176e-116
6.40652e-20 -1.11417e-114 -1.11417e-114
4.26469e-21 -5.75516e-113 -5.75516e-113
2.70485e-22 -2.92296e-111 -2.92296e-111
1.63873e-23 -1.45895e-109 -1.45895e-109
9.50507e-25 -7.15289e-108 -7.15289e-108
5.2887e-26 -3.44273e-106 -3.44273e-106
2.82788e-27 -1.62569e-104 -1.62569e-104
1.45542e-28 -7.52642e-103 -7.52642e-103
7.22052e-30 -3.41376e-101 -3.41376e-101
3.45769e-31 -1.5157e-99 -1.5157e-99
1.60022e-32 -6.58148e-98 -6.58148e-98
7.16554e-34 -2.79201e-96 -2.79201e-96
3.10785e-35 -1.15581e-94 -1.15581e-94
1.30691e-36 -4.6628e-93 -4.6628e-93
5.33353e-38 -1.83036e-91 -1.83036e-91
2.11421e-39 -6.97885e-90 -6.97885e-90
8.1471e-41 -2.57919e-88 -2.57919e-88
3.05437e-42 -9.2165e-87 -9.2165e-87
1.11487e-43 -3.17502e-85 -3.17502e-85
3.96469e-45 -1.05065e-83 -1.05065e-83
1.37458e-46 -3.32479e-82 -3.32479e-82
4.64915e-48 -1.00049e-80 -1.00049e-80
1.53492e-49 -2.84214e-79 -2.84214e-79
4.94935e-51 -7.54823e-78 -7.54823e-78
1.55955e-52 -1.84937e-76 -1.84937e-76
4.80468e-54 -4.10063e-75 -4.10063e-75
1.44796e-55 -7.99166e-74 -7.99166e-74
4.27054e-57 -1.30433e-72 -1.30433e-72
1.23324e-58 -1.62811e-71 -1.62811e-71
3.585e-60 -1.25421e-70 -1.25421e-70
3.57311e-60 -2.20354e-70 -2.20354e-70
0.0148 -1.14758e-153 6.23832e-154
0.0164161 -2.67777e-149 -1.05662e-149
0.0157477 -2.36622e-147 8.93166e-148
0.0116998 -2.00995e-145 -4.33441e-145
0.00513162 -1.3932e-143 -5.90427e-143
0.00125363 -7.62105e-142 -1.75084e-141
0.000203334 -3.43954e-140 -4.34206e-140
2.31826e-05 -1.1408e-138 -1.1815e-138
8.40487e-07 -1.10716e-138 -2.05492e-135
8.05247e-08 0 -1.32802e-133
8.19186e-09 -1.10648e-131 -1.11953e-131
8.77447e-10 -6.82071e-130 -6.82071e-130
8.88201e-11 -4.08228e-128 -4.08228e-128
8.50009e-12 -2.41091e-126 -2.41091e-126
7.69651e-13 -1.40462e-124 -1.40462e-124
6.60114e-14 -8.07104e-123 -8.07104e-123
5.37045e-15 -4.5727e-121 -4.5727e-121
4.15103e-16 -2.55367e-119 -2.55367e-119
3.05337e-17 -1.40532e-117 -1.40532e-117
2.141e-18 -7.61841e-116 -7.61841e-116
1.4335e-19 -4.06708e-114 -4.06708e-114
9.17985e-21 -2.13733e-112 -2.13733e-112
5.63139e-22 -1.10524e-110 -1.10524e-110
3.31433e-23 -5.62162e-109 -5.62162e-109
1.87414e-24 -2.81113e-107 -2.81113e-107
1.0196e-25 -1.38134e-105 -1.38134e-105
5.34364e-27 -6.66635e-104 -6.66635e-104