# vtk DataFile Version 2.0
Tobias Weinzierl: CPU, Manycore and Cluster Computing
ASCII

DATASET STRUCTURED_POINTS
DIMENSIONS  51 11 6

ORIGIN 0 0 0 

SPACING 0.1 0.1 0.1 

POINT_DATA 3366

VECTORS velocity float
0 0 0
1.52032e-09 0 0
4.74873e-09 0 0
9.82857e-09 0 0
1.44825e-08 0 0
1.1059e-08 0 0
5.01175e-09 0 0
1.61081e-09 0 0
4.14465e-10 0 0
9.13526e-11 0 0
1.79333e-11 0 0
3.21263e-12 0 0
5.33785e-13 0 0
8.31882e-14 0 0
1.22565e-14 0 0
1.71662e-15 0 0
2.29421e-16 0 0
2.93349e-17 0 0
3.59518e-18 0 0
4.22877e-19 0 0
4.77873e-20 0 0
5.19272e-21 0 0
5.43014e-22 0 0
5.46893e-23 0 0
5.30898e-24 0 0
4.97148e-25 0 0
4.49447e-26 0 0
3.92597e-27 0 0
3.31626e-28 0 0
2.71104e-29 0 0
2.14665e-30 0 0
1.64766e-31 0 0
1.22685e-32 0 0
8.86873e-34 0 0
6.22861e-35 0 0
4.25294e-36 0 0
2.82521e-37 0 0
1.8271e-38 0 0
1.15107e-39 0 0
7.06852e-41 0 0
4.23352e-42 0 0
2.47437e-43 0 0
1.41206e-44 0 0
7.8722e-46 0 0
4.28952e-47 0 0
2.28561e-48 0 0
1.19146e-49 0 0
6.07902e-51 0 0
3.03738e-52 0 0
1.55761e-53 0 0
8.54245e-51 0 0
0 -8.17226e-134 0
3.57733e-09 -3.18724e-132 0
1.36359e-08 -1.57713e-130 0
3.13949e-08 -7.56737e-129 0
5.68036e-08 -3.30229e-127 0
4.63473e-08 -1.19897e-125 0
2.09127e-08 -2.59649e-124 0
6.51958e-09 -2.56995e-124 0
1.62794e-09 -8.58121e-123 0
3.5028e-10 -2.90191e-121 0
6.74931e-11 -9.62722e-120 0
1.1917e-11 -3.14341e-118 0
1.9577e-12 -1.01031e-116 0
3.02396e-13 -3.19546e-115 0
4.42452e-14 -9.94178e-114 0
6.16379e-15 -3.04135e-112 0
8.2044e-16 -9.14426e-111 0
1.04591e-16 -2.70088e-109 0
1.27906e-17 -7.83281e-108 0
1.50221e-18 -2.22921e-106 0
1.6959e-19 -6.22229e-105 0
1.84172e-20 -1.70234e-103 0
1.92534e-21 -4.5619e-102 0
1.93893e-22 -1.19655e-100 0
1.88236e-23 -3.06939e-99 0
1.76303e-24 -7.69373e-98 0
1.5943e-25 -1.88266e-96 0
1.39309e-26 -4.49266e-95 0
1.17717e-27 -1.04432e-93 0
9.62706e-29 -2.3616e-92 0
7.62592e-30 -5.18807e-91 0
5.85564e-31 -1.10546e-89 0
4.36188e-32 -2.28054e-88 0
3.15439e-33 -4.54584e-87 0
2.21623e-34 -8.73504e-86 0
1.51384e-35 -1.61375e-84 0
1.00601e-36 -2.85755e-83 0
6.50839e-38 -4.8325e-82 0
4.10169e-39 -7.77181e-81 0
2.51964e-40 -1.18259e-79 0
1.50957e-41 -1.69211e-78 0
8.82581e-43 -2.25944e-77 0
5.03822e-44 -2.78878e-76 0
2.80962e-45 -3.14302e-75 0
1.53138e-46 -3.18269e-74 0
8.16201e-48 -2.83263e-73 0
4.25587e-49 -2.14737e-72 0
2.17197e-50 -1.32237e-71 0
1.08549e-51 -6.12053e-71 0
5.56794e-53 -1.84608e-70 0
3.05206e-50 -1.22522e-67 0
0 -4.36655e-133 0
2.06178e-09 -1.68683e-131 0
1.64848e-08 -1.02413e-129 0
3.60513e-08 -6.52629e-128 0
9.70373e-08 -4.04089e-126 0
8.23824e-08 -2.41147e-124 0
3.65761e-08 -9.99771e-123 0
1.09325e-08 -1.67543e-123 0
2.65103e-09 -5.69683e-122 0
5.5894e-10 -1.97743e-120 0
1.06183e-10 -6.6355e-119 0
1.85628e-11 -2.18785e-117 0
3.02832e-12 -7.10182e-116 0
4.65566e-13 -2.26926e-114 0
6.79151e-14 -7.13513e-113 0
9.44551e-15 -2.20672e-111 0
1.25648e-15 -6.71021e-110 0
1.60206e-16 -2.00527e-108 0
1.96068e-17 -5.88635e-107 0
2.3055e-18 -1.69641e-105 0
2.6066e-19 -4.7972e-104 0
2.83541e-20 -1.33032e-102 0
2.96935e-21 -3.61535e-101 0
2.99567e-22 -9.62212e-100 0
2.91349e-23 -2.50602e-98 0
2.73361e-24 -6.38162e-97 0
2.47624e-25 -1.5875e-95 0
2.16731e-26 -3.85391e-94 0
1.8343e-27 -9.12034e-93 0
1.5024e-28 -2.10142e-91 0
1.19183e-29 -4.70776e-90 0
9.16419e-31 -1.02388e-88 0
6.83539e-32 -2.15812e-87 0
4.94933e-33 -4.39986e-86 0
3.48146e-34 -8.65711e-85 0
2.38076e-35 -1.6397e-83 0
1.58382e-36 -2.98068e-82 0
1.02569e-37 -5.1822e-81 0
6.47036e-39 -8.58154e-80 0
3.97837e-40 -1.34684e-78 0
2.38563e-41 -1.99137e-77 0
1.39595e-42 -2.75325e-76 0
7.97516e-44 -3.52639e-75 0
4.45085e-45 -4.13402e-74 0
2.42772e-46 -4.36561e-73 0
1.29484e-47 -4.063e-72 0
6.75615e-49 -3.2297e-71 0
3.4502e-50 -2.09049e-70 0
1.72538e-51 -1.01796e-69 0
8.85568e-53 -3.2147e-69 0
4.84408e-50 -2.20085e-66 0
0 -3.31098e-134 0
-4.10917e-09 -1.29193e-132 0
1.48224e-08 -6.08963e-131 0
1.66092e-08 -2.77256e-129 0
9.99682e-08 -9.08589e-128 0
4.70941e-08 -8.8146e-128 0
2.06751e-08 0 0
6.02371e-09 3.88164e-121 0
1.69124e-09 -2.94498e-121 0
3.8948e-10 -1.16096e-119 0
7.85872e-11 -3.98846e-118 0
1.4362e-11 -1.33015e-116 0
2.42512e-12 -4.363e-115 0
3.83329e-13 -1.40924e-113 0
5.72212e-14 -4.48064e-112 0
8.11487e-15 -1.40181e-110 0
1.09771e-15 -4.31378e-109 0
1.42014e-16 -1.30514e-107 0
1.76036e-17 -3.88049e-106 0
2.09338e-18 -1.13327e-104 0
2.39053e-19 -3.2491e-103 0
2.62364e-20 -9.13972e-102 0
2.7696e-21 -2.521e-100 0
2.8143e-22 -6.81387e-99 0
2.75494e-23 -1.80335e-97 0
2.60014e-24 -4.66968e-96 0
2.36803e-25 -1.18206e-94 0
2.08282e-26 -2.92228e-93 0
1.77077e-27 -7.04818e-92 0
1.45641e-28 -1.65653e-90 0
1.1598e-29 -3.78897e-89 0
8.94977e-31 -8.42187e-88 0
6.69762e-32 -1.81613e-86 0
4.86457e-33 -3.79246e-85 0
3.43173e-34 -7.6525e-84 0
2.3531e-35 -1.48842e-82 0
1.56939e-36 -2.78251e-81 0
1.01877e-37 -4.9829e-80 0
6.44116e-39 -8.51383e-79 0
3.96882e-40 -1.38128e-77 0
2.38468e-41 -2.11552e-76 0
1.39804e-42 -3.03658e-75 0
8.00149e-44 -4.04776e-74 0
4.47317e-45 -4.95193e-73 0
2.44386e-46 -5.47316e-72 0
1.30546e-47 -5.34812e-71 0
6.82163e-49 -4.47806e-70 0
3.48854e-50 -3.06232e-69 0
1.7469e-51 -1.57792e-68 0
8.97814e-53 -5.24865e-68 0
4.88397e-50 -3.71235e-65 0
0 -1.63733e-135 0
-1.12265e-08 -6.45307e-134 0
1.17278e-08 -2.48284e-132 0
7.72797e-10 -8.95727e-131 0
7.21592e-08 -2.05195e-129 0
0 -1.96479e-129 0
0 0 0
0 0 0
2.53684e-10 -1.60469e-119 0
1.02905e-10 -5.36662e-119 0
2.69666e-11 -2.06773e-117 0
5.78229e-12 -7.03618e-116 0
1.09119e-12 -2.33277e-114 0
1.87457e-13 -7.61843e-113 0
2.98701e-14 -2.4501e-111 0
4.46539e-15 -7.75654e-110 0
6.30861e-16 -2.41632e-108 0
8.46361e-17 -7.40394e-107 0
1.08184e-17 -2.23052e-105 0
1.32066e-18 -6.6036e-104 0
1.54254e-19 -1.9203e-102 0
1.72641e-20 -5.48197e-101 0
1.8539e-21 -1.53543e-99 0
1.91241e-22 -4.21674e-98 0
1.89723e-23 -1.13469e-96 0
1.81208e-24 -2.98954e-95 0
1.66805e-25 -7.70559e-94 0
1.48137e-26 -1.94128e-92 0
1.2705e-27 -4.77549e-91 0
1.05332e-28 -1.14582e-89 0
8.44947e-30 -2.6782e-88 0
6.56407e-31 -6.08976e-87 0
4.94276e-32 -1.34495e-85 0
3.61063e-33 -2.87999e-84 0
2.56071e-34 -5.96716e-83 0
1.76457e-35 -1.19348e-81 0
1.18233e-36 -2.29798e-80 0
7.70843e-38 -4.24582e-79 0
4.89346e-39 -7.49891e-78 0
3.02671e-40 -1.26024e-76 0
1.82516e-41 -2.0039e-75 0
1.07365e-42 -2.99383e-74 0
6.16464e-44 -4.16533e-73 0
3.45677e-45 -5.33501e-72 0
1.89401e-46 -6.19435e-71 0
1.01451e-47 -6.38197e-70 0
5.31509e-49 -5.65627e-69 0
2.72484e-50 -4.10973e-68 0
1.3677e-51 -2.25535e-67 0
7.04579e-53 -7.95749e-67 0
3.79434e-50 -5.8234e-64 0
0 -3.41477e-136 0
-1.24535e-08 -1.34817e-134 0
4.67612e-09 -4.24776e-133 0
4.44948e-09 -1.23712e-131 0
4.23345e-08 -2.5402e-130 0
3.18093e-08 -2.42061e-130 0
0 0 0
0 0 0
0 0 0
1.34373e-11 5.90922e-118 0
5.67694e-12 -8.38769e-117 0
1.56347e-12 -3.15662e-115 0
3.5039e-13 -1.05812e-113 0
6.84825e-14 -3.49479e-112 0
1.20705e-14 -1.13711e-110 0
1.95635e-15 -3.64363e-109 0
2.95202e-16 -1.14936e-107 0
4.18179e-17 -3.56786e-106 0
5.59378e-18 -1.08945e-104 0
7.09574e-19 -3.27088e-103 0
8.56345e-20 -9.65108e-102 0
9.85784e-21 -2.79719e-100 0
1.08476e-21 -7.95913e-99 0
1.14316e-22 -2.22203e-97 0
1.15565e-23 -6.08268e-96 0
1.12239e-24 -1.63154e-94 0
1.04872e-25 -4.28471e-93 0
9.43935e-27 -1.10078e-91 0
8.19437e-28 -2.76396e-90 0
6.86879e-29 -6.77579e-89 0
5.56553e-30 -1.61988e-87 0
4.36356e-31 -3.77171e-86 0
3.31364e-32 -8.54051e-85 0
2.4395e-33 -1.87756e-83 0
1.74265e-34 -3.99974e-82 0
1.20891e-35 -8.23825e-81 0
8.15079e-37 -1.63636e-79 0
5.34505e-38 -3.12491e-78 0
3.41163e-39 -5.71649e-77 0
2.12095e-40 -9.97343e-76 0
1.28511e-41 -1.6506e-74 0
7.59379e-43 -2.57394e-73 0
4.37873e-44 -3.74974e-72 0
2.46521e-45 -5.04658e-71 0
1.35586e-46 -6.18119e-70 0
7.28873e-48 -6.74732e-69 0
3.83165e-49 -6.36573e-68 0
1.97072e-50 -4.94688e-67 0
9.92235e-52 -2.91392e-66 0
5.12725e-53 -1.09999e-65 0
2.72978e-50 -8.34258e-63 0
0 -7.11117e-135 0
-8.2709e-09 -2.77583e-133 0
3.63811e-10 -9.55729e-132 0
1.63153e-08 -3.13998e-130 0
3.05024e-08 -8.92416e-129 0
1.10863e-07 -1.80557e-127 0
7.37898e-08 -1.71937e-127 0
0 0 0
0 0 0
0 0 0
6.74167e-13 -3.18895e-116 0
6.05941e-13 -1.1572e-114 0
1.97067e-13 -3.92442e-113 0
4.57919e-14 -1.31104e-111 0
8.84611e-15 -4.3165e-110 0
1.51062e-15 -1.4002e-108 0
2.35216e-16 -4.47342e-107 0
3.39894e-17 -1.40712e-105 0
4.60761e-18 -4.35609e-104 0
5.90068e-19 -1.32666e-102 0
7.17305e-20 -3.97314e-101 0
8.3059e-21 -1.16953e-99 0
9.18552e-22 -3.38199e-98 0
9.72273e-23 -9.60245e-97 0
9.86807e-24 -2.67534e-95 0
9.61906e-25 -7.30943e-94 0
9.01817e-26 -1.95697e-92 0
8.14274e-27 -5.1303e-91 0
7.0897e-28 -1.31578e-89 0
5.95934e-29 -3.29827e-88 0
4.84126e-30 -8.07211e-87 0
3.80505e-31 -1.92646e-85 0
2.89622e-32 -4.47727e-84 0
2.13687e-33 -1.01174e-82 0
1.52962e-34 -2.21897e-81 0
1.0632e-35 -4.71369e-80 0
7.18162e-37 -9.67488e-79 0
4.71773e-38 -1.91322e-77 0
3.01623e-39 -3.63271e-76 0
1.87809e-40 -6.59547e-75 0
1.13965e-41 -1.13919e-73 0
6.74387e-43 -1.85997e-72 0
3.89391e-44 -2.84729e-71 0
2.19508e-45 -4.04316e-70 0
1.20877e-46 -5.24906e-69 0
6.50564e-48 -6.10479e-68 0
3.42381e-49 -6.17166e-67 0
1.76284e-50 -5.17032e-66 0
8.88477e-52 -3.30004e-65 0
4.59579e-53 -1.34737e-64 0
2.44874e-50 -1.06095e-61 0
0 -1.58372e-133 0
-3.94695e-09 -6.12535e-132 0
3.35025e-09 -2.28517e-130 0
2.19351e-08 -8.16318e-129 0
4.30666e-08 -2.66098e-127 0
1.75777e-07 -7.27702e-126 0
1.84187e-07 -1.35004e-124 0
3.43373e-08 -1.27985e-124 0
0 0 0
0 0 0
0 -9.17463e-116 0
2.6027e-12 -3.28033e-114 0
7.09362e-13 -1.12393e-112 0
1.3863e-13 -3.79778e-111 0
2.31725e-14 -1.26528e-109 0
3.50935e-15 -4.15511e-108 0
4.94384e-16 -1.34457e-106 0
6.56991e-17 -4.28598e-105 0
8.30183e-18 -1.34533e-103 0
1.0022e-18 -4.15676e-102 0
1.15921e-19 -1.26375e-100 0
1.28708e-20 -3.7788e-99 0
1.37359e-21 -1.11081e-97 0
1.41048e-22 -3.20845e-96 0
1.39483e-23 -9.10097e-95 0
1.32952e-24 -2.53373e-93 0
1.22249e-25 -6.9188e-92 0
1.08527e-26 -1.85178e-90 0
9.30971e-28 -4.85393e-89 0
7.72326e-29 -1.24498e-87 0
6.20145e-30 -3.12157e-86 0
4.82358e-31 -7.64265e-85 0
3.63729e-32 -1.82488e-83 0
2.6611e-33 -4.24355e-82 0
1.89038e-34 -9.59431e-81 0
1.30486e-35 -2.10507e-79 0
8.75813e-37 -4.47217e-78 0
5.72e-38 -9.17546e-77 0
3.6375e-39 -1.81226e-75 0
2.25377e-40 -3.43266e-74 0
1.3614e-41 -6.20576e-73 0
8.02197e-43 -1.06444e-71 0
4.61366e-44 -1.71899e-70 0
2.59128e-45 -2.58733e-69 0
1.42205e-46 -3.57981e-68 0
7.62898e-48 -4.46471e-67 0
4.00292e-49 -4.87454e-66 0
2.05517e-50 -4.44448e-65 0
1.03305e-51 -3.11007e-64 0
5.32959e-53 -1.39269e-63 0
2.88329e-50 -1.14082e-60 0
0 -2.73989e-132 0
-4.12166e-10 -1.05038e-130 0
7.46856e-09 -4.17478e-129 0
2.45908e-08 -1.58501e-127 0
6.73749e-08 -5.68807e-126 0
1.74264e-07 -1.85845e-124 0
1.786e-07 -5.16326e-123 0
6.08345e-08 -1.03089e-121 0
4.61905e-09 -9.81061e-122 0
7.10314e-10 0 0
1.14375e-10 -1.79505e-115 0
1.94465e-11 -6.48071e-114 0
3.02464e-12 -2.2442e-112 0
4.39399e-13 -7.66754e-111 0
6.04247e-14 -2.58411e-109 0
7.93631e-15 -8.58839e-108 0
1.00142e-15 -2.81408e-106 0
1.21841e-16 -9.08774e-105 0
1.43229e-17 -2.89158e-103 0
1.62837e-18 -9.06205e-102 0
1.791e-19 -2.79625e-100 0
1.90566e-20 -8.49209e-99 0
1.96128e-21 -2.53726e-97 0
1.95225e-22 -7.4547e-96 0
1.87941e-23 -2.15279e-94 0
1.75006e-24 -6.10729e-93 0
1.57664e-25 -1.70107e-91 0
1.37472e-26 -4.64882e-90 0
1.16063e-27 -1.24569e-88 0
9.49279e-29 -3.27025e-87 0
7.52603e-30 -8.40391e-86 0
5.78726e-31 -2.11195e-84 0
4.31904e-32 -5.18447e-83 0
3.1303e-33 -1.24164e-81 0
2.20469e-34 -2.8968e-80 0
1.5099e-35 -6.57263e-79 0
1.00615e-36 -1.44741e-77 0
6.52761e-38 -3.08634e-76 0
4.1256e-39 -6.35421e-75 0
2.54164e-40 -1.25873e-73 0
1.52714e-41 -2.38882e-72 0
8.95416e-43 -4.31958e-71 0
5.12601e-44 -7.38989e-70 0
2.86659e-45 -1.18493e-68 0
1.56675e-46 -1.75793e-67 0
8.37315e-48 -2.36879e-66 0
4.37758e-49 -2.81901e-65 0
2.2399e-50 -2.83012e-64 0
1.12229e-51 -2.20356e-63 0
5.77167e-53 -1.10244e-62 0
3.16746e-50 -9.41489e-60 0
0 -2.75374e-131 0
1.35537e-09 -1.04697e-129 0
7.29185e-09 -4.30888e-128 0
2.15272e-08 -1.71234e-126 0
5.81246e-08 -6.73074e-125 0
1.03902e-07 -2.61679e-123 0
8.77773e-08 -1.00628e-121 0
3.43127e-08 -3.82774e-120 0
6.46974e-09 -1.44026e-118 0
1.05668e-09 -5.36023e-117 0
1.72156e-10 -1.97156e-115 0
2.60037e-11 -6.9859e-114 0
3.6953e-12 -2.4421e-112 0
4.99298e-13 -8.42661e-111 0
6.46498e-14 -2.86942e-109 0
8.06765e-15 -9.64015e-108 0
9.74063e-16 -3.19459e-106 0
1.14056e-16 -1.04394e-104 0
1.29671e-17 -3.36311e-103 0
1.43186e-18 -1.06779e-101 0
1.53525e-19 -3.34022e-100 0
1.59758e-20 -1.0291e-98 0
1.61251e-21 -3.12164e-97 0
1.5779e-22 -9.31919e-96 0
1.4964e-23 -2.73691e-94 0
1.37506e-24 -7.90376e-93 0
1.22434e-25 -2.24326e-91 0
1.05643e-26 -6.25406e-90 0
8.83607e-28 -1.71166e-88 0
7.1666e-29 -4.59576e-87 0
5.6389e-30 -1.20964e-85 0
4.30644e-31 -3.11851e-84 0
3.19388e-32 -7.86718e-83 0
2.30165e-33 -1.93998e-81 0
1.61261e-34 -4.67024e-80 0
1.09911e-35 -1.09599e-78 0
7.29165e-37 -2.50299e-77 0
4.71123e-38 -5.55137e-76 0
2.96627e-39 -1.19278e-74 0
1.82094e-40 -2.47525e-73 0
1.0905e-41 -4.94235e-72 0
6.37423e-43 -9.44956e-71 0
3.63851e-44 -1.71919e-69 0
2.02922e-45 -2.9513e-68 0
1.10624e-46 -4.72491e-67 0
5.89784e-48 -6.93565e-66 0
3.07645e-49 -9.09369e-65 0
1.57076e-50 -1.01954e-63 0
7.85421e-52 -9.0015e-63 0
4.03109e-53 -5.16014e-62 0
2.23064e-50 -4.60499e-59 0
0 0 0
7.50439e-10 0 0
2.9828e-09 0 0
8.35701e-09 0 0
1.87412e-08 0 0
2.6361e-08 0 0
1.95741e-08 0 0
7.81557e-09 0 0
1.85069e-09 0 0
3.46363e-10 0 0
5.77814e-11 0 0
8.83876e-12 0 0
1.26287e-12 0 0
1.70734e-13 0 0
2.20467e-14 0 0
2.73756e-15 0 0
3.28396e-16 0 0
3.8171e-17 0 0
4.30603e-18 0 0
4.71748e-19 0 0
5.01926e-20 0 0
5.18465e-21 0 0
5.19693e-22 0 0
5.05275e-23 0 0
4.76337e-24 0 0
4.35334e-25 0 0
3.85687e-26 0 0
3.31281e-27 0 0
2.75934e-28 0 0
2.22948e-29 0 0
1.7481e-30 0 0
1.33076e-31 0 0
9.8405e-33 0 0
7.07221e-34 0 0
4.94257e-35 0 0
3.36087e-36 0 0
2.22483e-37 0 0
1.4346e-38 0 0
9.01553e-40 0 0
5.52477e-41 0 0
3.30316e-42 0 0
1.9278e-43 0 0
1.09882e-44 0 0
6.11983e-46 0 0
3.33199e-47 0 0
1.77426e-48 0 0
9.24431e-50 0 0
4.71478e-51 0 0
2.35508e-52 0 0
1.20748e-53 0 0
6.70869e-51 0 0
0 0 -1.22059e-134
3.89604e-09 0 -4.73e-133
1.41928e-08 0 -2.34339e-131
3.22927e-08 0 -1.10457e-129
5.43717e-08 0 -4.65039e-128
4.51122e-08 0 -1.56403e-126
2.082e-08 0 -2.95702e-125
6.61452e-09 0 -1.4237e-124
1.67282e-09 0 -4.83236e-123
3.63057e-10 0 -1.6265e-121
7.03721e-11 0 -5.38332e-120
1.24761e-11 0 -1.75405e-118
2.05508e-12 0 -5.62573e-117
3.17962e-13 0 -1.77548e-115
4.65618e-14 0 -5.51168e-114
6.48796e-15 0 -1.68229e-112
8.63384e-16 0 -5.04634e-111
1.10003e-16 0 -1.48697e-109
1.34416e-17 0 -4.30187e-108
1.57718e-18 0 -1.22126e-106
1.7787e-19 0 -3.40017e-105
1.92958e-20 0 -9.27815e-104
2.01503e-21 0 -2.47969e-102
2.0271e-22 0 -6.48616e-101
1.96594e-23 0 -1.65916e-99
1.8395e-24 0 -4.14685e-98
1.66189e-25 0 -1.01174e-96
1.45085e-26 0 -2.40702e-95
1.22493e-27 0 -5.5777e-94
1.00097e-28 0 -1.2573e-92
7.92299e-30 0 -2.75304e-91
6.07939e-31 0 -5.84635e-90
4.52549e-32 0 -1.20192e-88
3.27062e-33 0 -2.38731e-87
2.2965e-34 0 -4.5706e-86
1.56777e-35 0 -8.41234e-85
1.04129e-36 0 -1.48388e-83
6.73314e-38 0 -2.49952e-82
4.24127e-39 0 -4.0035e-81
2.60417e-40 0 -6.06648e-80
1.55953e-41 0 -8.64303e-79
9.11407e-43 0 -1.14901e-77
5.20069e-44 0 -1.4118e-76
2.89911e-45 0 -1.58377e-75
1.57959e-46 0 -1.59617e-74
8.41601e-48 0 -1.41376e-73
4.38686e-49 0 -1.06651e-72
2.2381e-50 0 -6.53556e-72
1.1182e-51 0 -3.01069e-71
5.73398e-53 0 -9.04427e-71
3.14791e-50 0 -5.98557e-68
0.0036 -8.37551e-134 -1.6498e-134
0.00498525 -9.19429e-130 -2.73332e-130
0.00500512 -5.14774e-128 -2.36462e-128
0.00441614 -3.328e-126 -2.04498e-126
0.00340358 -2.18346e-124 -1.59015e-124
0.0015899 -1.51575e-122 -1.03678e-122
0.000494715 -3.74045e-121 -3.00526e-121
0.000118592 -3.52244e-121 -3.50371e-121
2.43323e-05 -1.19333e-119 -1.19334e-119
4.49014e-06 -4.10571e-118 -4.10564e-118
7.63627e-07 -1.38501e-116 -1.385e-116
1.21415e-07 -4.59911e-115 -4.59909e-115
1.82201e-08 -1.50379e-113 -1.50378e-113
2.59748e-09 -4.84027e-112 -4.84027e-112
3.53378e-10 -1.53308e-110 -1.53308e-110
4.60207e-11 -4.77636e-109 -4.77636e-109
5.74911e-12 -1.46313e-107 -1.46313e-107
6.89927e-13 -4.40475e-106 -4.40475e-106
7.96162e-14 -1.30259e-104 -1.30259e-104
8.84172e-15 -3.7819e-103 -3.7819e-103
9.45589e-16 -1.07744e-101 -1.07744e-101
9.74488e-17 -3.01015e-100 -3.01015e-100
9.68362e-18 -8.24171e-99 -8.24171e-99
9.28487e-19 -2.20992e-97 -2.20992e-97
8.59591e-20 -5.7987e-96 -5.7987e-96
7.6895e-21 -1.48771e-94 -1.48771e-94
6.65142e-22 -3.7286e-93 -3.7286e-93
5.56756e-23 -9.11958e-92 -9.11958e-92
4.51311e-24 -2.17433e-90 -2.17433e-90
3.54547e-25 -5.04736e-89 -5.04736e-89
2.70133e-26 -1.1392e-87 -1.1392e-87
1.99758e-27 -2.49609e-86 -2.49609e-86
1.4347e-28 -5.30033e-85 -5.30033e-85
1.0015e-29 -1.08862e-83 -1.08862e-83
6.79937e-31 -2.15777e-82 -2.15777e-82
4.49254e-32 -4.11696e-81 -4.11696e-81
2.89066e-33 -7.53865e-80 -7.53865e-80
1.81238e-34 -1.32019e-78 -1.32019e-78
1.10791e-35 -2.20197e-77 -2.20197e-77
6.60707e-37 -3.48065e-76 -3.48065e-76
3.84591e-38 -5.1828e-75 -5.1828e-75
2.18627e-39 -7.21593e-74 -7.21593e-74
1.21435e-40 -9.30623e-73 -9.30623e-73
6.59378e-42 -1.09842e-71 -1.09842e-71
3.50168e-43 -1.16772e-70 -1.16772e-70
1.81956e-44 -1.0939e-69 -1.0939e-69
9.25546e-46 -8.7507e-69 -8.7507e-69
4.61054e-47 -5.69856e-68 -5.69856e-68
2.25035e-48 -2.79054e-67 -2.79054e-67
1.12676e-49 -8.85342e-67 -8.85342e-67
1.12471e-49 -1.3096e-66 -1.3096e-66
0.01 -4.30449e-133 -4.95569e-135
0.0111667 -4.74129e-129 -1.26097e-130
0.0109363 -2.57511e-127 -1.82146e-128
0.0098087 -1.90423e-125 -2.10181e-126
0.00862086 -1.10762e-123 -3.44831e-124
0.00361479 -3.1748e-121 -1.7794e-121
0.00101327 -1.46772e-119 -1.17097e-119
0.000220551 -2.36594e-120 -2.39067e-120
4.23827e-05 -8.04784e-119 -8.05924e-119
7.48814e-06 -2.8418e-117 -2.84229e-117
1.23673e-06 -9.69898e-116 -9.69899e-116
1.92739e-07 -3.25338e-114 -3.25336e-114
2.85286e-08 -1.07472e-112 -1.07472e-112
4.02932e-09 -3.49605e-111 -3.49605e-111
5.44823e-10 -1.1195e-109 -1.1195e-109
7.06836e-11 -3.52757e-108 -3.52757e-108
8.81171e-12 -1.09333e-106 -1.09333e-106
1.05657e-12 -3.33167e-105 -3.33167e-105
1.21932e-13 -9.97723e-104 -9.97723e-104
1.35503e-14 -2.93481e-102 -2.93481e-102
1.45075e-15 -8.475e-101 -8.475e-101
1.49716e-16 -2.40127e-99 -2.40127e-99
1.49007e-17 -6.67139e-98 -6.67139e-98
1.43107e-18 -1.81624e-96 -1.81624e-96
1.32712e-19 -4.8417e-95 -4.8417e-95
1.18919e-20 -1.26282e-93 -1.26282e-93
1.03037e-21 -3.21981e-92 -3.21981e-92
8.63876e-23 -8.01765e-91 -8.01765e-91
7.0137e-24 -1.94775e-89 -1.94775e-89
5.51828e-25 -4.61083e-88 -4.61083e-88
4.21056e-26 -1.06223e-86 -1.06223e-86
3.11797e-27 -2.37802e-85 -2.37802e-85
2.24238e-28 -5.16479e-84 -5.16479e-84
1.5673e-29 -1.08621e-82 -1.08621e-82
1.06536e-30 -2.20735e-81 -2.20735e-81
7.04727e-32 -4.32362e-80 -4.32362e-80
4.53948e-33 -8.13951e-79 -8.13951e-79
2.84916e-34 -1.46778e-77 -1.46778e-77
1.74344e-35 -2.5252e-76 -2.5252e-76
1.04071e-36 -4.12494e-75 -4.12494e-75
6.06342e-38 -6.36043e-74 -6.36043e-74
3.44988e-39 -9.19079e-73 -9.19079e-73
1.91782e-40 -1.23322e-71 -1.23322e-71
1.04219e-41 -1.5185e-70 -1.5185e-70
5.53887e-43 -1.68904e-69 -1.68904e-69
2.88027e-44 -1.66073e-68 -1.66073e-68
1.46612e-45 -1.39896e-67 -1.39896e-67
7.30833e-47 -9.6222e-67 -9.6222e-67
3.56943e-48 -4.98466e-66 -4.98466e-66
1.7884e-49 -1.66547e-65 -1.66547e-65
1.78514e-49 -2.49882e-65 -2.49882e-65
0.0148 -2.92018e-134 -7.14875e-134
0.016596 -4.2401e-130 1.09079e-129
0.0167587 -1.27728e-128 -4.09415e-128
0.0148755 -8.64138e-127 1.02939e-126
0.0155578 -2.14777e-125 -2.92082e-124
0.00235407 -2.06259e-125 -1.68085e-121
0.000626463 0 -1.14171e-119
0.000129458 5.7972e-118 4.47818e-118
2.75812e-05 -4.23031e-118 -4.32888e-118
5.23101e-06 -1.69598e-116 -1.70083e-116
9.1041e-07 -5.92743e-115 -5.92905e-115
1.47756e-07 -2.01173e-113 -2.01173e-113
2.25935e-08 -6.71776e-112 -6.71775e-112
3.27782e-09 -2.20981e-110 -2.20981e-110
4.53341e-10 -7.15845e-109 -7.15845e-109
5.99645e-11 -2.28274e-107 -2.28274e-107
7.60193e-12 -7.16313e-106 -7.16313e-106
9.24996e-13 -2.21095e-104 -2.21095e-104
1.0814e-13 -6.70958e-103 -6.70958e-103
1.21565e-14 -2.001e-101 -2.001e-101
1.31495e-15 -5.86162e-100 -5.86162e-100
1.36955e-16 -1.68566e-98 -1.68566e-98
1.3744e-17 -4.75612e-97 -4.75612e-97
1.32991e-18 -1.3158e-95 -1.3158e-95
1.24173e-19 -3.5668e-94 -3.5668e-94
1.1196e-20 -9.46666e-93 -9.46666e-93
9.75598e-22 -2.45802e-91 -2.45802e-91
8.22227e-23 -6.23809e-90 -6.23809e-90
6.70768e-24 -1.54583e-88 -1.54583e-88
5.30097e-25 -3.73622e-87 -3.73622e-87
4.06141e-26 -8.79682e-86 -8.79682e-86
3.01903e-27 -2.01483e-84 -2.01483e-84
2.17896e-28 -4.48219e-83 -4.48219e-83
1.52804e-29 -9.6673e-82 -9.6673e-82
1.0419e-30 -2.01742e-80 -2.01742e-80
6.91222e-32 -4.06389e-79 -4.06389e-79
4.4647e-33 -7.8804e-78 -7.8804e-78
2.80945e-34 -1.46628e-76 -1.46628e-76
1.72333e-35 -2.60782e-75 -2.60782e-75
1.03107e-36 -4.41293e-74 -4.41293e-74
6.02031e-38 -7.065e-73 -7.065e-73
3.43241e-39 -1.06264e-71 -1.06264e-71
1.91184e-40 -1.4883e-70 -1.4883e-70
1.04087e-41 -1.9187e-69 -1.9187e-69
5.54164e-43 -2.24204e-68 -2.24204e-68
2.88655e-44 -2.3244e-67 -2.3244e-67
1.47168e-45 -2.07259e-66 -2.07259e-66
7.34728e-47 -1.51465e-65 -1.51465e-65
3.59371e-48 -8.35708e-65 -8.35708e-65
1.8032e-49 -2.96197e-64 -2.96197e-64
1.79989e-49 -4.51352e-64 -4.51352e-64
0.018 -1.07613e-135 -1.38948e-132
0.0202168 -2.65837e-131 1.56909e-128
0.0211912 -3.68734e-130 -7.29127e-127
0.0181711 -3.08018e-128 3.149e-125
0.0219192 -4.12026e-127 -3.45379e-123
0 -3.81566e-127 -3.48603e-123
0 0 0
0 0 4.49896e-118
3.59988e-06 -2.43414e-116 -1.92435e-116
1.24481e-06 -7.97068e-116 -8.15748e-116
2.88486e-07 -3.12501e-114 -3.13199e-114
5.58453e-08 -1.08256e-112 -1.08257e-112
9.64887e-09 -3.6553e-111 -3.6553e-111
1.53281e-09 -1.21626e-109 -1.21626e-109
2.27478e-10 -3.98688e-108 -3.98688e-108
3.18365e-11 -1.28706e-106 -1.28706e-106
4.22692e-12 -4.09038e-105 -4.09038e-105
5.345e-13 -1.27927e-103 -1.27927e-103
6.4549e-14 -3.93564e-102 -3.93564e-102
7.46002e-15 -1.19051e-100 -1.19051e-100
8.26434e-16 -3.53922e-99 -3.53922e-99
8.78808e-17 -1.03353e-97 -1.03353e-97
8.98121e-18 -2.96302e-96 -2.96302e-96
8.83138e-19 -8.3347e-95 -8.3347e-95
8.36464e-20 -2.29883e-93 -2.29883e-93
7.63915e-21 -6.21267e-92 -6.21267e-92
6.73378e-22 -1.64388e-90 -1.64388e-90
5.73473e-23 -4.25515e-89 -4.25515e-89
4.72299e-24 -1.07647e-87 -1.07647e-87
3.76502e-25 -2.65878e-86 -2.65878e-86
2.90767e-26 -6.40396e-85 -6.40396e-85
2.1773e-27 -1.50222e-83 -1.50222e-83
1.58212e-28 -3.42687e-82 -3.42687e-82
1.11648e-29 -7.58943e-81 -7.58943e-81
7.65734e-31 -1.62867e-79 -1.62867e-79
5.10778e-32 -3.37909e-78 -3.37909e-78
3.316e-33 -6.7606e-77 -6.7606e-77
2.09658e-34 -1.30034e-75 -1.30034e-75
1.29182e-35 -2.39571e-74 -2.39571e-74
7.76148e-37 -4.20921e-73 -4.20921e-73
4.54985e-38 -7.01473e-72 -7.01473e-72
2.60377e-39 -1.10139e-70 -1.10139e-70
1.45543e-40 -1.61535e-69 -1.61535e-69
7.95043e-42 -2.18844e-68 -2.18844e-68
4.24632e-43 -2.69786e-67 -2.69786e-67
2.21853e-44 -2.96359e-66 -2.96359e-66
1.13435e-45 -2.81312e-65 -2.81312e-65
5.67867e-47 -2.19893e-64 -2.19893e-64
2.78481e-48 -1.30234e-63 -1.30234e-63
1.40095e-49 -4.93896e-63 -4.93896e-63
1.39835e-49 -7.65434e-63 -7.65434e-63
0.0196 -2.83501e-136 3.7749e-133
0.0220844 -4.47674e-132 -2.66959e-129
0.0232662 -1.08893e-130 3.8495e-128
0.0204423 -4.50831e-129 -2.46211e-126
0.0237442 -1.31806e-127 -1.32409e-123
0.00731154 -1.27402e-127 -1.16232e-121
0 0 -1.14911e-121
0 0 0
0 0 -1.88805e-116
1.47703e-07 9.1466e-115 6.35341e-115
5.59229e-08 -1.2894e-113 -1.31671e-113
1.40367e-08 -4.94134e-112 -4.94148e-112
2.89998e-09 -1.68759e-110 -1.68759e-110
5.26999e-10 -5.68125e-109 -5.68125e-109
8.69099e-11 -1.88498e-107 -1.88498e-107
1.324e-11 -6.16198e-106 -6.16198e-106
1.88419e-12 -1.98397e-104 -1.98397e-104
2.52379e-13 -6.28925e-103 -6.28925e-103
3.19879e-14 -1.9622e-101 -1.9622e-101
3.85164e-15 -6.0227e-100 -6.0227e-100
4.41946e-16 -1.81783e-98 -1.81783e-98
4.8444e-17 -5.39291e-97 -5.39291e-97
5.08359e-18 -1.57174e-95 -1.57174e-95
5.11628e-19 -4.49767e-94 -4.49767e-94
4.94647e-20 -1.26294e-92 -1.26294e-92
4.60082e-21 -3.47763e-91 -3.47763e-91
4.12249e-22 -9.38378e-90 -9.38378e-90
3.563e-23 -2.47928e-88 -2.47928e-88
2.97381e-24 -6.40837e-87 -6.40837e-87
2.39955e-25 -1.61892e-85 -1.61892e-85
1.87377e-26 -3.99293e-84 -3.99293e-84
1.41741e-27 -9.60324e-83 -9.60324e-83
1.03961e-28 -2.2491e-81 -2.2491e-81
7.39985e-30 -5.12135e-80 -5.12135e-80
5.11579e-31 -1.13179e-78 -1.13179e-78
3.43781e-32 -2.42244e-77 -2.42244e-77
2.24728e-33 -5.00944e-76 -5.00944e-76
1.43004e-34 -9.97995e-75 -9.97995e-75
8.86437e-36 -1.9089e-73 -1.9089e-73
5.356e-37 -3.49098e-72 -3.49098e-72
3.15641e-38 -6.07302e-71 -6.07302e-71
1.81536e-39 -9.98563e-70 -9.98563e-70
1.01951e-40 -1.53925e-68 -1.53925e-68
5.59394e-42 -2.20062e-67 -2.20062e-67
3.00029e-43 -2.87598e-66 -2.87598e-66
1.57377e-44 -3.36649e-65 -3.36649e-65
8.07718e-46 -3.42467e-64 -3.42467e-64
4.05804e-47 -2.8862e-63 -2.8862e-63
1.99684e-48 -1.85245e-62 -1.85245e-62
1.00795e-49 -7.59931e-62 -7.59931e-62
1.00606e-49 -1.19966e-61 -1.19966e-61
0.0196 -6.31151e-135 2.74461e-133
0.0222662 -9.01378e-131 -1.52674e-129
0.0229289 -3.48496e-129 3.15798e-128
0.0213581 -1.41778e-127 2.9601e-126
0.0215812 -5.36812e-126 -1.35873e-124
0.0166604 -1.91344e-124 5.8591e-122
0.00405695 -1.86115e-124 -1.2873e-119
0 0 -1.29317e-119
0 0 0
0 0 7.02383e-115
6.17176e-09 -4.99e-113 -4.9434e-113
5.0485e-09 -1.84312e-111 -1.84336e-111
1.52953e-09 -6.37091e-110 -6.37091e-110
3.33849e-10 -2.17032e-108 -2.17032e-108
6.09e-11 -7.28996e-107 -7.28996e-107
9.85411e-12 -2.41366e-105 -2.41366e-105
1.45714e-12 -7.87486e-104 -7.87486e-104
2.00265e-13 -2.53094e-102 -2.53094e-102
2.58487e-14 -8.01019e-101 -8.01019e-101
3.15473e-15 -2.49552e-99 -2.49552e-99
3.65794e-16 -7.65e-98 -7.65e-98
4.04374e-17 -2.30652e-96 -2.30652e-96
4.27346e-18 -6.83672e-95 -6.83672e-95
4.32701e-19 -1.99119e-93 -1.99119e-93
4.20555e-20 -5.69529e-92 -5.69529e-92
3.93005e-21 -1.59881e-90 -1.59881e-90
3.53633e-22 -4.40225e-89 -4.40225e-89
3.06808e-23 -1.18805e-87 -1.18805e-87
2.56968e-24 -3.14006e-86 -3.14006e-86
2.0801e-25 -8.12074e-85 -8.12074e-85
1.62912e-26 -2.05297e-83 -2.05297e-83
1.23572e-27 -5.06778e-82 -5.06778e-82
9.08656e-29 -1.21999e-80 -1.21999e-80
6.48305e-30 -2.86009e-79 -2.86009e-79
4.49189e-31 -6.51884e-78 -6.51884e-78
3.02481e-32 -1.44179e-76 -1.44179e-76
1.98115e-33 -3.08748e-75 -3.08748e-75
1.26299e-34 -6.38454e-74 -6.38454e-74
7.8424e-36 -1.27087e-72 -1.27087e-72
4.74621e-37 -2.42574e-71 -2.42574e-71
2.80134e-38 -4.41868e-70 -4.41868e-70
1.61349e-39 -7.63569e-69 -7.63569e-69
9.07389e-41 -1.24214e-67 -1.24214e-67
4.98524e-42 -1.88299e-66 -1.88299e-66
2.67713e-43 -2.62348e-65 -2.62348e-65
1.40592e-44 -3.29416e-64 -3.29416e-64
7.22385e-46 -3.62005e-63 -3.62005e-63
3.63321e-47 -3.32126e-62 -3.32126e-62
1.78963e-48 -2.3376e-61 -2.3376e-61
9.04278e-50 -1.05201e-60 -1.05201e-60
9.02586e-50 -1.69462e-60 -1.69462e-60
0.018 -1.39868e-133 -1.38949e-132
0.020474 -2.65448e-129 1.52828e-128
0.0205902 -1.17901e-127 -6.53054e-127
0.0194699 -5.15444e-126 3.13291e-125
0.0183457 -2.13983e-124 -1.75148e-123
0.0165071 -7.81619e-123 8.51513e-122
0.00796736 -1.90556e-121 4.47467e-120
0.000841611 -1.82948e-121 2.62581e-117
0 0 2.62142e-117
0 0 0
0 -1.45906e-112 -1.44778e-112
2.31768e-08 -5.31458e-111 -5.31345e-111
5.82243e-09 -1.85684e-109 -1.85684e-109
1.06084e-09 -6.40105e-108 -6.40105e-108
1.66654e-10 -2.17672e-106 -2.17672e-106
2.38498e-11 -7.2999e-105 -7.2999e-105
3.18629e-12 -2.41362e-103 -2.41362e-103
4.02457e-13 -7.8656e-102 -7.8656e-102
4.84047e-14 -2.52561e-100 -2.52561e-100
5.56726e-15 -7.98778e-99 -7.98778e-99
6.13979e-16 -2.48745e-97 -2.48745e-97
6.50462e-17 -7.62398e-96 -7.62398e-96
6.62889e-18 -2.29894e-94 -2.29894e-94
6.50575e-19 -6.81705e-93 -6.81705e-93
6.15489e-20 -1.9869e-91 -1.9869e-91
5.61836e-21 -5.68896e-90 -5.68896e-90
4.95281e-22 -1.59925e-88 -1.59925e-88
4.22009e-23 -4.4111e-87 -4.4111e-87
3.47848e-24 -1.19294e-85 -1.19294e-85
2.77597e-25 -3.16075e-84 -3.16075e-84
2.14661e-26 -8.19744e-83 -8.19744e-83
1.60971e-27 -2.079e-81 -2.079e-81
1.17149e-28 -5.15033e-80 -5.15033e-80
8.28027e-30 -1.2447e-78 -1.2447e-78
5.68834e-31 -2.93022e-77 -2.93022e-77
3.80071e-32 -6.70819e-76 -6.70819e-76
2.47158e-33 -1.49041e-74 -1.49041e-74
1.56531e-34 -3.20604e-73 -3.20604e-73
9.66069e-36 -6.6581e-72 -6.6581e-72
5.81384e-37 -1.33025e-70 -1.33025e-70
3.41362e-38 -2.54587e-69 -2.54587e-69
1.95662e-39 -4.64174e-68 -4.64174e-68
1.09539e-40 -8.00548e-67 -8.00548e-67
5.99272e-42 -1.2938e-65 -1.2938e-65
3.20544e-43 -1.93422e-64 -1.93422e-64
1.67712e-44 -2.62574e-63 -2.62574e-63
8.58727e-46 -3.14714e-62 -3.14714e-62
4.30476e-47 -3.18102e-61 -3.18102e-61
2.11385e-48 -2.49243e-60 -2.49243e-60
1.06485e-49 -1.25376e-59 -1.25376e-59
1.06288e-49 -2.06485e-59 -2.06485e-59
0.0148 -3.73946e-132 7.1678e-134
0.0164876 -7.61237e-128 -1.95376e-129
0.0160181 -3.49733e-126 -1.09281e-127
0.0148042 -1.52421e-124 -2.4594e-125
0.0133214 -6.30522e-123 -3.47611e-123
0.0108881 -2.38021e-121 -6.80343e-121
0.005732 -7.42227e-120 -3.79129e-119
0.00134427 -1.56907e-118 -4.10765e-118
7.07921e-05 -1.49717e-118 -1.25871e-115
9.17438e-06 0 -4.97811e-114
1.2723e-06 -2.90052e-112 -2.94865e-112
1.89905e-07 -1.06729e-110 -1.06728e-110
2.66718e-08 -3.77057e-109 -3.77056e-109
3.56435e-09 -1.31491e-107 -1.31491e-107
4.56611e-10 -4.52551e-106 -4.52551e-106
5.63455e-11 -1.5368e-104 -1.5368e-104
6.71747e-12 -5.14801e-103 -5.14801e-103
7.74973e-13 -1.70066e-101 -1.70066e-101
8.65774e-14 -5.53898e-100 -5.53898e-100
9.36748e-15 -1.77807e-98 -1.77807e-98
9.81496e-16 -5.62385e-97 -5.62385e-97
9.95665e-17 -1.75202e-95 -1.75202e-95
9.7775e-18 -5.37411e-94 -5.37411e-94
9.2941e-19 -1.62242e-92 -1.62242e-92
8.5523e-20 -4.81868e-91 -4.81868e-91
7.61971e-21 -1.40734e-89 -1.40734e-89
6.57519e-22 -4.03975e-88 -4.03975e-88
5.49751e-23 -1.13908e-86 -1.13908e-86
4.4557e-24 -3.1531e-85 -3.1531e-85
3.50257e-25 -8.56263e-84 -8.56263e-84
2.67192e-26 -2.27947e-82 -2.27947e-82
1.97916e-27 -5.94356e-81 -5.94356e-81
1.42436e-28 -1.51645e-79 -1.51645e-79
9.96558e-30 -3.78184e-78 -3.78184e-78
6.78254e-31 -9.20694e-77 -9.20694e-77
4.49313e-32 -2.18487e-75 -2.18487e-75