# vtk DataFile Version 2.0
Tobias Weinzierl: CPU, Manycore and Cluster Computing
ASCII

DATASET STRUCTURED_POINTS
DIMENSIONS  51 11 6

ORIGIN 0 0 0 

SPACING 0.1 0.1 0.1 

POINT_DATA 3366

VECTORS velocity float
0 0 0
5.139e-09 0 0
1.338e-08 0 0
1.90664e-08 0 0
1.49651e-08 0 0
6.2415e-09 0 0
1.76858e-09 0 0
3.95707e-10 0 0
7.57436e-11 0 0
1.29477e-11 0 0
2.02497e-12 0 0
2.93874e-13 0 0
3.99097e-14 0 0
5.09833e-15 0 0
6.14736e-16 0 0
7.01347e-17 0 0
7.5863e-18 0 0
7.79389e-19 0 0
7.61792e-20 0 0
7.09555e-21 0 0
6.30806e-22 0 0
5.36095e-23 0 0
4.36196e-24 0 0
3.40292e-25 0 0
2.54895e-26 0 0
1.83568e-27 0 0
1.27267e-28 0 0
8.50462e-30 0 0
5.48425e-31 0 0
3.41653e-32 0 0
2.05834e-33 0 0
1.20045e-34 0 0
6.78394e-36 0 0
3.71808e-37 0 0
1.978e-38 0 0
1.02226e-39 0 0
5.13635e-41 0 0
2.5109e-42 0 0
1.19506e-43 0 0
5.54144e-45 0 0
2.505e-46 0 0
1.10461e-47 0 0
4.75423e-49 0 0
1.9983e-50 0 0
8.20692e-52 0 0
3.29505e-53 0 0
1.29395e-54 0 0
4.97223e-56 0 0
1.87058e-57 0 0
7.14039e-59 0 0
2.8409e-56 0 0
0 -1.93581e-145 0
1.42953e-08 -1.0282e-143 0
4.56119e-08 -6.57674e-142 0
8.02833e-08 -4.02908e-140 0
7.34072e-08 -2.16819e-138 0
3.01603e-08 -9.16087e-137 0
8.09277e-09 -2.48188e-135 0
1.71225e-09 -1.06522e-135 0
3.12908e-10 -4.50462e-134 0
5.15711e-11 -2.01444e-132 0
7.84117e-12 -8.84212e-131 0
1.11374e-12 -3.81949e-129 0
1.48821e-13 -1.62376e-127 0
1.87829e-14 -6.79139e-126 0
2.24459e-15 -2.79346e-124 0
2.544e-16 -1.12951e-122 0
2.73848e-17 -4.48747e-121 0
2.80344e-18 -1.75093e-119 0
2.73303e-19 -6.70607e-118 0
2.54079e-20 -2.51976e-116 0
2.25568e-21 -9.28291e-115 0
1.91509e-22 -3.35093e-113 0
1.55711e-23 -1.18441e-111 0
1.21415e-24 -4.09613e-110 0
9.09147e-26 -1.38492e-108 0
6.54598e-27 -4.57374e-107 0
4.53775e-28 -1.47399e-105 0
3.03217e-29 -4.63055e-104 0
1.95531e-30 -1.41637e-102 0
1.21815e-31 -4.21271e-101 0
7.33938e-33 -1.21664e-99 0
4.28082e-34 -3.40625e-98 0
2.41941e-35 -9.2281e-97 0
1.32617e-36 -2.41422e-95 0
7.05607e-38 -6.08484e-94 0
3.64716e-39 -1.47352e-92 0
1.83277e-40 -3.41774e-91 0
8.96075e-42 -7.56502e-90 0
4.26545e-43 -1.59107e-88 0
1.97816e-44 -3.16321e-87 0
8.94352e-46 -5.9074e-86 0
3.94431e-47 -1.02832e-84 0
1.69786e-48 -1.65233e-83 0
7.13741e-50 -2.42019e-82 0
2.9317e-51 -3.1782e-81 0
1.17722e-52 -3.65758e-80 0
4.62349e-54 -3.56986e-79 0
1.77688e-55 -2.81003e-78 0
6.68554e-57 -1.63903e-77 0
2.55232e-58 -6.00737e-77 0
1.01626e-55 -3.05635e-74 0
0 -1.35206e-144 0
1.5021e-08 -7.10431e-143 0
5.78553e-08 -5.60579e-141 0
1.47532e-07 -4.58696e-139 0
1.85157e-07 -3.5766e-137 0
6.89488e-08 -2.41821e-135 0
1.67058e-08 -1.28208e-133 0
3.232e-09 -9.83334e-135 0
5.54008e-10 -3.90656e-133 0
8.71833e-11 -1.7934e-131 0
1.28218e-11 -7.96267e-130 0
1.77853e-12 -3.47358e-128 0
2.33758e-13 -1.49147e-126 0
2.91733e-14 -6.30249e-125 0
3.4605e-15 -2.62001e-123 0
3.90374e-16 -1.07105e-121 0
4.19046e-17 -4.30374e-120 0
4.28354e-18 -1.69905e-118 0
4.17356e-19 -6.58686e-117 0
3.88011e-20 -2.50629e-115 0
3.4462e-21 -9.35443e-114 0
2.92788e-22 -3.42272e-112 0
2.38263e-23 -1.22689e-110 0
1.85962e-24 -4.30534e-109 0
1.39388e-25 -1.47789e-107 0
1.00464e-26 -4.95835e-106 0
6.97147e-28 -1.6244e-104 0
4.66315e-29 -5.19115e-103 0
3.01003e-30 -1.61645e-101 0
1.87704e-31 -4.8983e-100 0
1.13198e-32 -1.44249e-98 0
6.60837e-34 -4.12177e-97 0
3.73811e-35 -1.14078e-95 0
2.05069e-36 -3.05213e-94 0
1.09197e-37 -7.8759e-93 0
5.64847e-39 -1.95507e-91 0
2.84054e-40 -4.6545e-90 0
1.38976e-41 -1.05899e-88 0
6.61987e-43 -2.29296e-87 0
3.07201e-44 -4.70104e-86 0
1.38975e-45 -9.07041e-85 0
6.13274e-47 -1.63457e-83 0
2.64137e-48 -2.72505e-82 0
1.11097e-49 -4.15132e-81 0
4.56569e-51 -5.68488e-80 0
1.83427e-52 -6.84183e-79 0
7.20745e-54 -7.00411e-78 0
2.77121e-55 -5.799e-77 0
1.04313e-56 -3.56376e-76 0
3.9841e-58 -1.37148e-75 0
1.58542e-55 -7.18836e-73 0
0 -7.8477e-146 0
1.23359e-08 -4.16603e-144 0
3.8006e-08 -2.56231e-142 0
1.46009e-07 -1.48846e-140 0
3.1016e-07 -6.33944e-139 0
4.50299e-08 -6.19312e-139 0
1.03816e-08 0 0
1.91546e-09 6.5895e-132 0
3.59903e-10 -2.65402e-132 0
6.02873e-11 -1.38295e-130 0
9.28492e-12 -6.285e-129 0
1.33503e-12 -2.77296e-127 0
1.80622e-13 -1.20309e-125 0
2.3087e-14 -5.13877e-124 0
2.79404e-15 -2.16007e-122 0
3.20614e-16 -8.93214e-121 0
3.49244e-17 -3.63196e-119 0
3.61566e-18 -1.45156e-117 0
3.56214e-19 -5.69937e-116 0
3.3442e-20 -2.19736e-114 0
2.99605e-21 -8.31422e-113 0
2.56517e-22 -3.08555e-111 0
2.10196e-23 -1.12244e-109 0
1.65083e-24 -3.99954e-108 0
1.24439e-25 -1.39495e-106 0
9.01524e-27 -4.75829e-105 0
6.28536e-28 -1.58601e-103 0
4.22237e-29 -5.16059e-102 0
2.73634e-30 -1.63744e-100 0
1.71262e-31 -5.06038e-99 0
1.03633e-32 -1.52117e-97 0
6.06909e-34 -4.44125e-96 0
3.44314e-35 -1.25728e-94 0
1.89405e-36 -3.44457e-93 0
1.01114e-37 -9.11307e-92 0
5.24295e-39 -2.32239e-90 0
2.64257e-40 -5.68431e-89 0
1.29565e-41 -1.33171e-87 0
6.18395e-43 -2.97418e-86 0
2.87515e-44 -6.3013e-85 0
1.30302e-45 -1.25898e-83 0
5.75976e-47 -2.35467e-82 0
2.48472e-48 -4.08426e-81 0
1.04668e-49 -6.4912e-80 0
4.30773e-51 -9.30178e-79 0
1.73302e-52 -1.17529e-77 0
6.81862e-54 -1.26754e-76 0
2.625e-55 -1.10938e-75 0
9.89288e-57 -7.22406e-75 0
3.78294e-58 -2.93693e-74 0
1.49832e-55 -1.58781e-71 0
0 -2.9574e-147 0
1.40914e-08 -1.58635e-145 0
2.68633e-08 -8.04238e-144 0
7.9423e-08 -3.67452e-142 0
3.77517e-07 -1.12914e-140 0
0 -1.09318e-140 0
0 0 0
0 0 0
4.3059e-11 -3.51246e-130 0
1.31515e-11 -8.38973e-130 0
2.70893e-12 -4.27148e-128 0
4.66028e-13 -1.92246e-126 0
7.13153e-14 -8.43049e-125 0
9.97306e-15 -3.64087e-123 0
1.29236e-15 -1.54799e-121 0
1.56457e-16 -6.47709e-120 0
1.77916e-17 -2.66606e-118 0
1.90795e-18 -1.07909e-116 0
1.93568e-19 -4.29284e-115 0
1.8629e-20 -1.67774e-113 0
1.70483e-21 -6.43836e-112 0
1.48679e-22 -2.42468e-110 0
1.23812e-23 -8.95573e-109 0
9.86335e-25 -3.24217e-107 0
7.5298e-26 -1.14962e-105 0
5.51743e-27 -3.9895e-104 0
3.8863e-28 -1.35384e-102 0
2.63508e-29 -4.4885e-101 0
1.72218e-30 -1.45236e-99 0
1.08626e-31 -4.58138e-98 0
6.62e-33 -1.40708e-96 0
3.90238e-34 -4.20176e-95 0
2.22738e-35 -1.21797e-93 0
1.23219e-36 -3.42097e-92 0
6.61261e-38 -9.29109e-91 0
3.44556e-39 -2.43417e-89 0
1.7446e-40 -6.13469e-88 0
8.59051e-42 -1.48241e-86 0
4.11669e-43 -3.42127e-85 0
1.92127e-44 -7.50604e-84 0
8.7384e-46 -1.5565e-82 0
3.87572e-47 -3.02906e-81 0
1.67731e-48 -5.48217e-80 0
7.08703e-50 -9.11958e-79 0
2.92514e-51 -1.37254e-77 0
1.18002e-52 -1.82836e-76 0
4.65488e-54 -2.0875e-75 0
1.79646e-55 -1.94226e-74 0
6.78632e-57 -1.34894e-73 0
2.60107e-58 -5.83535e-73 0
1.0192e-55 -3.25822e-70 0
0 -5.911e-148 0
1.58052e-08 -3.17428e-146 0
3.00836e-08 -1.32748e-144 0
3.36877e-08 -5.05636e-143 0
3.81605e-07 -1.38739e-141 0
1.56877e-07 -1.33812e-141 0
0 0 0
0 0 0
0 0 0
1.42406e-12 1.75434e-128 0
4.77375e-13 -2.2674e-127 0
1.05784e-13 -1.12715e-125 0
1.92076e-14 -4.99757e-124 0
3.04955e-15 -2.18285e-122 0
4.36131e-16 -9.39009e-121 0
5.71308e-17 -3.9769e-119 0
6.92851e-18 -1.65763e-117 0
7.83774e-19 -6.79712e-116 0
8.31739e-20 -2.74079e-114 0
8.3174e-21 -1.08628e-112 0
7.86713e-22 -4.22977e-111 0
7.06083e-23 -1.61722e-109 0
6.02991e-24 -6.06819e-108 0
4.91186e-25 -2.23316e-106 0
3.82487e-26 -8.05499e-105 0
2.85288e-27 -2.84565e-103 0
2.04189e-28 -9.83844e-102 0
1.40469e-29 -3.32601e-100 0
9.3023e-31 -1.09839e-98 0
5.93843e-32 -3.53968e-97 0
3.65924e-33 -1.11181e-95 0
2.17909e-34 -3.39921e-94 0
1.2555e-35 -1.01007e-92 0
7.006e-37 -2.91216e-91 0
3.79028e-38 -8.13039e-90 0
1.98986e-39 -2.19311e-88 0
1.01462e-40 -5.70053e-87 0
5.02895e-42 -1.4234e-85 0
2.42482e-43 -3.40163e-84 0
1.13823e-44 -7.74553e-83 0
5.20518e-46 -1.67124e-81 0
2.32051e-47 -3.39374e-80 0
1.00913e-48 -6.42958e-79 0
4.2834e-50 -1.12359e-77 0
1.77564e-51 -1.78356e-76 0
7.19259e-53 -2.51706e-75 0
2.84842e-54 -3.05959e-74 0
1.10338e-55 -3.04644e-73 0
4.18295e-57 -2.27435e-72 0
1.60885e-58 -1.0562e-71 0
6.21554e-56 -6.09896e-69 0
0 -1.65158e-146 0
1.64818e-08 -8.77494e-145 0
2.72392e-08 -4.0261e-143 0
4.32341e-08 -1.76629e-141 0
3.74603e-07 -6.63088e-140 0
3.84703e-07 -1.64551e-138 0
7.08856e-08 -1.58092e-138 0
0 0 0
0 0 0
0 0 0
4.78226e-14 -1.13469e-126 0
3.20807e-14 -5.37781e-125 0
8.61385e-15 -2.41204e-123 0
1.67232e-15 -1.06578e-121 0
2.69723e-16 -4.63991e-120 0
3.82251e-17 -1.98962e-118 0
4.89744e-18 -8.40033e-117 0
5.76758e-19 -3.49084e-115 0
6.3109e-20 -1.42724e-113 0
6.46452e-21 -5.73879e-112 0
6.23412e-22 -2.26829e-110 0
5.68499e-23 -8.80894e-109 0
4.92007e-24 -3.35945e-107 0
4.05341e-25 -1.25744e-105 0
3.18725e-26 -4.61648e-104 0
2.39749e-27 -1.66131e-102 0
1.72874e-28 -5.85584e-101 0
1.1971e-29 -2.02011e-99 0
7.97408e-31 -6.81431e-98 0
5.11731e-32 -2.24544e-96 0
3.16824e-33 -7.21996e-95 0
1.89481e-34 -2.26247e-93 0
1.09599e-35 -6.89986e-92 0
6.13782e-37 -2.04463e-90 0
3.33152e-38 -5.87639e-89 0
1.75432e-39 -1.6346e-87 0
8.97033e-41 -4.38981e-86 0
4.45768e-42 -1.13487e-84 0
2.15457e-43 -2.8145e-83 0
1.01365e-44 -6.66773e-82 0
4.64526e-46 -1.50115e-80 0
2.07498e-47 -3.19094e-79 0
9.0403e-49 -6.35113e-78 0
3.84398e-50 -1.17079e-76 0
1.5961e-51 -1.96963e-75 0
6.47535e-53 -2.96144e-74 0
2.56813e-54 -3.858e-73 0
9.96192e-56 -4.14368e-72 0
3.78155e-57 -3.35714e-71 0
1.45634e-58 -1.69241e-70 0
5.63004e-56 -1.01217e-67 0
0 -4.65317e-145 0
1.46124e-08 -2.45129e-143 0
2.17186e-08 -1.21987e-141 0
9.00947e-08 -5.84994e-140 0
3.66834e-07 -2.51731e-138 0
3.95749e-07 -8.57957e-137 0
1.32197e-07 -1.90471e-135 0
9.63419e-09 -1.82138e-135 0
0 0 0
0 0 0
0 -4.19017e-126 0
1.51029e-13 -1.96879e-124 0
3.43928e-14 -8.9269e-123 0
5.66669e-15 -3.99086e-121 0
7.9988e-16 -1.75866e-119 0
1.01884e-16 -7.63678e-118 0
1.19774e-17 -3.26675e-116 0
1.31497e-18 -1.3761e-114 0
1.35791e-19 -5.70632e-113 0
1.32534e-20 -2.32843e-111 0
1.22701e-21 -9.34531e-110 0
1.08067e-22 -3.68768e-108 0
9.07664e-24 -1.42999e-106 0
7.28582e-25 -5.44637e-105 0
5.59998e-26 -2.03625e-103 0
4.12866e-27 -7.46863e-102 0
2.92444e-28 -2.68561e-100 0
1.99313e-29 -9.46059e-99 0
1.30883e-30 -3.26221e-97 0
8.29173e-32 -1.1001e-95 0
5.07395e-33 -3.62446e-94 0
3.00243e-34 -1.16533e-92 0
1.71984e-35 -3.65171e-91 0
9.54603e-37 -1.11365e-89 0
5.13907e-38 -3.29974e-88 0
2.68571e-39 -9.4808e-87 0
1.36367e-40 -2.63546e-85 0
6.73251e-42 -7.06883e-84 0
3.23439e-43 -1.82355e-82 0
1.51308e-44 -4.50677e-81 0
6.89737e-46 -1.06193e-79 0
3.06572e-47 -2.37118e-78 0
1.32947e-48 -4.9783e-77 0
5.62825e-50 -9.72663e-76 0
2.32734e-51 -1.74379e-74 0
9.40525e-53 -2.81177e-73 0
3.71643e-54 -3.95692e-72 0
1.4366e-55 -4.62859e-71 0
5.43537e-57 -4.11802e-70 0
2.08648e-58 -2.28604e-69 0
8.21139e-56 -1.4183e-66 0
0 -1.00255e-143 0
1.0533e-08 -5.24011e-142 0
2.98133e-08 -2.76495e-140 0
1.35919e-07 -1.3999e-138 0
2.96933e-07 -6.58573e-137 0
2.46689e-07 -2.73634e-135 0
8.8417e-08 -9.58755e-134 0
1.53532e-08 -2.46176e-132 0
7.06442e-10 -2.36856e-132 0
8.23042e-11 0 0
1.02221e-11 -1.04461e-125 0
1.36112e-12 -4.95988e-124 0
1.7199e-13 -2.27428e-122 0
2.07423e-14 -1.02865e-120 0
2.39277e-15 -4.58814e-119 0
2.64141e-16 -2.01756e-117 0
2.78987e-17 -8.74404e-116 0
2.81873e-18 -3.73386e-114 0
2.72421e-19 -1.57045e-112 0
2.51921e-20 -6.50358e-111 0
2.23031e-21 -2.65085e-109 0
1.89179e-22 -1.06303e-107 0
1.5388e-23 -4.19222e-106 0
1.20153e-24 -1.6251e-104 0
9.01574e-26 -6.18919e-103 0
6.50814e-27 -2.31454e-101 0
4.52462e-28 -8.494e-100 0
3.03285e-29 -3.05695e-98 0
1.96212e-30 -1.07815e-96 0
1.22646e-31 -3.72332e-95 0
7.41427e-33 -1.25791e-93 0
4.33897e-34 -4.15337e-92 0
2.46041e-35 -1.33869e-90 0
1.35304e-36 -4.20653e-89 0
7.22207e-38 -1.2867e-87 0
3.74463e-39 -3.82457e-86 0
1.88749e-40 -1.10243e-84 0
9.2556e-42 -3.07419e-83 0
4.41849e-43 -8.26904e-82 0
2.05486e-44 -2.13787e-80 0
9.31545e-46 -5.28931e-79 0
4.11913e-47 -1.24535e-77 0
1.77762e-48 -2.77033e-76 0
7.4911e-50 -5.76722e-75 0
3.08432e-51 -1.10888e-73 0
1.24136e-52 -1.93232e-72 0
4.88631e-54 -2.9654e-71 0
1.88195e-55 -3.82269e-70 0
7.09569e-57 -3.7912e-69 0
2.71459e-58 -2.36189e-68 0
1.08407e-55 -1.52277e-65 0
0 -1.22887e-142 0
7.87666e-09 -6.37845e-141 0
3.39166e-08 -3.43968e-139 0
1.06677e-07 -1.80108e-137 0
1.5204e-07 -9.32488e-136 0
9.8573e-08 -4.77341e-134 0
3.37644e-08 -2.41593e-132 0
7.2573e-09 -1.2089e-130 0
9.64029e-10 -5.97992e-129 0
1.19179e-10 -2.92375e-127 0
1.51094e-11 -1.41214e-125 0
1.8371e-12 -6.63186e-124 0
2.1537e-13 -3.0732e-122 0
2.43919e-14 -1.40537e-120 0
2.66831e-15 -6.34062e-119 0
2.81598e-16 -2.82167e-117 0
2.86267e-17 -1.23823e-115 0
2.79951e-18 -5.35671e-114 0
2.63116e-19 -2.28385e-112 0
2.37544e-20 -9.59343e-111 0
2.05977e-21 -3.96894e-109 0
1.71581e-22 -1.61665e-107 0
1.37372e-23 -6.48082e-106 0
1.05776e-24 -2.55588e-104 0
7.83932e-26 -9.91188e-103 0
5.59684e-27 -3.77804e-101 0
3.85278e-28 -1.41463e-99 0
2.55962e-29 -5.20043e-98 0
1.64268e-30 -1.87576e-96 0
1.0193e-31 -6.63368e-95 0
6.12095e-33 -2.29842e-93 0
3.56027e-34 -7.79512e-92 0
2.00754e-35 -2.58525e-90 0
1.0983e-36 -8.37483e-89 0
5.83436e-38 -2.64655e-87 0
3.01171e-39 -8.14622e-86 0
1.51181e-40 -2.438e-84 0
7.38499e-42 -7.0794e-83 0
3.51286e-43 -1.98948e-81 0
1.62821e-44 -5.39401e-80 0
7.35807e-46 -1.4055e-78 0
3.24399e-47 -3.50235e-77 0
1.39606e-48 -8.293e-76 0
5.86772e-50 -1.84994e-74 0
2.40993e-51 -3.84165e-73 0
9.67667e-53 -7.29902e-72 0
3.80051e-54 -1.23535e-70 0
1.46067e-55 -1.78083e-69 0
5.49629e-57 -2.00738e-68 0
2.09857e-58 -1.44044e-67 0
8.44664e-56 -9.66875e-65 0
0 0 0
3.65934e-09 0 0
1.41855e-08 0 0
3.1577e-08 0 0
3.48707e-08 0 0
1.98068e-08 0 0
6.65863e-09 0 0
1.53828e-09 0 0
2.57587e-10 0 0
3.68751e-11 0 0
4.88727e-12 0 0
6.11046e-13 0 0
7.28264e-14 0 0
8.31878e-15 0 0
9.12865e-16 0 0
9.62954e-17 0 0
9.76304e-18 0 0
9.5098e-19 0 0
8.89658e-20 0 0
7.99268e-21 0 0
6.89666e-22 0 0
5.71768e-23 0 0
4.55696e-24 0 0
3.49387e-25 0 0
2.57904e-26 0 0
1.83443e-27 0 0
1.25842e-28 0 0
8.33349e-30 0 0
5.33215e-31 0 0
3.29947e-32 0 0
1.97623e-33 0 0
1.14671e-34 0 0
6.45147e-36 0 0
3.5221e-37 0 0
1.86733e-38 0 0
9.6215e-40 0 0
4.82144e-41 0 0
2.35139e-42 0 0
1.11679e-43 0 0
5.16888e-45 0 0
2.33271e-46 0 0
1.02711e-47 0 0
4.41483e-49 0 0
1.85345e-50 0 0
7.60398e-52 0 0
3.05008e-53 0 0
1.19674e-54 0 0
4.59517e-56 0 0
1.72755e-57 0 0
6.59025e-59 0 0
2.66161e-56 0 0
0 0 -3.54216e-146
1.473e-08 0 -1.86759e-144
4.51167e-08 0 -1.18967e-142
7.40247e-08 0 -7.00375e-141
6.39216e-08 0 -3.45333e-139
2.73952e-08 0 -1.2354e-137
7.65035e-09 0 -2.4958e-136
1.67049e-09 0 -5.43612e-136
3.1247e-10 0 -2.40464e-134
5.23854e-11 0 -1.07048e-132
8.06436e-12 0 -4.68958e-131
1.15565e-12 0 -2.0224e-129
1.55387e-13 0 -8.58353e-128
1.96957e-14 0 -3.58402e-126
2.36038e-15 0 -1.47165e-124
2.68013e-16 0 -5.93999e-123
2.8882e-17 0 -2.35567e-121
2.95848e-18 0 -9.17446e-120
2.88489e-19 0 -3.5072e-118
2.68199e-20 0 -1.31526e-116
2.38067e-21 0 -4.8359e-115
2.02068e-22 0 -1.74213e-113
1.64241e-23 0 -6.14494e-112
1.28018e-24 0 -2.12063e-110
9.58206e-26 0 -7.15438e-109
6.89636e-27 0 -2.35749e-107
4.77864e-28 0 -7.58021e-106
3.19182e-29 0 -2.37576e-104
2.05742e-30 0 -7.2494e-103
1.28125e-31 0 -2.15089e-101
7.71661e-33 0 -6.19614e-100
4.49916e-34 0 -1.73025e-98
2.5419e-35 0 -4.67508e-97
1.39282e-36 0 -1.21974e-95
7.40825e-38 0 -3.06564e-94
3.82796e-39 0 -7.40249e-93
1.92304e-40 0 -1.71189e-91
9.3993e-42 0 -3.7777e-90
4.47294e-43 0 -7.92046e-89
2.07382e-44 0 -1.56962e-87
9.37356e-46 0 -2.92169e-86
4.13293e-47 0 -5.06871e-85
1.77862e-48 0 -8.11623e-84
7.47518e-50 0 -1.18457e-82
3.06975e-51 0 -1.5499e-81
1.23239e-52 0 -1.77702e-80
4.83918e-54 0 -1.72782e-79
1.8594e-55 0 -1.35486e-78
6.99469e-57 0 -7.87309e-78
2.66984e-58 0 -2.87613e-77
1.06389e-55 0 -1.46023e-74
0.0036 -2.01899e-145 -5.76411e-146
0.00488521 -2.35158e-141 -1.13773e-141
0.00457888 -1.96958e-139 -1.43328e-139
0.00334875 -1.91765e-137 -1.64884e-137
0.0017236 -1.72752e-135 -1.49281e-135
0.000510548 -1.08127e-133 -8.66669e-134
0.000109382 -3.10952e-132 -2.61764e-132
1.96216e-05 -1.27249e-132 -1.2623e-132
3.15115e-06 -5.43763e-131 -5.43989e-131
4.66303e-07 -2.47331e-129 -2.47345e-129
6.4492e-08 -1.10443e-127 -1.10443e-127
8.40048e-09 -4.85493e-126 -4.85493e-126
1.03499e-09 -2.1011e-124 -2.1011e-124
1.20929e-10 -8.94933e-123 -8.94933e-123
1.34229e-11 -3.75014e-121 -3.75014e-121
1.41736e-12 -1.54539e-119 -1.54539e-119
1.42556e-13 -6.26003e-118 -6.26003e-118
1.36743e-14 -2.49149e-116 -2.49149e-116
1.25252e-15 -9.73806e-115 -9.73806e-115
1.09696e-16 -3.73581e-113 -3.73581e-113
9.19789e-18 -1.40588e-111 -1.40588e-111
7.39345e-19 -5.1868e-110 -5.1868e-110
5.70462e-20 -1.87477e-108 -1.87477e-108
4.23034e-21 -6.6341e-107 -6.6341e-107
3.01873e-22 -2.29649e-105 -2.29649e-105
2.07534e-23 -7.77012e-104 -7.77012e-104
1.37614e-24 -2.56724e-102 -2.56724e-102
8.81091e-26 -8.2744e-101 -8.2744e-101
5.45275e-27 -2.59866e-99 -2.59866e-99
3.26497e-28 -7.94263e-98 -7.94263e-98
1.89333e-29 -2.35925e-96 -2.35925e-96
1.06427e-30 -6.79995e-95 -6.79995e-95
5.80396e-32 -1.89843e-93 -1.89843e-93
3.07332e-33 -5.12364e-92 -5.12364e-92
1.5814e-34 -1.33374e-90 -1.33374e-90
7.91315e-36 -3.33992e-89 -3.33992e-89
3.85338e-37 -8.02157e-88 -8.02157e-88
1.82732e-38 -1.84119e-86 -1.84119e-86
8.44405e-40 -4.02185e-85 -4.02185e-85
3.80469e-41 -8.31864e-84 -8.31864e-84
1.67255e-42 -1.61925e-82 -1.61925e-82
7.17752e-44 -2.94386e-81 -2.94386e-81
3.00846e-45 -4.9512e-80 -4.9512e-80
1.23229e-46 -7.60908e-79 -7.60908e-79
4.93516e-48 -1.05114e-77 -1.05114e-77
1.93336e-49 -1.27608e-76 -1.27608e-76
7.41226e-51 -1.31757e-75 -1.31757e-75
2.7823e-52 -1.10004e-74 -1.10004e-74
1.02301e-53 -6.81433e-74 -6.81433e-74
3.81564e-55 -2.64049e-73 -2.64049e-73
3.80609e-55 -4.10802e-73 -4.10802e-73
0.01 -1.33899e-144 -2.42142e-146
0.0111055 -1.43473e-140 -7.07101e-142
0.0105201 -1.05703e-138 -1.19854e-139
0.00865867 -1.13231e-136 -2.38358e-137
0.00522843 -1.86982e-134 -1.36015e-134
0.00133405 -2.92294e-132 -2.18527e-132
0.000245928 -1.6354e-130 -1.37257e-130
3.91153e-05 -1.20833e-131 -1.20775e-131
5.78067e-06 -4.79337e-130 -4.80507e-130
8.07485e-07 -2.23875e-128 -2.23952e-128
1.07281e-07 -1.01155e-126 -1.01158e-126
1.35892e-08 -4.49216e-125 -4.49216e-125
1.64232e-09 -1.96427e-123 -1.96427e-123
1.89384e-10 -8.45613e-122 -8.45613e-122
2.08363e-11 -3.58269e-120 -3.58269e-120
2.1874e-12 -1.49329e-118 -1.49329e-118
2.19191e-13 -6.12063e-117 -6.12063e-117
2.0978e-14 -2.46588e-115 -2.46588e-115
1.91916e-15 -9.76039e-114 -9.76039e-114
1.67991e-16 -3.79369e-112 -3.79369e-112
1.40853e-17 -1.44717e-110 -1.44717e-110
1.13254e-18 -5.41484e-109 -5.41484e-109
8.74289e-20 -1.98604e-107 -1.98604e-107
6.4877e-21 -7.13552e-106 -7.13552e-106
4.63307e-22 -2.50945e-104 -2.50945e-104
3.18777e-23 -8.63167e-103 -8.63167e-103
2.11557e-24 -2.90127e-101 -2.90127e-101
1.35568e-25 -9.51995e-100 -9.51995e-100
8.397e-27 -3.04627e-98 -3.04627e-98
5.03218e-28 -9.49444e-97 -9.49444e-97
2.92054e-29 -2.87847e-95 -2.87847e-95
1.643e-30 -8.47611e-94 -8.47611e-94
8.96715e-32 -2.42017e-92 -2.42017e-92
4.75191e-33 -6.68773e-91 -6.68773e-91
2.44693e-34 -1.78464e-89 -1.78464e-89
1.22529e-35 -4.58746e-88 -4.58746e-88
5.97074e-37 -1.13259e-86 -1.13259e-86
2.83327e-38 -2.67652e-85 -2.67652e-85
1.31008e-39 -6.02971e-84 -6.02971e-84
5.90653e-41 -1.28864e-82 -1.28864e-82
2.59804e-42 -2.59712e-81 -2.59712e-81
1.11555e-43 -4.89972e-80 -4.89972e-80
4.67837e-45 -8.57272e-79 -8.57272e-79
1.91731e-46 -1.3743e-77 -1.3743e-77
7.68243e-48 -1.98636e-76 -1.98636e-76
3.01108e-49 -2.53131e-75 -2.53131e-75
1.15495e-50 -2.75312e-74 -2.75312e-74
4.33723e-52 -2.42957e-73 -2.42957e-73
1.59542e-53 -1.59461e-72 -1.59461e-72
5.95322e-55 -6.52742e-72 -6.52742e-72
5.93832e-55 -1.02861e-71 -1.02861e-71
0.0148 -7.33042e-146 -2.34222e-145
0.0166862 -9.10509e-142 3.58202e-141
0.0162679 -4.54755e-140 -1.72405e-139
0.0148887 -2.89281e-138 1.28962e-138
0.011284 -3.2647e-136 -1.29604e-134
0.000921976 -3.23622e-136 -2.10181e-132
0.00015938 0 -1.34689e-130
2.3892e-05 8.55627e-129 7.02127e-129
3.78669e-06 -3.31216e-129 -3.37457e-129
5.57395e-07 -1.75627e-127 -1.76038e-127
7.71676e-08 -8.12519e-126 -8.12705e-126
1.01067e-08 -3.65073e-124 -3.65073e-124
1.25574e-09 -1.61365e-122 -1.61365e-122
1.4822e-10 -7.02452e-121 -7.02452e-121
1.66342e-11 -3.01061e-119 -3.01061e-119
1.77634e-12 -1.26987e-117 -1.26987e-117
1.80654e-13 -5.26943e-116 -5.26943e-116
1.75148e-14 -2.15021e-114 -2.15021e-114
1.62066e-15 -8.62418e-113 -8.62418e-113
1.43299e-16 -3.39833e-111 -3.39833e-111
1.21233e-17 -1.31493e-109 -1.31493e-109
9.82639e-19 -4.99324e-108 -4.99324e-108
7.64078e-20 -1.85973e-106 -1.85973e-106
5.7071e-21 -6.78926e-105 -6.78926e-105
4.09992e-22 -2.42769e-103 -2.42769e-103
2.83628e-23 -8.49629e-102 -8.49629e-102
1.89168e-24 -2.9078e-100 -2.9078e-100
1.21776e-25 -9.72296e-99 -9.72296e-99
7.57453e-27 -3.17313e-97 -3.17313e-97
4.557e-28 -1.00958e-95 -1.00958e-95
2.65433e-29 -3.12756e-94 -3.12756e-94
1.49827e-30 -9.42046e-93 -9.42046e-93
8.20288e-32 -2.75451e-91 -2.75451e-91
4.35966e-33 -7.80429e-90 -7.80429e-90
2.25111e-34 -2.13815e-88 -2.13815e-88
1.13014e-35 -5.65089e-87 -5.65089e-87
5.52041e-37 -1.43668e-85 -1.43668e-85
2.62555e-38 -3.5022e-84 -3.5022e-84
1.21665e-39 -8.15397e-83 -8.15397e-83
5.49646e-41 -1.8047e-81 -1.8047e-81
2.42233e-42 -3.77531e-80 -3.77531e-80
1.042e-43 -7.41166e-79 -7.41166e-79
4.3775e-45 -1.35319e-77 -1.35319e-77
1.79696e-46 -2.27073e-76 -2.27073e-76
7.2115e-48 -3.44732e-75 -3.44732e-75
2.83072e-49 -4.6319e-74 -4.6319e-74
1.08732e-50 -5.33358e-73 -5.33358e-73
4.0888e-52 -5.00403e-72 -5.00403e-72
1.50599e-53 -3.50322e-71 -3.50322e-71
5.62674e-55 -1.52608e-70 -1.52608e-70
5.6126e-55 -2.43829e-70 -2.43829e-70
0.018 -2.52438e-147 -6.88001e-144
0.0206059 -3.75812e-143 7.74715e-140
0.0203228 -1.41284e-141 -4.33357e-138
0.0192457 -5.8237e-140 2.78521e-136
0.0180726 -5.69238e-138 -3.15334e-134
0 -5.63551e-138 -3.18164e-134
0 0 0
0 0 7.03219e-129
4.10634e-07 -4.63938e-127 -3.83709e-127
1.12317e-07 -1.08421e-126 -1.1042e-126
2.10811e-08 -5.62116e-125 -5.63099e-125
3.33323e-09 -2.57735e-123 -2.57735e-123
4.71341e-10 -1.15191e-121 -1.15191e-121
6.11472e-11 -5.07224e-120 -5.07224e-120
7.37449e-12 -2.1998e-118 -2.1998e-118
8.33346e-13 -9.39319e-117 -9.39319e-117
8.87052e-14 -3.94758e-115 -3.94758e-115
8.92885e-15 -1.63216e-113 -1.63216e-113
8.5254e-16 -6.6363e-112 -6.6363e-112
7.74183e-17 -2.65231e-110 -2.65231e-110
6.70161e-18 -1.04147e-108 -1.04147e-108
5.54133e-19 -4.01576e-107 -4.01576e-107
4.38492e-20 -1.51964e-105 -1.51964e-105
3.32638e-21 -5.64032e-104 -5.64032e-104
2.42291e-22 -2.05195e-102 -2.05195e-102
1.69708e-23 -7.31169e-101 -7.31169e-101
1.14465e-24 -2.54984e-99 -2.54984e-99
7.44399e-26 -8.69511e-98 -8.69511e-98
4.67341e-27 -2.8966e-96 -2.8966e-96
2.83564e-28 -9.41648e-95 -9.41648e-95
1.66466e-29 -2.98374e-93 -2.98374e-93
9.46446e-31 -9.20294e-92 -9.20294e-92
5.21646e-32 -2.75887e-90 -2.75887e-90
2.78971e-33 -8.02473e-89 -8.02473e-89
1.44882e-34 -2.26034e-87 -2.26034e-87
7.31294e-36 -6.15143e-86 -6.15143e-86
3.59027e-37 -1.61321e-84 -1.61321e-84
1.71567e-38 -4.06411e-83 -4.06411e-83
7.98571e-40 -9.7992e-82 -9.7992e-82
3.62285e-41 -2.25123e-80 -2.25123e-80
1.60294e-42 -4.90082e-79 -4.90082e-79
6.92111e-44 -1.00407e-77 -1.00407e-77
2.9179e-45 -1.91917e-76 -1.91917e-76
1.20182e-46 -3.38352e-75 -3.38352e-75
4.83844e-48 -5.41827e-74 -5.41827e-74
1.90498e-49 -7.71344e-73 -7.71344e-73
7.33833e-51 -9.457e-72 -9.457e-72
2.76712e-52 -9.4961e-71 -9.4961e-71
1.02186e-53 -7.14697e-70 -7.14697e-70
3.82775e-55 -3.34284e-69 -3.34284e-69
3.81802e-55 -5.4211e-69 -5.4211e-69
0.0196 -5.36685e-148 1.32093e-144
0.022619 -6.92922e-144 -7.55889e-141
0.0223866 -2.8783e-142 1.61263e-139
0.0212247 -1.21526e-140 4.13902e-138
0.0217266 -7.63028e-139 -6.4571e-135
0.00503052 -7.51156e-139 -1.67467e-132
0 0 -1.66821e-132
0 0 0
0 0 -3.80765e-127
1.12858e-08 2.36325e-125 1.83479e-125
3.46472e-09 -3.03822e-124 -3.08906e-124
7.08622e-10 -1.53917e-122 -1.53919e-122
1.19291e-10 -6.95815e-121 -6.95815e-121
1.76224e-11 -3.10013e-119 -3.10013e-119
2.35238e-12 -1.36096e-117 -1.36096e-117
2.88459e-13 -5.88503e-116 -5.88503e-116
3.2838e-14 -2.50575e-114 -2.50575e-114
3.49623e-15 -1.05016e-112 -1.05016e-112
3.50084e-16 -4.33037e-111 -4.33037e-111
3.31134e-17 -1.75617e-109 -1.75617e-109
2.96939e-18 -7.00141e-108 -7.00141e-108
2.53218e-19 -2.74264e-106 -2.74264e-106
2.05892e-20 -1.05509e-104 -1.05509e-104
1.59997e-21 -3.98382e-103 -3.98382e-103
1.19074e-22 -1.47548e-101 -1.47548e-101
8.50301e-24 -5.35675e-100 -5.35675e-100
5.83597e-25 -1.90494e-98 -1.90494e-98
3.85581e-26 -6.63017e-97 -6.63017e-97
2.45584e-27 -2.25654e-95 -2.25654e-95
1.50987e-28 -7.50252e-94 -7.50252e-94
8.97158e-30 -2.43409e-92 -2.43409e-92
5.15797e-31 -7.69653e-91 -7.69653e-91
2.87231e-32 -2.36848e-89 -2.36848e-89
1.55081e-33 -7.08225e-88 -7.08225e-88
8.1258e-35 -2.05401e-86 -2.05401e-86
4.13555e-36 -5.7656e-85 -5.7656e-85
2.04606e-37 -1.56251e-83 -1.56251e-83
9.84833e-39 -4.07634e-82 -4.07634e-82
4.61512e-40 -1.02017e-80 -1.02017e-80
2.1071e-41 -2.43889e-79 -2.43889e-79
9.37895e-43 -5.54087e-78 -5.54087e-78
4.07253e-44 -1.18851e-76 -1.18851e-76
1.72614e-45 -2.387e-75 -2.387e-75
7.14557e-47 -4.43997e-74 -4.43997e-74
2.89056e-48 -7.53634e-73 -7.53634e-73
1.14324e-49 -1.1432e-71 -1.1432e-71
4.42298e-51 -1.50237e-70 -1.50237e-70
1.67466e-52 -1.62751e-69 -1.62751e-69
6.20846e-54 -1.32949e-68 -1.32949e-68
2.33456e-55 -6.75165e-68 -6.75165e-68
2.32854e-55 -1.11266e-67 -1.11266e-67
0.0196 -1.46429e-146 -3.56681e-144
0.0226296 -2.10011e-142 4.67405e-140
0.0223243 -1.11784e-140 -3.05246e-138
0.0214144 -6.25994e-139 2.46494e-136
0.0210716 -3.75676e-137 -2.25943e-134
0.0108444 -1.80982e-135 2.3115e-132
0.00129224 -1.77287e-135 -1.00731e-129
0 0 -1.00964e-129
0 0 0
0 0 1.92962e-125
3.25031e-10 -1.54937e-123 -1.53448e-123
2.03981e-10 -7.48136e-122 -7.48181e-122
5.13663e-11 -3.42275e-120 -3.42275e-120
9.36316e-12 -1.5434e-118 -1.5434e-118
1.41953e-12 -6.86042e-117 -6.86042e-117
1.89354e-13 -3.0051e-115 -3.0051e-115
2.28693e-14 -1.29678e-113 -1.29678e-113
2.54314e-15 -5.51088e-112 -5.51088e-112
2.63235e-16 -2.30551e-110 -2.30551e-110
2.5555e-17 -9.49154e-109 -9.49154e-109
2.34004e-18 -3.84369e-107 -3.84369e-107
2.03e-19 -1.53041e-105 -1.53041e-105
1.67435e-20 -5.98834e-104 -5.98834e-104
1.31694e-21 -2.30154e-102 -2.30154e-102
9.90304e-23 -8.68357e-101 -8.68357e-101
7.13532e-24 -3.21425e-99 -3.21425e-99
4.93575e-25 -1.16646e-97 -1.16646e-97
3.28361e-26 -4.14713e-96 -4.14713e-96
2.10424e-27 -1.44331e-94 -1.44331e-94
1.30081e-28 -4.91261e-93 -4.91261e-93
7.76743e-30 -1.63367e-91 -1.63367e-91
4.48558e-31 -5.30183e-90 -5.30183e-90
2.50799e-32 -1.67701e-88 -1.67701e-88
1.3591e-33 -5.16251e-87 -5.16251e-87
7.14537e-35 -1.54408e-85 -1.54408e-85
3.64787e-36 -4.47832e-84 -4.47832e-84
1.80996e-37 -1.25664e-82 -1.25664e-82
8.73498e-39 -3.4024e-81 -3.4024e-81
4.10346e-40 -8.86003e-80 -8.86003e-80
1.87778e-41 -2.21034e-78 -2.21034e-78
8.3761e-43 -5.25719e-77 -5.25719e-77
3.64434e-44 -1.18489e-75 -1.18489e-75
1.54755e-45 -2.5109e-74 -2.5109e-74
6.41751e-47 -4.95136e-73 -4.95136e-73
2.60033e-48 -8.95859e-72 -8.95859e-72
1.03006e-49 -1.45771e-70 -1.45771e-70
3.99097e-51 -2.06987e-69 -2.06987e-69
1.51319e-52 -2.44258e-68 -2.44258e-68
5.61726e-54 -2.19161e-67 -2.19161e-67
2.11498e-55 -1.22592e-66 -1.22592e-66
2.10954e-55 -2.05573e-66 -2.05573e-66
0.018 -4.05414e-145 -1.40652e-143
0.0205925 -8.12888e-141 1.66401e-139
0.0201727 -5.02871e-139 -1.00701e-137
0.0193699 -3.15249e-137 7.70929e-136
0.0171776 -2.00811e-135 -8.13468e-134
0.00940805 -9.5893e-134 9.84448e-132
0.00221405 -2.42716e-132 1.658e-130
0.000116746 -2.33324e-132 7.67006e-128
0 0 7.65448e-128
0 0 0
0 -5.82422e-123 -5.79505e-123
1.03369e-09 -2.79026e-121 -2.78996e-121
2.20015e-10 -1.29112e-119 -1.29112e-119
3.39558e-11 -5.89338e-118 -5.89338e-118
4.49597e-12 -2.65295e-116 -2.65295e-116
5.37856e-13 -1.17744e-114 -1.17744e-114
5.94663e-14 -5.15074e-113 -5.15074e-113
6.14968e-15 -2.22016e-111 -2.22016e-111
5.99221e-16 -9.42625e-110 -9.42625e-110
5.52877e-17 -3.94078e-108 -3.94078e-108
4.84815e-18 -1.62163e-106 -1.62163e-106
4.05224e-19 -6.5655e-105 -6.5655e-105
3.23624e-20 -2.61424e-103 -2.61424e-103
2.4747e-21 -1.02325e-101 -1.02325e-101
1.8153e-22 -3.93507e-100 -3.93507e-100
1.27951e-23 -1.48601e-98 -1.48601e-98
8.67893e-25 -5.50709e-97 -5.50709e-97
5.6732e-26 -2.00157e-95 -2.00157e-95
3.57842e-27 -7.1293e-94 -7.1293e-94
2.18061e-28 -2.48656e-92 -2.48656e-92
1.28522e-29 -8.48462e-91 -8.48462e-91
7.33408e-31 -2.82948e-89 -2.82948e-89
4.05614e-32 -9.21127e-88 -9.21127e-88
2.17612e-33 -2.92349e-86 -2.92349e-86
1.13354e-34 -9.03233e-85 -9.03233e-85
5.73767e-36 -2.71176e-83 -2.71176e-83
2.82434e-37 -7.89524e-82 -7.89524e-82
1.35302e-38 -2.22375e-80 -2.22375e-80
6.31256e-40 -6.04151e-79 -6.04151e-79
2.87018e-41 -1.5776e-77 -1.5776e-77
1.2726e-42 -3.94205e-76 -3.94205e-76
5.50579e-44 -9.37352e-75 -9.37352e-75
2.32563e-45 -2.10575e-73 -2.10575e-73
9.59613e-47 -4.42664e-72 -4.42664e-72
3.87003e-48 -8.59378e-71 -8.59378e-71
1.52621e-49 -1.5119e-69 -1.5119e-69
5.88853e-51 -2.3421e-68 -2.3421e-68
2.22378e-52 -3.04706e-67 -3.04706e-67
8.22398e-54 -3.04882e-66 -3.04882e-66
3.085e-55 -1.91468e-65 -1.91468e-65
3.07719e-55 -3.2718e-65 -3.2718e-65
0.0148 -1.43582e-143 -2.29825e-144
0.0164609 -3.11807e-139 2.95131e-140
0.0157848 -1.97692e-137 -4.06589e-138
0.0143787 -1.21715e-135 -1.84233e-136
0.0107749 -7.00945e-134 -1.99298e-133
0.00502927 -3.34356e-132 -1.57481e-131
0.00128264 -1.24387e-130 -3.29039e-130
0.000179047 -3.27787e-129 -4.28754e-129
6.8043e-06 -3.15676e-129 -4.12369e-126
7.18017e-07 0 -2.10957e-124
8.1538e-08 -1.47808e-122 -1.4987e-122
9.9777e-09 -7.15903e-121 -7.15902e-121
1.16959e-09 -3.35165e-119 -3.35165e-119
1.31509e-10 -1.54858e-117 -1.54858e-117
1.41839e-11 -7.05966e-116 -7.05966e-116
1.46674e-12 -3.17467e-114 -3.17467e-114
1.4536e-13 -1.40788e-112 -1.40788e-112
1.38035e-14 -6.15552e-111 -6.15552e-111
1.25614e-15 -2.65257e-109 -2.65257e-109
1.0959e-16 -1.12626e-107 -1.12626e-107
9.17179e-18 -4.71013e-106 -4.71013e-106
7.36938e-19 -1.93953e-104 -1.93953e-104
5.68974e-20 -7.86069e-103 -7.86069e-103
4.22534e-21 -3.13437e-101 -3.13437e-101
3.02116e-22 -1.22905e-99 -1.22905e-99
2.08197e-23 -4.73704e-98 -4.73704e-98
1.38422e-24 -1.79365e-96 -1.79365e-96
8.88785e-26 -6.66816e-95 -6.66816e-95
5.51666e-27 -2.43242e-93 -2.43242e-93
3.31323e-28 -8.70015e-92 -8.70015e-92
1.92718e-29 -3.0488e-90 -3.0488e-90