# vtk DataFile Version 2.0
Tobias Weinzierl: CPU, Manycore and Cluster Computing
ASCII

DATASET STRUCTURED_POINTS
DIMENSIONS  51 11 6

ORIGIN 0 0 0 

SPACING 0.1 0.1 0.1 

POINT_DATA 3366

VECTORS velocity float
0 0 0
8.25558e-09 0 0
1.79703e-08 0 0
1.86882e-08 0 0
1.04467e-08 0 0
3.41455e-09 0 0
8.17062e-10 0 0
1.60987e-10 0 0
2.77094e-11 0 0
4.29629e-12 0 0
6.10229e-13 0 0
8.01833e-14 0 0
9.80776e-15 0 0
1.12166e-15 0 0
1.20354e-16 0 0
1.21524e-17 0 0
1.15779e-18 0 0
1.04339e-19 0 0
8.91509e-21 0 0
7.2382e-22 0 0
5.59582e-23 0 0
4.12739e-24 0 0
2.90983e-25 0 0
1.96422e-26 0 0
1.27161e-27 0 0
7.90708e-29 0 0
4.72937e-30 0 0
2.72458e-31 0 0
1.51376e-32 0 0
8.12058e-34 0 0
4.21096e-35 0 0
2.11299e-36 0 0
1.027e-37 0 0
4.83954e-39 0 0
2.21304e-40 0 0
9.82864e-42 0 0
4.24288e-43 0 0
1.78165e-44 0 0
7.28266e-46 0 0
2.89976e-47 0 0
1.12544e-48 0 0
4.26028e-50 0 0
1.57387e-51 0 0
5.67754e-53 0 0
2.001e-54 0 0
6.89372e-56 0 0
2.32271e-57 0 0
7.65732e-59 0 0
2.47122e-60 0 0
8.05175e-62 0 0
2.70224e-59 0 0
0 -8.42977e-152 0
2.58832e-08 -5.28715e-150 0
7.12786e-08 -3.88112e-148 0
8.90287e-08 -2.68063e-146 0
5.47112e-08 -1.5733e-144 0
1.69717e-08 -7.18956e-143 0
3.7839e-09 -2.23138e-141 0
7.00605e-10 -6.1261e-142 0
1.14865e-10 -2.9147e-140 0
1.71684e-11 -1.51691e-138 0
2.37312e-12 -7.74883e-137 0
3.05652e-13 -3.89517e-135 0
3.68425e-14 -1.92682e-133 0
4.16841e-15 -9.37639e-132 0
4.43742e-16 -4.48675e-130 0
4.4543e-17 -2.11029e-128 0
4.22514e-18 -9.7515e-127 0
3.79509e-19 -4.42492e-125 0
3.23455e-20 -1.97069e-123 0
2.62113e-21 -8.60935e-122 0
2.02341e-22 -3.68722e-120 0
1.49074e-23 -1.54713e-118 0
1.05006e-24 -6.35547e-117 0
7.08336e-26 -2.55411e-115 0
4.58322e-27 -1.00333e-113 0
2.84876e-28 -3.84924e-112 0
1.70336e-29 -1.44082e-110 0
9.81062e-31 -5.25635e-109 0
5.44969e-32 -1.86674e-107 0
2.9231e-33 -6.44528e-106 0
1.51564e-34 -2.16036e-104 0
7.60469e-36 -7.01829e-103 0
3.69602e-37 -2.20577e-101 0
1.74164e-38 -6.69287e-100 0
7.96419e-40 -1.95596e-98 0
3.5371e-41 -5.49066e-97 0
1.52694e-42 -1.47583e-95 0
6.41202e-44 -3.7844e-94 0
2.62106e-45 -9.2175e-93 0
1.04368e-46 -2.12139e-91 0
4.05082e-48 -4.58424e-90 0
1.53349e-49 -9.22915e-89 0
5.66542e-51 -1.71409e-87 0
2.04383e-52 -2.89986e-86 0
7.20369e-54 -4.39436e-85 0
2.4819e-55 -5.82834e-84 0
8.36277e-57 -6.54352e-83 0
2.75712e-58 -5.90572e-82 0
8.89844e-60 -3.92361e-81 0
2.89947e-61 -1.6088e-80 0
9.74655e-59 -7.10149e-78 0
0 -6.93559e-151 0
2.85811e-08 -4.29915e-149 0
1.16817e-07 -3.9139e-147 0
2.08928e-07 -3.65072e-145 0
1.58306e-07 -3.10333e-143 0
4.15186e-08 -2.20363e-141 0
8.0833e-09 -1.34539e-139 0
1.34734e-09 -6.96238e-141 0
2.05385e-10 -2.92881e-139 0
2.91861e-11 -1.56467e-137 0
3.89642e-12 -8.08492e-136 0
4.90111e-13 -4.10427e-134 0
5.8143e-14 -2.05057e-132 0
6.50904e-15 -1.00816e-130 0
6.88112e-16 -4.87565e-129 0
6.87651e-17 -2.31848e-127 0
6.50461e-18 -1.08356e-125 0
5.83301e-19 -4.97482e-124 0
4.96723e-20 -2.24264e-122 0
4.02391e-21 -9.92126e-121 0
3.10641e-22 -4.30478e-119 0
2.28929e-23 -1.8308e-117 0
1.61325e-24 -7.62693e-116 0
1.08885e-25 -3.11001e-114 0
7.04965e-27 -1.24033e-112 0
4.38467e-28 -4.83397e-111 0
2.62349e-29 -1.83931e-109 0
1.51205e-30 -6.82566e-108 0
8.40498e-32 -2.46763e-106 0
4.51127e-33 -8.6799e-105 0
2.34064e-34 -2.96648e-103 0
1.17516e-35 -9.8351e-102 0
5.71502e-37 -3.15763e-100 0
2.69465e-38 -9.79759e-99 0
1.23292e-39 -2.9313e-97 0
5.47878e-41 -8.43423e-96 0
2.36642e-42 -2.32674e-94 0
9.94234e-44 -6.13224e-93 0
4.06618e-45 -1.53751e-91 0
1.61988e-46 -3.64876e-90 0
6.29014e-48 -8.14546e-89 0
2.38226e-49 -1.69752e-87 0
8.80494e-51 -3.2708e-86 0
3.17774e-52 -5.75477e-85 0
1.12047e-53 -9.0936e-84 0
3.86183e-55 -1.26134e-82 0
1.30172e-56 -1.48549e-81 0
4.29316e-58 -1.41059e-80 0
1.38606e-59 -9.88055e-80 0
4.51787e-61 -4.25987e-79 0
1.5192e-58 -1.93551e-76 0
0 -3.46632e-152 0
1.52179e-08 -2.17076e-150 0
9.78534e-08 -1.54277e-148 0
3.07671e-07 -1.02432e-146 0
3.24776e-07 -4.84646e-145 0
2.79615e-08 -4.74555e-145 0
5.11646e-09 0 0
8.07723e-10 8.04653e-138 0
1.32867e-10 -2.31045e-138 0
1.99476e-11 -1.40061e-136 0
2.77767e-12 -7.40687e-135 0
3.61294e-13 -3.80274e-133 0
4.40468e-14 -1.91972e-131 0
5.04371e-15 -9.53986e-130 0
5.43417e-16 -4.66495e-128 0
5.51877e-17 -2.24379e-126 0
5.29297e-18 -1.06112e-124 0
4.80362e-19 -4.93174e-123 0
4.13361e-20 -2.25156e-121 0
3.37952e-21 -1.00923e-119 0
2.63029e-22 -4.43899e-118 0
1.95253e-23 -1.91473e-116 0
1.38493e-24 -8.09438e-115 0
9.40251e-26 -3.3513e-113 0
6.12002e-27 -1.35791e-111 0
3.82494e-28 -5.38026e-110 0
2.29873e-29 -2.08267e-108 0
1.33026e-30 -7.86856e-107 0
7.42215e-32 -2.8984e-105 0
3.99751e-33 -1.03965e-103 0
2.08071e-34 -3.62659e-102 0
1.04777e-35 -1.22841e-100 0
5.10958e-37 -4.03355e-99 0
2.41541e-38 -1.28143e-97 0
1.10783e-39 -3.93021e-96 0
4.93404e-41 -1.16079e-94 0
2.13567e-42 -3.29177e-93 0
8.99082e-44 -8.93205e-92 0
3.68397e-45 -2.30963e-90 0
1.47023e-46 -5.66331e-89 0
5.71868e-48 -1.30898e-87 0
2.16929e-49 -2.83075e-86 0
8.02993e-51 -5.67408e-85 0
2.9022e-52 -1.0414e-83 0
1.02471e-53 -1.72183e-82 0
3.53641e-55 -2.50725e-81 0
1.19351e-56 -3.11101e-80 0
3.94093e-58 -3.12362e-79 0
1.27378e-59 -2.31986e-78 0
4.15652e-61 -1.05815e-77 0
1.39175e-58 -4.95431e-75 0
0 -1.12131e-153 0
1.06081e-08 -7.09483e-152 0
4.31955e-08 -4.1835e-150 0
3.15792e-07 -2.17163e-148 0
4.9162e-07 -7.60388e-147 0
0 -7.39083e-147 0
0 0 0
0 0 0
1.46376e-11 -4.946e-136 0
4.03904e-12 -9.85971e-136 0
7.55654e-13 -5.83902e-134 0
1.17752e-13 -3.0577e-132 0
1.62305e-14 -1.56016e-130 0
2.03111e-15 -7.83891e-129 0
2.34025e-16 -3.87708e-127 0
2.50461e-17 -1.88692e-125 0
2.50532e-18 -9.0329e-124 0
2.35345e-19 -4.25151e-122 0
2.08432e-20 -1.96655e-120 0
1.74616e-21 -8.93516e-119 0
1.38782e-22 -3.98573e-117 0
1.04914e-23 -1.74453e-115 0
7.5613e-25 -7.48776e-114 0
5.2065e-26 -3.14952e-112 0
3.43181e-27 -1.29732e-110 0
2.16921e-28 -5.22905e-109 0
1.31702e-29 -2.06065e-107 0
7.69239e-31 -7.93208e-106 0
4.3283e-32 -2.97937e-104 0
2.34927e-33 -1.09073e-102 0
1.23151e-34 -3.88705e-101 0
6.24217e-36 -1.34651e-99 0
3.0626e-37 -4.52674e-98 0
1.45593e-38 -1.4742e-96 0
6.71269e-40 -4.64103e-95 0
3.00435e-41 -1.409e-93 0
1.30638e-42 -4.11369e-92 0
5.52327e-44 -1.15117e-90 0
2.27228e-45 -3.07561e-89 0
9.10289e-47 -7.80831e-88 0
3.55338e-48 -1.87287e-86 0
1.35248e-49 -4.21368e-85 0
5.02241e-51 -8.81164e-84 0
1.82072e-52 -1.69253e-82 0
6.4471e-54 -2.93885e-81 0
2.23105e-55 -4.51157e-80 0
7.54918e-57 -5.92658e-79 0
2.49889e-58 -6.32753e-78 0
8.09594e-60 -5.01536e-77 0
2.64793e-61 -2.438e-76 0
8.76796e-59 -1.1776e-73 0
0 -2.21731e-154 0
1.46954e-08 -1.40336e-152 0
1.05572e-08 -6.87785e-151 0
2.78484e-07 -3.05013e-149 0
5.98652e-07 -9.67465e-148 0
1.40105e-07 -9.37638e-148 0
0 0 0
0 0 0
0 0 0
4.05323e-13 2.89421e-134 0
1.22824e-13 -3.59276e-133 0
2.45177e-14 -2.07708e-131 0
3.98706e-15 -1.07152e-129 0
5.63633e-16 -5.44504e-128 0
7.13836e-17 -2.72478e-126 0
8.24102e-18 -1.34227e-124 0
8.7716e-19 -6.50675e-123 0
8.67835e-20 -3.10262e-121 0
8.03096e-21 -1.45461e-119 0
6.98624e-22 -6.7023e-118 0
5.73676e-23 -3.0335e-116 0
4.46238e-24 -1.34797e-114 0
3.29813e-25 -5.87736e-113 0
2.32238e-26 -2.51297e-111 0
1.5617e-27 -1.05293e-109 0
1.00505e-28 -4.32026e-108 0
6.20216e-30 -1.73447e-106 0
3.67643e-31 -6.80755e-105 0
2.09669e-32 -2.60953e-103 0
1.15215e-33 -9.75921e-102 0
6.10864e-35 -3.55654e-100 0
3.12886e-36 -1.2613e-98 0
1.55005e-37 -4.3464e-97 0
7.43525e-39 -1.45282e-95 0
3.45686e-40 -4.70115e-94 0
1.55927e-41 -1.46933e-92 0
6.82969e-43 -4.42388e-91 0
2.90731e-44 -1.27907e-89 0
1.20376e-45 -3.53813e-88 0
4.85146e-47 -9.32145e-87 0
1.90458e-48 -2.32607e-85 0
7.28806e-50 -5.4601e-84 0
2.72014e-51 -1.19508e-82 0
9.90838e-53 -2.41118e-81 0
3.52449e-54 -4.41535e-80 0
1.22494e-55 -7.18069e-79 0
4.16181e-57 -1.00432e-77 0
1.383e-58 -1.14779e-76 0
4.49733e-60 -9.78599e-76 0
1.47631e-61 -5.11542e-75 0
4.81355e-59 -2.55213e-72 0
0 -7.23542e-153 0
1.45912e-08 -4.53198e-151 0
1.00748e-08 -2.44236e-149 0
2.79546e-07 -1.26296e-147 0
6.14096e-07 -5.41431e-146 0
3.09823e-07 -1.42564e-144 0
3.31388e-08 -1.37274e-144 0
0 0 0
0 0 0
0 0 0
1.13135e-14 -2.09058e-132 0
6.7742e-15 -1.14641e-130 0
1.65001e-15 -5.98232e-129 0
2.89002e-16 -3.0754e-127 0
4.17555e-17 -1.55756e-125 0
5.26566e-18 -7.76875e-124 0
5.96818e-19 -3.8148e-122 0
6.18712e-20 -1.8435e-120 0
5.9351e-21 -8.76375e-119 0
5.31184e-22 -4.09666e-117 0
4.46321e-23 -1.88219e-115 0
3.53809e-24 -8.49523e-114 0
2.65676e-25 -3.76476e-112 0
1.89608e-26 -1.6372e-110 0
1.28984e-27 -6.98225e-109 0
8.38447e-29 -2.91828e-107 0
5.2196e-30 -1.19446e-105 0
3.11802e-31 -4.78385e-104 0
1.79049e-32 -1.87307e-102 0
9.89956e-34 -7.16252e-101 0
5.27777e-35 -2.67196e-99 0
2.71683e-36 -9.7119e-98 0
1.35205e-37 -3.43458e-96 0
6.51238e-39 -1.17989e-94 0
3.03929e-40 -3.93012e-93 0
1.3757e-41 -1.26661e-91 0
6.04507e-43 -3.93975e-90 0
2.58097e-44 -1.17926e-88 0
1.07159e-45 -3.38486e-87 0
4.32988e-47 -9.27718e-86 0
1.70389e-48 -2.41528e-84 0
6.53471e-50 -5.93404e-83 0
2.44409e-51 -1.36436e-81 0
8.92034e-53 -2.90349e-80 0
3.17891e-54 -5.63437e-79 0
1.10676e-55 -9.76221e-78 0
3.76648e-57 -1.46344e-76 0
1.25358e-58 -1.80458e-75 0
4.08247e-60 -1.67088e-74 0
1.34205e-61 -9.49851e-74 0
4.37788e-59 -4.90126e-71 0
0 -2.30341e-151 0
9.93485e-09 -1.43086e-149 0
4.09479e-08 -8.37062e-148 0
3.13415e-07 -4.71422e-146 0
5.14261e-07 -2.29769e-144 0
2.7576e-07 -8.58873e-143 0
5.85237e-08 -2.14107e-141 0
3.26225e-09 -2.05744e-141 0
0 0 0
0 0 0
0 -8.88082e-132 0
3.42987e-14 -4.84121e-130 0
7.19688e-15 -2.55443e-128 0
1.08276e-15 -1.32878e-126 0
1.38259e-16 -6.81251e-125 0
1.57927e-17 -3.44132e-123 0
1.65227e-18 -1.71224e-121 0
1.60403e-19 -8.38835e-120 0
1.45692e-20 -4.04481e-118 0
1.24532e-21 -1.91894e-116 0
1.00615e-22 -8.95325e-115 0
7.71146e-24 -4.1064e-113 0
5.62332e-25 -1.85051e-111 0
3.91156e-26 -8.18921e-110 0
2.60129e-27 -3.55685e-108 0
1.65724e-28 -1.51528e-106 0
1.01329e-29 -6.32741e-105 0
5.95594e-31 -2.58787e-103 0
3.37052e-32 -1.03582e-101 0
1.839e-33 -4.05373e-100 0
9.68649e-35 -1.54957e-98 0
4.93145e-36 -5.77898e-97 0
2.42937e-37 -2.09999e-95 0
1.15926e-38 -7.42448e-94 0
5.36361e-40 -2.54955e-92 0
2.4084e-41 -8.48706e-91 0
1.05044e-42 -2.73244e-89 0
4.45393e-44 -8.4853e-88 0
1.83729e-45 -2.53334e-86 0
7.37892e-47 -7.24299e-85 0
2.8873e-48 -1.97345e-83 0
1.10144e-49 -5.09279e-82 0
4.09891e-51 -1.23506e-80 0
1.48894e-52 -2.78553e-79 0
5.28243e-54 -5.76027e-78 0
1.83135e-55 -1.07032e-76 0
6.2075e-57 -1.73342e-75 0
2.05818e-58 -2.32862e-74 0
6.67867e-60 -2.36946e-73 0
2.18778e-61 -1.4862e-72 0
7.2724e-59 -7.94292e-70 0
0 -5.54261e-150 0
1.20949e-08 -3.41739e-148 0
8.7682e-08 -2.10886e-146 0
2.9118e-07 -1.24162e-144 0
3.26528e-07 -6.64752e-143 0
1.50355e-07 -3.12311e-141 0
3.63305e-08 -1.254e-139 0
5.18088e-09 -3.72316e-138 0
2.1574e-10 -3.60081e-138 0
2.33078e-11 0 0
2.6933e-12 -2.54073e-131 0
3.32197e-13 -1.40001e-129 0
3.8781e-14 -7.47195e-128 0
4.29031e-15 -3.93317e-126 0
4.49936e-16 -2.04147e-124 0
4.4745e-17 -1.04451e-122 0
4.22213e-18 -5.26652e-121 0
3.78368e-19 -2.616e-119 0
3.2241e-20 -1.27971e-117 0
2.61584e-21 -6.16289e-116 0
2.02379e-22 -2.92076e-114 0
1.49531e-23 -1.36165e-112 0
1.05676e-24 -6.24171e-111 0
7.15406e-26 -2.81192e-109 0
4.64621e-27 -1.24434e-107 0
2.89886e-28 -5.40594e-106 0
1.73989e-29 -2.30426e-104 0
1.00587e-30 -9.63007e-103 0
5.60817e-32 -3.94315e-101 0
3.01897e-33 -1.58058e-99 0
1.57084e-34 -6.1966e-98 0
7.90856e-36 -2.37359e-96 0
3.85638e-37 -8.87296e-95 0
1.823e-38 -3.23271e-93 0
8.36189e-40 -1.14615e-91 0
3.72475e-41 -3.94753e-90 0
1.61254e-42 -1.31802e-88 0
6.79014e-44 -4.25564e-87 0
2.78299e-45 -1.32489e-85 0
1.11099e-46 -3.96287e-84 0
4.32269e-48 -1.13378e-82 0
1.64029e-49 -3.0853e-81 0
6.07384e-51 -7.92811e-80 0
2.196e-52 -1.90527e-78 0
7.75645e-54 -4.22572e-77 0
2.67782e-55 -8.48631e-76 0
9.04074e-57 -1.49902e-74 0
2.98633e-58 -2.22002e-73 0
9.65592e-60 -2.52021e-72 0
3.15204e-61 -1.77785e-71 0
1.06325e-58 -9.8564e-69 0
0 -7.47911e-149 0
1.65841e-08 -4.58146e-147 0
8.27792e-08 -2.86368e-145 0
1.66214e-07 -1.74227e-143 0
1.36663e-07 -1.04796e-141 0
5.49895e-08 -6.23147e-140 0
1.36649e-08 -3.66296e-138 0
2.44605e-09 -2.12826e-136 0
2.95242e-10 -1.22209e-134 0
3.38167e-11 -6.93429e-133 0
3.98991e-12 -3.88609e-131 0
4.5232e-13 -2.12514e-129 0
4.92483e-14 -1.14675e-127 0
5.14119e-15 -6.10581e-126 0
5.13644e-16 -3.2071e-124 0
4.90416e-17 -1.66137e-122 0
4.47103e-18 -8.48567e-121 0
3.89121e-19 -4.27219e-119 0
3.23372e-20 -2.11949e-117 0
2.56759e-21 -1.03583e-115 0
1.94955e-22 -4.9851e-114 0
1.41702e-23 -2.36174e-112 0
9.87078e-25 -1.10102e-110 0
6.59744e-26 -5.04868e-109 0
4.23618e-27 -2.27607e-107 0
2.6162e-28 -1.00834e-105 0
1.55588e-29 -4.38741e-104 0
8.92051e-31 -1.87385e-102 0
4.93616e-32 -7.85064e-101 0
2.63899e-33 -3.22412e-99 0
1.36451e-34 -1.2969e-97 0
6.83009e-36 -5.10511e-96 0
3.31278e-37 -1.96456e-94 0
1.55833e-38 -7.38229e-93 0
7.11528e-40 -2.70525e-91 0
3.15602e-41 -9.65268e-90 0
1.36093e-42 -3.34759e-88 0
5.70952e-44 -1.12598e-86 0
2.33202e-45 -3.6638e-85 0
9.27943e-47 -1.14965e-83 0
3.59952e-48 -3.46525e-82 0
1.36196e-49 -9.98346e-81 0
5.02963e-51 -2.73148e-79 0
1.81383e-52 -7.03598e-78 0
6.39118e-54 -1.68592e-76 0
2.20144e-55 -3.69268e-75 0
7.41632e-57 -7.19642e-74 0
2.44472e-58 -1.19248e-72 0
7.88926e-60 -1.54018e-71 0
2.57041e-61 -1.25456e-70 0
8.73642e-59 -7.2269e-68 0
0 0 0
8.18456e-09 0 0
2.76767e-08 0 0
4.06781e-08 0 0
2.8065e-08 0 0
1.06764e-08 0 0
2.71923e-09 0 0
5.27421e-10 0 0
7.95016e-11 0 0
1.0509e-11 0 0
1.29661e-12 0 0
1.51066e-13 0 0
1.67092e-14 0 0
1.75858e-15 0 0
1.76263e-16 0 0
1.68317e-17 0 0
1.5319e-18 0 0
1.32955e-19 0 0
1.10123e-20 0 0
8.71264e-22 0 0
6.59149e-23 0 0
4.77399e-24 0 0
3.31411e-25 0 0
2.20787e-26 0 0
1.41329e-27 0 0
8.70298e-29 0 0
5.16169e-30 0 0
2.95187e-31 0 0
1.62952e-32 0 0
8.69236e-34 0 0
4.48504e-35 0 0
2.24061e-36 0 0
1.08476e-37 0 0
5.09387e-39 0 0
2.32206e-40 0 0
1.02839e-41 0 0
4.42821e-43 0 0
1.85524e-44 0 0
7.56786e-46 0 0
3.0077e-47 0 0
1.16535e-48 0 0
4.40457e-50 0 0
1.62489e-51 0 0
5.85407e-53 0 0
2.06079e-54 0 0
7.09206e-56 0 0
2.38717e-57 0 0
7.8627e-59 0 0
2.53538e-60 0 0
8.25426e-62 0 0
2.81381e-59 0 0
0 0 -1.69521e-152
2.58501e-08 0 -1.05738e-150
6.72006e-08 0 -7.69864e-149
7.89038e-08 0 -5.03647e-147
4.67337e-08 0 -2.6355e-145
1.5225e-08 0 -9.77845e-144
3.54719e-09 0 -2.15881e-142
6.79593e-10 0 -2.9777e-142
1.14241e-10 0 -1.51863e-140
1.73852e-11 0 -7.86934e-139
2.43407e-12 0 -4.01288e-137
3.16346e-13 0 -2.0143e-135
3.83735e-14 0 -9.94985e-134
4.36078e-15 0 -4.83475e-132
4.65636e-16 0 -2.31004e-130
4.68387e-17 0 -1.08484e-128
4.4492e-18 0 -5.00514e-127
4.00011e-19 0 -2.26754e-125
3.41136e-20 0 -1.00823e-123
2.76542e-21 0 -4.39727e-122
2.1352e-22 0 -1.88004e-120
1.57322e-23 0 -7.87467e-119
1.10813e-24 0 -3.22905e-117
7.47456e-26 0 -1.29529e-115
4.83575e-27 0 -5.07873e-114
3.00526e-28 0 -1.94468e-112
1.79661e-29 0 -7.26484e-111
1.03458e-30 0 -2.64496e-109
5.74583e-32 0 -9.37384e-108
3.08132e-33 0 -3.22961e-106
1.59735e-34 0 -1.08016e-104
8.01304e-36 0 -3.50121e-103
3.89369e-37 0 -1.09786e-101
1.83443e-38 0 -3.32335e-100
8.38684e-40 0 -9.68883e-99
3.7241e-41 0 -2.71303e-97
1.60737e-42 0 -7.27374e-96
6.74853e-44 0 -1.86028e-94
2.75813e-45 0 -4.51879e-93
1.09807e-46 0 -1.03711e-91
4.26123e-48 0 -2.23479e-90
1.61288e-49 0 -4.48602e-89
5.95781e-51 0 -8.30666e-88
2.14899e-52 0 -1.40098e-86
7.57323e-54 0 -2.11629e-85
2.60886e-55 0 -2.79781e-84
8.78933e-57 0 -3.13076e-83
2.89738e-58 0 -2.8162e-82
9.3499e-60 0 -1.86487e-81
3.04618e-61 0 -7.62411e-81
1.02431e-58 0 -3.35948e-78
0.0036 -8.97459e-152 -3.23401e-152
0.00477177 -1.114e-147 -7.12393e-148
0.00410978 -1.22788e-145 -1.08466e-145
0.00247131 -1.48758e-143 -1.40639e-143
0.000967539 -1.41303e-141 -1.25891e-141
0.000231665 -8.15675e-140 -6.90107e-140
4.29786e-05 -2.62677e-138 -2.2611e-138
6.90505e-06 -6.87382e-139 -6.79338e-139
1.00539e-06 -3.30417e-137 -3.3055e-137
1.35237e-07 -1.74936e-135 -1.74946e-135
1.69633e-08 -9.09355e-134 -9.09359e-134
1.99442e-09 -4.65316e-132 -4.65316e-132
2.20518e-10 -2.34393e-130 -2.34393e-130
2.29861e-11 -1.16193e-128 -1.16193e-128
2.26364e-12 -5.66613e-127 -5.66613e-127
2.11028e-13 -2.71697e-125 -2.71697e-125
1.86595e-14 -1.28052e-123 -1.28052e-123
1.56787e-15 -5.92903e-122 -5.92903e-122
1.25422e-16 -2.69565e-120 -2.69565e-120
9.56891e-18 -1.2028e-118 -1.2028e-118
6.97473e-19 -5.26407e-117 -5.26407e-117
4.865e-20 -2.2583e-115 -2.2583e-115
3.25245e-21 -9.49038e-114 -9.49038e-114
2.08717e-22 -3.90402e-112 -3.90402e-112
1.28748e-23 -1.57083e-110 -1.57083e-110
7.64435e-25 -6.17672e-109 -6.17672e-109
4.37429e-26 -2.37136e-107 -2.37136e-107
2.41525e-27 -8.87966e-106 -8.87966e-106
1.28823e-28 -3.2394e-104 -3.2394e-104
6.64466e-30 -1.14989e-102 -1.14989e-102
3.31769e-31 -3.96608e-101 -3.96608e-101
1.60509e-32 -1.32709e-99 -1.32709e-99
7.53116e-34 -4.30037e-98 -4.30037e-98
3.43e-35 -1.34681e-96 -1.34681e-96
1.51758e-36 -4.06737e-95 -4.06737e-95
6.52793e-38 -1.18136e-93 -1.18136e-93
2.73201e-39 -3.28996e-92 -3.28996e-92
1.11322e-40 -8.75353e-91 -8.75353e-91
4.41934e-42 -2.21576e-89 -2.21576e-89
1.71038e-43 -5.30889e-88 -5.30889e-88
6.45729e-45 -1.19658e-86 -1.19658e-86
2.37948e-46 -2.51781e-85 -2.51781e-85
8.56309e-48 -4.89837e-84 -4.89837e-84
3.0111e-49 -8.70201e-83 -8.70201e-83
1.03512e-50 -1.38842e-81 -1.38842e-81
3.48042e-52 -1.94444e-80 -1.94444e-80
1.14513e-53 -2.312e-79 -2.312e-79
3.68858e-55 -2.21618e-78 -2.21618e-78
1.16369e-56 -1.56644e-77 -1.56644e-77
3.70597e-58 -6.80737e-77 -6.80737e-77
3.695e-58 -1.08634e-76 -1.08634e-76
0.01 -6.93798e-151 -7.99887e-153
0.0110383 -6.96636e-147 -8.17232e-148
0.010079 -6.50897e-145 -4.67308e-146
0.00705435 -9.80611e-143 -4.67388e-143
0.00311486 -2.27645e-140 -1.91385e-140
0.000615845 -2.55142e-138 -2.09868e-138
9.689e-05 -1.61262e-136 -1.38515e-136
1.37786e-05 -8.03071e-138 -7.90765e-138
1.84727e-06 -3.37612e-136 -3.38383e-136
2.34919e-07 -1.83541e-134 -1.83599e-134
2.83592e-08 -9.6541e-133 -9.65438e-133
3.24807e-09 -4.9906e-131 -4.9906e-131
3.52748e-10 -2.54e-129 -2.54e-129
3.63206e-11 -1.27263e-127 -1.27263e-127
3.54687e-12 -6.27469e-126 -6.27469e-126
3.28766e-13 -3.04324e-124 -3.04324e-124
2.89575e-14 -1.45128e-122 -1.45128e-122
2.42688e-15 -6.8021e-121 -6.8021e-121
1.93813e-16 -3.13188e-119 -3.13188e-119
1.47715e-17 -1.41584e-117 -1.41584e-117
1.07607e-18 -6.28107e-116 -6.28107e-116
7.50389e-20 -2.73279e-114 -2.73279e-114
5.01658e-21 -1.16535e-112 -1.16535e-112
3.21974e-22 -4.86722e-111 -4.86722e-111
1.98665e-23 -1.98957e-109 -1.98957e-109
1.17998e-24 -7.95302e-108 -7.95302e-108
6.75489e-26 -3.10609e-106 -3.10609e-106
3.73135e-27 -1.18407e-104 -1.18407e-104
1.99115e-28 -4.40099e-103 -4.40099e-103
1.02753e-29 -1.59299e-101 -1.59299e-101
5.13297e-31 -5.60763e-100 -5.60763e-100
2.48455e-32 -1.91691e-98 -1.91691e-98
1.16633e-33 -6.35248e-97 -6.35248e-97
5.31449e-35 -2.03691e-95 -2.03691e-95
2.35248e-36 -6.30566e-94 -6.30566e-94
1.01239e-37 -1.87986e-92 -1.87986e-92
4.23888e-39 -5.38122e-91 -5.38122e-91
1.72798e-40 -1.474e-89 -1.474e-89
6.8628e-42 -3.84771e-88 -3.84771e-88
2.65715e-43 -9.52483e-87 -9.52483e-87
1.00357e-44 -2.2226e-85 -2.2226e-85
3.69955e-46 -4.8527e-84 -4.8527e-84
1.33187e-47 -9.8206e-83 -9.8206e-83
4.68504e-49 -1.81981e-81 -1.81981e-81
1.61113e-50 -3.03784e-80 -3.03784e-80
5.41901e-52 -4.46609e-79 -4.46609e-79
1.78356e-53 -5.59448e-78 -5.59448e-78
5.74686e-55 -5.67003e-77 -5.67003e-77
1.81361e-56 -4.24925e-76 -4.24925e-76
5.77751e-58 -1.95376e-75 -1.95376e-75
5.76041e-58 -3.15526e-75 -3.15526e-75
0.0148 -3.60543e-152 5.33343e-151
0.0165959 -3.1624e-148 -8.21172e-147
0.0162495 -2.79853e-146 5.07352e-145
0.013671 -1.29767e-144 -6.35136e-143
0.00740072 -3.53936e-142 -1.65309e-140
0.00042886 -3.52666e-142 -2.02986e-138
6.29267e-05 0 -1.3629e-136
8.4257e-06 9.82132e-135 8.27797e-135
1.20084e-06 -2.70967e-135 -2.75439e-135
1.60173e-07 -1.67203e-133 -1.67545e-133
2.00928e-08 -9.00407e-132 -9.00589e-132
2.37497e-09 -4.70916e-130 -4.70916e-130
2.64783e-10 -2.42269e-128 -2.42269e-128
2.78721e-11 -1.22741e-126 -1.22741e-126
2.77344e-12 -6.12167e-125 -6.12167e-125
2.61251e-13 -3.00449e-123 -3.00449e-123
2.3334e-14 -1.45052e-121 -1.45052e-121
1.97951e-15 -6.88558e-120 -6.88558e-120
1.59784e-16 -3.21238e-118 -3.21238e-118
1.22936e-17 -1.47222e-116 -1.47222e-116
9.03129e-19 -6.62443e-115 -6.62443e-115
6.34554e-20 -2.92492e-113 -2.92492e-113
4.27105e-21 -1.26651e-111 -1.26651e-111
2.75811e-22 -5.37455e-110 -5.37455e-110
1.71132e-23 -2.23363e-108 -2.23363e-108
1.02163e-24 -9.08398e-107 -9.08398e-107
5.87571e-26 -3.61219e-105 -3.61219e-105
3.25962e-27 -1.4031e-103 -1.4031e-103
1.7463e-28 -5.31843e-102 -5.31843e-102
9.04471e-30 -1.96498e-100 -1.96498e-100
4.53359e-31 -7.06745e-99 -7.06745e-99
2.20135e-32 -2.47101e-97 -2.47101e-97
1.03643e-33 -8.38488e-96 -8.38488e-96
4.73557e-35 -2.75635e-94 -2.75635e-94
2.10161e-36 -8.75947e-93 -8.75947e-93
9.06617e-38 -2.68461e-91 -2.68461e-91
3.80463e-39 -7.91268e-90 -7.91268e-90
1.55428e-40 -2.23549e-88 -2.23549e-88
6.18539e-42 -6.03006e-87 -6.03006e-87
2.39944e-43 -1.54568e-85 -1.54568e-85
9.07874e-45 -3.74329e-84 -3.74329e-84
3.3525e-46 -8.5036e-83 -8.5036e-83
1.20889e-47 -1.79556e-81 -1.79556e-81
4.25902e-49 -3.48247e-80 -3.48247e-80
1.46677e-50 -6.10569e-79 -6.10569e-79
4.94038e-52 -9.46412e-78 -9.46412e-78
1.6282e-53 -1.25524e-76 -1.25524e-76
5.25294e-55 -1.35291e-75 -1.35291e-75
1.65976e-56 -1.08222e-74 -1.08222e-74
5.29372e-58 -5.30386e-74 -5.30386e-74
5.27799e-58 -8.67582e-74 -8.67582e-74
0.018 -1.34407e-153 1.68517e-149
0.0203701 -7.25361e-150 -1.89427e-145
0.0203408 -9.616e-148 1.29001e-143
0.0194635 -2.58457e-147 -1.1367e-141
0.0130064 -5.4846e-144 1.02011e-139
0 -5.48297e-144 1.03161e-139
0 0 0
0 0 8.28525e-135
1.20857e-07 -6.14447e-133 -5.20034e-133
2.9989e-08 -1.19825e-132 -1.21757e-132
5.10506e-09 -7.22846e-131 -7.23951e-131
7.28336e-10 -3.85753e-129 -3.85754e-129
9.2348e-11 -2.00666e-127 -2.00666e-127
1.06751e-11 -1.02834e-125 -1.02834e-125
1.14062e-12 -5.18981e-124 -5.18981e-124
1.13626e-13 -2.57852e-122 -2.57852e-122
1.06171e-14 -1.26074e-120 -1.26074e-120
9.348e-16 -6.06386e-119 -6.06386e-119
7.78441e-17 -2.86781e-117 -2.86781e-117
6.15013e-18 -1.33301e-115 -1.33301e-115
4.62245e-19 -6.08671e-114 -6.08671e-114
3.31305e-20 -2.7288e-112 -2.7288e-112
2.26928e-21 -1.20047e-110 -1.20047e-110
1.48832e-22 -5.17915e-109 -5.17915e-109
9.36322e-24 -2.18977e-107 -2.18977e-107
5.65959e-25 -9.06684e-106 -9.06684e-106
3.29178e-26 -3.67354e-104 -3.67354e-104
1.84489e-27 -1.45514e-102 -1.45514e-102
9.97626e-29 -5.6298e-101 -5.6298e-101
5.21133e-30 -2.12513e-99 -2.12513e-99
2.63272e-31 -7.81739e-98 -7.81739e-98
1.28765e-32 -2.79857e-96 -2.79857e-96
6.10325e-34 -9.73535e-95 -9.73535e-95
2.80609e-35 -3.28516e-93 -3.28516e-93
1.25257e-36 -1.07324e-91 -1.07324e-91
5.43284e-38 -3.38668e-90 -3.38668e-90
2.29148e-39 -1.02953e-88 -1.02953e-88
9.40584e-41 -3.00558e-87 -3.00558e-87
3.7599e-42 -8.39499e-86 -8.39499e-86
1.46469e-43 -2.23335e-84 -2.23335e-84
5.56397e-45 -5.62775e-83 -5.62775e-83
2.06232e-46 -1.33401e-81 -1.33401e-81
7.46299e-48 -2.94858e-80 -2.94858e-80
2.63813e-49 -6.0076e-79 -6.0076e-79
9.11454e-51 -1.11094e-77 -1.11094e-77
3.07928e-52 -1.82447e-76 -1.82447e-76
1.01777e-53 -2.5767e-75 -2.5767e-75
3.29257e-55 -2.97316e-74 -2.97316e-74
1.04307e-56 -2.55856e-73 -2.55856e-73
3.3354e-58 -1.34866e-72 -1.34866e-72
3.32538e-58 -2.23653e-72 -2.23653e-72
0.0196 -2.348e-154 -1.25739e-149
0.0223021 -1.99531e-150 1.13823e-145
0.022151 -1.5615e-148 -5.40753e-144
0.0223124 -3.94075e-147 3.06238e-142
0.0170208 -6.70067e-145 -1.38618e-140
0.00273858 -6.66281e-145 9.09315e-138
0 0 9.10733e-138
0 0 0
0 0 -5.17587e-133
2.78697e-09 3.66671e-131 2.97049e-131
7.70691e-10 -4.53077e-130 -4.59724e-130
1.4139e-10 -2.67031e-128 -2.67033e-128
2.12275e-11 -1.40503e-126 -1.40503e-126
2.7817e-12 -7.28539e-125 -7.28539e-125
3.27823e-13 -3.72182e-123 -3.72182e-123
3.5344e-14 -1.87261e-121 -1.87261e-121
3.5252e-15 -9.27637e-120 -9.27637e-120
3.27864e-16 -4.52254e-118 -4.52254e-118
2.86067e-17 -2.16915e-116 -2.16915e-116
2.35283e-18 -1.02309e-114 -1.02309e-114
1.83137e-19 -4.743e-113 -4.743e-113
1.35356e-20 -2.16022e-111 -2.16022e-111
9.52668e-22 -9.66091e-110 -9.66091e-110
6.40126e-23 -4.23997e-108 -4.23997e-108
4.11547e-24 -1.825e-106 -1.825e-106
2.53672e-25 -7.6988e-105 -7.6988e-105
1.50179e-26 -3.18069e-103 -3.18069e-103
8.55353e-28 -1.28589e-101 -1.28589e-101
4.6939e-29 -5.0825e-100 -5.0825e-100
2.48528e-30 -1.96205e-98 -1.96205e-98
1.27123e-31 -7.38956e-97 -7.38956e-97
6.28922e-33 -2.7118e-95 -2.7118e-95
3.01279e-34 -9.68306e-94 -9.68306e-94
1.3989e-35 -3.35881e-92 -3.35881e-92
6.30191e-37 -1.12973e-90 -1.12973e-90
2.75685e-38 -3.67665e-89 -3.67665e-89
1.17214e-39 -1.15488e-87 -1.15488e-87
4.84749e-41 -3.49103e-86 -3.49103e-86
1.95144e-42 -1.01198e-84 -1.01198e-84
7.65246e-44 -2.80124e-83 -2.80124e-83
2.92517e-45 -7.36568e-82 -7.36568e-82
1.09064e-46 -1.82775e-80 -1.82775e-80
3.96879e-48 -4.24441e-79 -4.24441e-79
1.41037e-49 -9.12295e-78 -9.12295e-78
4.89714e-51 -1.78806e-76 -1.78806e-76
1.66233e-52 -3.12891e-75 -3.12891e-75
5.51923e-54 -4.737e-74 -4.737e-74
1.79321e-55 -5.89838e-73 -5.89838e-73
5.70411e-57 -5.51327e-72 -5.51327e-72
1.83132e-58 -3.16115e-71 -3.16115e-71
1.82573e-58 -5.32005e-71 -5.32005e-71
0.0196 -6.48516e-153 -1.441e-149
0.0222989 -9.04415e-149 1.34257e-145
0.0221415 -5.95422e-147 -7.06624e-144
0.0223018 -3.84184e-145 4.69383e-142
0.0170499 -3.77882e-143 -3.36028e-140
0.00563173 -1.58143e-141 3.48447e-139
0.000435038 -1.54402e-141 -1.75531e-135
0 0 -1.7557e-135
0 0 0
0 0 3.07717e-131
6.61509e-11 -2.68778e-129 -2.66277e-129
3.73544e-11 -1.50228e-127 -1.50234e-127
8.50067e-12 -7.99915e-126 -7.99915e-126
1.39118e-12 -4.19806e-124 -4.19806e-124
1.8811e-13 -2.17158e-122 -2.17158e-122
2.22481e-14 -1.10686e-120 -1.10686e-120
2.37056e-15 -5.55718e-119 -5.55718e-119
2.31592e-16 -2.74735e-117 -2.74735e-117
2.09864e-17 -1.33694e-115 -1.33694e-115
1.77849e-18 -6.40137e-114 -6.40137e-114
1.41818e-19 -3.01452e-112 -3.01452e-112
1.06922e-20 -1.39557e-110 -1.39557e-110
7.65145e-22 -6.34828e-109 -6.34828e-109
5.21405e-23 -2.83601e-107 -2.83601e-107
3.39282e-24 -1.24354e-105 -1.24354e-105
2.1132e-25 -5.34854e-104 -5.34854e-104
1.2625e-26 -2.25498e-102 -2.25498e-102
7.24853e-28 -9.31233e-101 -9.31233e-101
4.00613e-29 -3.76376e-99 -3.76376e-99
2.13462e-30 -1.48743e-97 -1.48743e-97
1.0981e-31 -5.74191e-96 -5.74191e-96
5.46063e-33 -2.16264e-94 -2.16264e-94
2.62807e-34 -7.93703e-93 -7.93703e-93
1.22545e-35 -2.83422e-91 -2.83422e-91
5.54198e-37 -9.83052e-90 -9.83052e-90
2.43305e-38 -3.30547e-88 -3.30547e-88
1.03786e-39 -1.07499e-86 -1.07499e-86
4.30517e-41 -3.37219e-85 -3.37219e-85
1.73798e-42 -1.01705e-83 -1.01705e-83
6.83318e-44 -2.93753e-82 -2.93753e-82
2.61834e-45 -8.08561e-81 -8.08561e-81
9.78452e-47 -2.108e-79 -2.108e-79
3.56809e-48 -5.16457e-78 -5.16457e-78
1.27049e-49 -1.17674e-76 -1.17674e-76
4.4197e-51 -2.4583e-75 -2.4583e-75
1.50291e-52 -4.61435e-74 -4.61435e-74
4.99817e-54 -7.54874e-73 -7.54874e-73
1.62646e-55 -1.02421e-71 -1.02421e-71
5.18134e-57 -1.05232e-70 -1.05232e-70
1.66588e-58 -6.65915e-70 -6.65915e-70
1.6608e-58 -1.1386e-69 -1.1386e-69
0.018 -1.98718e-151 1.4614e-149
0.0203412 -4.14124e-147 -1.62901e-145
0.020264 -3.08929e-145 1.07049e-143
0.0193468 -2.56441e-143 -9.08765e-142
0.0130609 -2.03753e-141 6.99315e-140
0.00451702 -9.6902e-140 1.04192e-137
0.000730608 -2.58296e-138 8.87628e-137
3.21063e-05 -2.48807e-138 1.20161e-133
0 0 1.20082e-133
0 0 0
0 -1.16306e-128 -1.15849e-128
2.07716e-10 -6.46713e-127 -6.46667e-127
4.04171e-11 -3.48357e-125 -3.48357e-125
5.65101e-12 -1.85084e-123 -1.85084e-123
6.72149e-13 -9.69691e-122 -9.69691e-122
7.16959e-14 -5.00836e-120 -5.00836e-120
7.02302e-15 -2.54933e-118 -2.54933e-118
6.40068e-16 -1.27846e-116 -1.27846e-116
5.47245e-17 -6.31445e-115 -6.31445e-115
4.41456e-18 -3.07053e-113 -3.07053e-113
3.37459e-19 -1.46945e-111 -1.46945e-111
2.4529e-20 -6.91803e-110 -6.91803e-110
1.7002e-21 -3.20262e-108 -3.20262e-108
1.12652e-22 -1.45719e-106 -1.45719e-106
7.1503e-24 -6.51313e-105 -6.51313e-105
4.35588e-25 -2.85815e-103 -2.85815e-103
2.55114e-26 -1.23065e-101 -1.23065e-101
1.4387e-27 -5.19571e-100 -5.19571e-100
7.82341e-29 -2.1493e-98 -2.1493e-98
4.10754e-30 -8.70425e-97 -8.70425e-97
2.08472e-31 -3.44787e-95 -3.44787e-95
1.02396e-32 -1.33446e-93 -1.33446e-93
4.87241e-34 -5.04073e-92 -5.04073e-92
2.24829e-35 -1.85582e-90 -1.85582e-90
1.00695e-36 -6.64922e-89 -6.64922e-89
4.38109e-38 -2.31436e-87 -2.31436e-87
1.85325e-39 -7.80937e-86 -7.80937e-86
7.62774e-41 -2.54836e-84 -2.54836e-84
3.0569e-42 -8.01839e-83 -8.01839e-83
1.19369e-43 -2.42401e-81 -2.42401e-81
4.54475e-45 -7.0093e-80 -7.0093e-80
1.68813e-46 -1.92782e-78 -1.92782e-78
6.12122e-48 -5.00675e-77 -5.00675e-77
2.16795e-49 -1.21605e-75 -1.21605e-75
7.50366e-51 -2.72577e-74 -2.72577e-74
2.53941e-52 -5.53196e-73 -5.53196e-73
8.40704e-54 -9.8742e-72 -9.8742e-72
2.724e-55 -1.47749e-70 -1.47749e-70
8.64234e-57 -1.69418e-69 -1.69418e-69
2.76756e-58 -1.20624e-68 -1.20624e-68
2.75928e-58 -2.09803e-68 -2.09803e-68
0.0148 -8.2152e-150 3.59291e-151
0.0163761 -1.86059e-145 -1.06045e-146
0.0158257 -1.43789e-143 -7.82925e-145
0.0132323 -1.08854e-141 -9.40263e-142
0.00730388 -7.14738e-140 -3.14683e-139
0.00224246 -3.69891e-138 -1.18365e-137
0.000415311 -1.54075e-136 -2.4001e-136
4.99891e-05 -4.67206e-135 -5.05796e-135
1.82023e-06 -4.52161e-135 -7.36367e-132
1.80511e-07 0 -4.35185e-130
1.91682e-08 -3.38995e-128 -3.43266e-128
2.16799e-09 -1.90625e-126 -1.90625e-126
2.33239e-10 -1.03913e-124 -1.03913e-124
2.38616e-11 -5.58969e-123 -5.58969e-123
2.32115e-12 -2.96642e-121 -2.96642e-121
2.14744e-13 -1.55273e-119 -1.55273e-119
1.8907e-14 -8.01418e-118 -8.01418e-118
1.58568e-15 -4.07756e-116 -4.07756e-116
1.26823e-16 -2.04452e-114 -2.04452e-114
9.68556e-18 -1.00993e-112 -1.00993e-112
7.07274e-19 -4.91306e-111 -4.91306e-111
4.94525e-20 -2.35298e-109 -2.35298e-109
3.31533e-21 -1.10897e-107 -1.10897e-107
2.13399e-22 -5.14133e-106 -5.14133e-106
1.32056e-23 -2.34361e-104 -2.34361e-104
7.86628e-25 -1.04988e-102 -1.04988e-102
4.51606e-26 -4.61957e-101 -4.61957e-101
2.50167e-27 -1.99535e-99 -1.99535e-99
1.33864e-28 -8.45486e-98 -8.45486e-98