# vtk DataFile Version 2.0
Tobias Weinzierl: CPU, Manycore and Cluster Computing
ASCII

DATASET STRUCTURED_POINTS
DIMENSIONS  51 11 6

ORIGIN 0 0 0 

SPACING 0.1 0.1 0.1 

POINT_DATA 3366

VECTORS velocity float
0 0 0
-2.34883e-13 0 0
-1.55097e-10 0 0
-1.00123e-10 0 0
-2.02395e-09 0 0
1.86596e-09 0 0
2.74054e-09 0 0
2.83202e-09 0 0
3.1055e-09 0 0
3.66886e-09 0 0
4.22765e-09 0 0
4.4532e-09 0 0
4.21283e-09 0 0
3.51829e-09 0 0
2.37291e-09 0 0
9.25862e-10 0 0
-4.71299e-10 0 0
-1.51908e-09 0 0
-2.20559e-09 0 0
-2.74111e-09 0 0
-3.33814e-09 0 0
-4.07636e-09 0 0
-4.90849e-09 0 0
-5.73366e-09 0 0
-6.46303e-09 0 0
-7.04884e-09 0 0
-7.48339e-09 0 0
-7.7847e-09 0 0
-7.9815e-09 0 0
-8.10302e-09 0 0
-8.17406e-09 0 0
-8.21242e-09 0 0
-8.2283e-09 0 0
-8.22945e-09 0 0
-8.22274e-09 0 0
-8.19851e-09 0 0
-8.12607e-09 0 0
-7.98314e-09 0 0
-7.78422e-09 0 0
-7.5753e-09 0 0
-7.40668e-09 0 0
-7.31128e-09 0 0
-7.29644e-09 0 0
-7.34257e-09 0 0
-7.40876e-09 0 0
-7.44971e-09 0 0
-7.43877e-09 0 0
-7.38496e-09 0 0
-7.32944e-09 0 0
-7.31402e-09 0 0
0.00140952 0 0
0 3.90202e-07 0
-5.72358e-13 -1.23556e-10 0
-2.53035e-10 -7.61623e-10 0
4.9556e-10 -2.30932e-10 0
-8.04444e-10 -1.55111e-09 0
5.82433e-09 -1.70836e-09 0
6.81263e-09 9.21386e-10 0
6.81907e-09 6.34611e-10 0
8.28121e-09 -8.83196e-10 0
1.06294e-08 -2.22263e-09 0
1.26247e-08 -2.95818e-09 0
1.35311e-08 -2.94999e-09 0
1.29906e-08 -1.99668e-09 0
1.10466e-08 -2.4914e-10 0
8.13242e-09 1.48627e-09 0
4.93624e-09 2.36106e-09 0
2.08347e-09 2.22572e-09 0
-1.98202e-10 1.58176e-09 0
-2.14554e-09 1.01179e-09 0
-4.16946e-09 7.70642e-10 0
-6.52214e-09 7.90585e-10 0
-9.17643e-09 8.89455e-10 0
-1.19063e-08 9.33091e-10 0
-1.44393e-08 8.79716e-10 0
-1.65748e-08 7.51327e-10 0
-1.82278e-08 5.90945e-10 0
-1.94131e-08 4.35134e-10 0
-2.02045e-08 3.04863e-10 0
-2.06957e-08 2.07254e-10 0
-2.09742e-08 1.40896e-10 0
-2.111e-08 9.98119e-11 0
-2.11514e-08 7.54693e-11 0
-2.11212e-08 6.16723e-11 0
-2.10261e-08 5.61029e-11 0
-2.0872e-08 4.60097e-11 0
-2.06323e-08 4.77947e-12 0
-2.02248e-08 -7.51026e-11 0
-1.95769e-08 -1.59018e-10 0
-1.87054e-08 -1.96611e-10 0
-1.7715e-08 -1.6269e-10 0
-1.67349e-08 -6.92553e-11 0
-1.58653e-08 4.87051e-11 0
-1.51561e-08 1.49546e-10 0
-1.45993e-08 1.97206e-10 0
-1.41325e-08 1.75718e-10 0
-1.36725e-08 1.01005e-10 0
-1.317e-08 1.8142e-11 0
-1.26553e-08 -1.88381e-11 0
-1.22352e-08 2.43367e-11 0
-1.20233e-08 1.15259e-10 0
0.00402299 -1.05032e-05 0
0 -1.94621e-08 0
-1.39055e-13 -2.32215e-10 0
5.72009e-10 -2.08452e-09 0
3.21999e-09 -4.54116e-09 0
5.91235e-09 -8.02389e-09 0
1.05817e-08 -5.78558e-09 0
8.17013e-09 2.65566e-11 0
6.95442e-09 -5.02713e-10 0
8.64688e-09 -3.52578e-09 0
1.27699e-08 -6.39336e-09 0
1.60017e-08 -8.85628e-09 0
1.68807e-08 -1.03947e-08 0
1.56416e-08 -9.66368e-09 0
1.26582e-08 -6.36893e-09 0
8.85906e-09 -1.88811e-09 0
5.12502e-09 2.19555e-09 0
1.9341e-09 5.09654e-09 0
-6.77111e-10 6.6999e-09 0
-2.9571e-09 7.22249e-09 0
-5.2103e-09 7.00591e-09 0
-7.62897e-09 6.36585e-09 0
-1.02193e-08 5.51059e-09 0
-1.28209e-08 4.5587e-09 0
-1.52034e-08 3.59347e-09 0
-1.71768e-08 2.68936e-09 0
-1.86549e-08 1.90645e-09 0
-1.96534e-08 1.27813e-09 0
-2.02523e-08 8.08701e-10 0
-2.0553e-08 4.80178e-10 0
-2.06473e-08 2.63068e-10 0
-2.06026e-08 1.24871e-10 0
-2.04613e-08 3.03784e-11 0
-2.02329e-08 -5.4834e-11 0
-1.98944e-08 -1.52936e-10 0
-1.94278e-08 -2.91797e-10 0
-1.87982e-08 -5.25315e-10 0
-1.78921e-08 -8.77123e-10 0
-1.6589e-08 -1.27852e-09 0
-1.48862e-08 -1.60748e-09 0
-1.2915e-08 -1.77714e-09 0
-1.08573e-08 -1.77596e-09 0
-8.87421e-09 -1.64961e-09 0
-7.08065e-09 -1.47115e-09 0
-5.52933e-09 -1.31706e-09 0
-4.196e-09 -1.23445e-09 0
-3.00737e-09 -1.20794e-09 0
-1.90964e-09 -1.15695e-09 0
-9.35518e-10 -9.7561e-10 0
-2.11014e-10 -5.89626e-10 0
1.74522e-10 -1.31619e-11 0
0.00574258 -2.71184e-05 0
0 -6.45356e-07 0
6.53556e-13 -1.23093e-09 0
1.45237e-09 -4.52987e-09 0
4.95866e-09 -8.75412e-09 0
6.82963e-09 -1.20229e-08 0
6.62338e-09 -6.56989e-09 0
4.09692e-09 -4.04778e-12 0
2.96736e-09 -1.23468e-09 0
2.29104e-09 -4.85746e-09 0
4.10284e-09 -9.9105e-09 0
6.85732e-09 -1.49491e-08 0
7.64426e-09 -1.83015e-08 0
6.82366e-09 -1.78849e-08 0
4.16986e-09 -1.34055e-08 0
3.32163e-10 -6.34534e-09 0
-3.85946e-09 1.59199e-09 0
-7.59963e-09 8.50549e-09 0
-1.02285e-08 1.27983e-08 0
-1.14397e-08 1.40329e-08 0
-1.14177e-08 1.29626e-08 0
-1.07159e-08 1.076e-08 0
-9.91703e-09 8.32414e-09 0
-9.35155e-09 6.10392e-09 0
-9.05739e-09 4.24728e-09 0
-8.91325e-09 2.7738e-09 0
-8.78517e-09 1.66077e-09 0
-8.59792e-09 8.66736e-10 0
-8.33645e-09 3.36742e-10 0
-8.01885e-09 7.27615e-12 0
-7.66816e-09 -1.87113e-10 0
-7.29347e-09 -3.06082e-10 0
-6.89205e-09 -4.05707e-10 0
-6.44342e-09 -5.44657e-10 0
-5.88683e-09 -7.65177e-10 0
-5.17173e-09 -1.10157e-09 0
-4.26289e-09 -1.62315e-09 0
-3.02432e-09 -2.36664e-09 0
-1.29135e-09 -3.22581e-09 0
9.47454e-10 -3.99221e-09 0
3.5212e-09 -4.49088e-09 0
6.1927e-09 -4.65743e-09 0
8.75014e-09 -4.5264e-09 0
1.10296e-08 -4.19447e-09 0
1.29375e-08 -3.78609e-09 0
1.44861e-08 -3.39946e-09 0
1.57696e-08 -3.04553e-09 0
1.68771e-08 -2.63529e-09 0
1.78096e-08 -2.03501e-09 0
1.8459e-08 -1.18061e-09 0
1.8829e-08 -1.83228e-10 0
0.00644549 -4.5618e-05 0
0 -1.26672e-06 0
-2.73816e-13 -2.38546e-09 0
3.64745e-10 -6.73033e-09 0
1.65645e-09 -8.94164e-09 0
1.62992e-09 -7.22607e-09 0
-4.7873e-13 -2.63078e-09 0
-3.85541e-11 -3.85767e-11 0
3.70821e-11 -3.77779e-11 0
-1.18014e-09 -2.84377e-09 0
-5.28314e-09 -1.01545e-08 0
-7.39249e-09 -1.82938e-08 0
-6.61898e-09 -2.38693e-08 0
-6.87558e-09 -2.41881e-08 0
-8.88616e-09 -1.83033e-08 0
-1.19715e-08 -8.18523e-09 0
-1.52892e-08 3.2482e-09 0
-1.80095e-08 1.25784e-08 0
-1.93067e-08 1.74048e-08 0
-1.85771e-08 1.75495e-08 0
-1.58546e-08 1.46272e-08 0
-1.18884e-08 1.0626e-08 0
-7.69805e-09 6.88069e-09 0
-4.04043e-09 3.92252e-09 0
-1.20554e-09 1.79577e-09 0
8.64932e-10 3.69475e-10 0
2.36459e-09 -5.12329e-10 0
3.47898e-09 -9.91325e-10 0
4.33882e-09 -1.19212e-09 0
5.02602e-09 -1.2232e-09 0
5.59378e-09 -1.17832e-09 0
6.09037e-09 -1.13395e-09 0
6.56085e-09 -1.15174e-09 0
7.0413e-09 -1.29804e-09 0
7.6102e-09 -1.62827e-09 0
8.34968e-09 -2.17678e-09 0
9.29396e-09 -3.02273e-09 0
1.06157e-08 -4.21732e-09 0
1.25455e-08 -5.60948e-09 0
1.50909e-08 -6.88231e-09 0
1.80097e-08 -7.74368e-09 0
2.09864e-08 -8.05175e-09 0
2.37524e-08 -7.82278e-09 0
2.61097e-08 -7.19118e-09 0
2.79606e-08 -6.35714e-09 0
2.93572e-08 -5.50003e-09 0
3.04598e-08 -4.68183e-09 0
3.1411e-08 -3.82837e-09 0
3.22411e-08 -2.80716e-09 0
3.28447e-08 -1.56107e-09 0
3.32642e-08 -3.33698e-10 0
0.00666151 -6.17746e-05 0
0 -1.14817e-06 0
-1.65933e-12 -2.35444e-09 0
-1.21003e-09 -5.42482e-09 0
-1.455e-09 -6.86812e-09 0
-2.32405e-09 -7.01857e-09 0
-1.65035e-09 -3.22135e-09 0
-3.77527e-11 3.70832e-11 0
-1.87557e-15 1.87557e-15 0
3.72945e-11 -3.68703e-11 0
-3.5767e-09 -4.98216e-09 0
-1.22586e-08 -1.68309e-08 0
-1.55478e-08 -2.60008e-08 0
-1.78403e-08 -2.62565e-08 0
-1.99716e-08 -1.91147e-08 0
-2.14371e-08 -7.49534e-09 0
-2.20377e-08 4.90873e-09 0
-2.18114e-08 1.42387e-08 0
-2.06186e-08 1.8156e-08 0
-1.80104e-08 1.68815e-08 0
-1.37888e-08 1.25237e-08 0
-8.46991e-09 7.4419e-09 0
-3.03764e-09 3.11902e-09 0
1.65136e-09 5.16056e-11 0
5.20983e-09 -1.83716e-09 0
7.6734e-09 -2.8141e-09 0
9.28355e-09 -3.15336e-09 0
1.0308e-08 -3.08718e-09 0
1.09613e-08 -2.80161e-09 0
1.13928e-08 -2.43921e-09 0
1.16981e-08 -2.10685e-09 0
1.19454e-08 -1.88363e-09 0
1.21921e-08 -1.82426e-09 0
1.2465e-08 -1.98758e-09 0
1.28282e-08 -2.43817e-09 0
1.33862e-08 -3.2158e-09 0
1.41734e-08 -4.41638e-09 0
1.54345e-08 -6.11189e-09 0
1.75283e-08 -8.09227e-09 0
2.04485e-08 -9.90481e-09 0
2.38283e-08 -1.11214e-08 0
2.72196e-08 -1.15155e-08 0
3.02554e-08 -1.10935e-08 0
3.26983e-08 -1.00519e-08 0
3.44855e-08 -8.69411e-09 0
3.57675e-08 -7.29976e-09 0
3.6805e-08 -5.99189e-09 0
3.77816e-08 -4.71527e-09 0
3.87118e-08 -3.34189e-09 0
3.94602e-08 -1.81053e-09 0
4.00348e-08 -4.65976e-10 0
0.00663557 -7.23462e-05 0
0 -7.90894e-07 0
-1.09367e-12 -1.37384e-09 0
-1.19465e-09 -3.52192e-09 0
-1.18476e-09 -4.63036e-09 0
-2.87148e-09 -5.01559e-09 0
-3.83181e-09 -3.98175e-09 0
-1.7535e-09 -1.44829e-09 0
-3.70586e-11 3.71082e-11 0
1.85455e-13 -1.85455e-13 0
3.8212e-11 -3.63776e-11 0
-5.61351e-09 -9.28218e-09 0
-1.48194e-08 -2.22307e-08 0
-2.13549e-08 -2.37442e-08 0
-2.48619e-08 -1.6287e-08 0
-2.56443e-08 -4.80929e-09 0
-2.39182e-08 6.31774e-09 0
-2.05025e-08 1.36669e-08 0
-1.63879e-08 1.56991e-08 0
-1.1975e-08 1.31354e-08 0
-7.25883e-09 8.18823e-09 0
-2.45136e-09 3.09065e-09 0
1.89712e-09 -8.65339e-10 0
5.25945e-09 -3.35276e-09 0
7.43708e-09 -4.57457e-09 0
8.56598e-09 -4.88858e-09 0
8.94829e-09 -4.63384e-09 0
8.89173e-09 -4.08305e-09 0
8.63132e-09 -3.43886e-09 0
8.3173e-09 -2.84072e-09 0
8.02843e-09 -2.37865e-09 0
7.80082e-09 -2.11324e-09 0
7.66166e-09 -2.08522e-09 0
7.60537e-09 -2.34053e-09 0
7.65371e-09 -2.95099e-09 0
7.91757e-09 -3.97194e-09 0
8.42729e-09 -5.52719e-09 0
9.54358e-09 -7.71365e-09 0
1.1874e-08 -1.02357e-08 0
1.54019e-08 -1.24755e-08 0
1.95746e-08 -1.38916e-08 0
2.37262e-08 -1.4223e-08 0
2.73157e-08 -1.35093e-08 0
3.00531e-08 -1.20351e-08 0
3.19638e-08 -1.0204e-08 0
3.33571e-08 -8.37304e-09 0
3.46032e-08 -6.70182e-09 0
3.58856e-08 -5.14043e-09 0
3.71499e-08 -3.56208e-09 0
3.82133e-08 -1.90828e-09 0
3.89961e-08 -5.55646e-10 0
0.00646086 -7.71941e-05 0
0 -5.53983e-07 0
-1.28108e-13 -7.97805e-10 0
-4.45852e-10 -2.22294e-09 0
-5.44285e-10 -3.45899e-09 0
-1.91597e-09 -3.76721e-09 0
-4.41565e-09 -2.40117e-09 0
-5.05733e-09 -4.9596e-10 0
-3.16506e-09 1.71839e-10 0
-3.84841e-11 3.57328e-11 0
3.83309e-11 3.33744e-11 0
2.42323e-12 -5.17954e-09 0
-8.48639e-09 -1.44106e-08 0
-1.93391e-08 -1.63118e-08 0
-2.69629e-08 -8.98999e-09 0
-2.90533e-08 9.96776e-10 0
-2.54657e-08 8.60967e-09 0
-1.8451e-08 1.18117e-08 0
-1.10823e-08 1.07306e-08 0
-5.28268e-09 6.87842e-09 0
-1.39244e-09 2.2976e-09 0
9.84531e-10 -1.45346e-09 0
2.21445e-09 -3.77466e-09 0
2.49409e-09 -4.79393e-09 0
2.0046e-09 -4.91343e-09 0
9.9446e-10 -4.51859e-09 0
-2.62412e-10 -3.89048e-09 0
-1.53886e-09 -3.21323e-09 0
-2.6904e-09 -2.60168e-09 0
-3.65174e-09 -2.12451e-09 0
-4.41746e-09 -1.82056e-09 0
-5.01657e-09 -1.71788e-09 0
-5.47622e-09 -1.84601e-09 0
-5.84375e-09 -2.24686e-09 0
-6.14814e-09 -2.99975e-09 0
-6.29179e-09 -4.18181e-09 0
-6.25946e-09 -5.9315e-09 0
-5.55373e-09 -8.32643e-09 0
-3.17503e-09 -1.09367e-08 0
8.19632e-10 -1.3013e-08 0
5.72651e-09 -1.40469e-08 0
1.06123e-08 -1.39108e-08 0
1.4744e-08 -1.27921e-08 0
1.78335e-08 -1.10679e-08 0
2.00619e-08 -9.15426e-09 0
2.18975e-08 -7.36963e-09 0
2.37377e-08 -5.82075e-09 0
2.56692e-08 -4.41838e-09 0
2.75126e-08 -3.02447e-09 0
2.90276e-08 -1.60102e-09 0
3.00291e-08 -4.85945e-10 0
0.00611658 -7.85952e-05 0
0 -4.69433e-07 0
-7.75164e-14 -4.11787e-10 0
1.00716e-10 -1.22256e-09 0
-2.53142e-10 -1.99292e-09 0
-2.24855e-09 -2.27781e-09 0
-5.64091e-09 -7.93239e-10 0
-7.62748e-09 1.40204e-09 0
-7.43379e-09 -5.20518e-10 0
-4.94396e-09 -1.62021e-09 0
-3.87733e-09 -2.90715e-14 0
-2.51871e-09 -3.96421e-09 0
-8.62462e-09 -8.55124e-09 0
-2.07294e-08 -6.7848e-09 0
-2.99377e-08 -7.88097e-10 0
-3.06593e-08 5.31092e-09 0
-2.34601e-08 8.30065e-09 0
-1.32211e-08 7.60882e-09 0
-5.02191e-09 4.3988e-09 0
-1.13763e-09 5.11484e-10 0
-9.80398e-10 -2.46033e-09 0
-2.84775e-09 -3.87388e-09 0
-5.36974e-09 -4.00263e-09 0
-7.88104e-09 -3.46979e-09 0
-1.0174e-08 -2.77271e-09 0
-1.22062e-08 -2.15274e-09 0
-1.3965e-08 -1.67387e-09 0
-1.54448e-08 -1.32788e-09 0
-1.66565e-08 -1.09523e-09 0
-1.76327e-08 -9.66075e-10 0
-1.84255e-08 -9.41963e-10 0
-1.90995e-08 -1.03622e-09 0
-1.97132e-08 -1.27794e-09 0
-2.03407e-08 -1.71044e-09 0
-2.10486e-08 -2.40918e-09 0
-2.17835e-08 -3.46173e-09 0
-2.25622e-08 -4.94856e-09 0
-2.27593e-08 -6.79033e-09 0
-2.09527e-08 -8.42371e-09 0
-1.74801e-08 -9.26447e-09 0
-1.29481e-08 -9.16478e-09 0
-8.46527e-09 -8.28808e-09 0
-4.76583e-09 -7.00343e-09 0
-1.92442e-09 -5.65273e-09 0
4.4829e-10 -4.45987e-09 0
2.8304e-09 -3.52396e-09 0
5.43639e-09 -2.7994e-09 0
8.12754e-09 -2.14136e-09 0
1.05844e-08 -1.42274e-09 0
1.25296e-08 -6.5436e-10 0
1.36931e-08 -9.96105e-11 0
0.0054143 -7.39035e-05 0
0 -4.83677e-07 0
2.74873e-13 -3.77775e-11 0
3.67396e-10 -1.86577e-10 0
-1.88366e-10 -3.90638e-10 0
-2.62489e-09 -4.7934e-10 0
-6.62997e-09 -3.49479e-10 0
-9.27502e-09 6.41907e-10 0
-9.1604e-09 4.42526e-10 0
-1.06962e-08 -7.05137e-10 0
-9.93014e-09 -1.0028e-09 0
-8.3611e-09 -1.3508e-09 0
-1.16266e-08 -3.79186e-10 0
-1.71406e-08 1.65958e-09 0
-2.05474e-08 3.03569e-09 0
-1.83894e-08 3.35093e-09 0
-1.16613e-08 2.56762e-09 0
-4.51067e-09 9.96495e-10 0
-5.96057e-10 -6.73682e-10 0
-8.10596e-10 -1.76048e-09 0
-3.7474e-09 -2.0248e-09 0
-7.48998e-09 -1.6991e-09 0
-1.08189e-08 -1.17493e-09 0
-1.33546e-08 -7.25473e-10 0
-1.51875e-08 -4.40603e-10 0
-1.65301e-08 -2.96911e-10 0
-1.75563e-08 -2.38917e-10 0
-1.83748e-08 -2.24402e-10 0
-1.90514e-08 -2.33514e-10 0
-1.96331e-08 -2.61825e-10 0
-2.01647e-08 -3.15029e-10 0
-2.06959e-08 -4.04913e-10 0
-2.12801e-08 -5.50181e-10 0
-2.19893e-08 -7.74912e-10 0
-2.29005e-08 -1.11943e-09 0
-2.40287e-08 -1.63335e-09 0
-2.53646e-08 -2.26223e-09 0
-2.61688e-08 -2.78645e-09 0
-2.50787e-08 -2.8639e-09 0
-2.30122e-08 -2.44829e-09 0
-2.03669e-08 -1.78367e-09 0
-1.81047e-08 -1.0708e-09 0
-1.65939e-08 -4.92667e-10 0
-1.54872e-08 -1.24862e-10 0
-1.4227e-08 5.76275e-11 0
-1.24879e-08 1.15049e-10 0
-1.0315e-08 1.19604e-10 0
-8.00176e-09 1.40738e-10 0
-5.88067e-09 2.17244e-10 0
-4.19647e-09 3.12889e-10 0
-3.23732e-09 3.19509e-10 0
0.00382286 -4.79307e-05 0
0 0 0
3.87581e-13 0 0
2.23127e-10 0 0
-7.18318e-11 0 0
-1.23801e-09 0 0
-3.22275e-09 0 0
-4.95169e-09 0 0
-4.89172e-09 0 0
-5.75359e-09 0 0
-6.05271e-09 0 0
-5.83995e-09 0 0
-5.7564e-09 0 0
-5.40019e-09 0 0
-4.75628e-09 0 0
-3.37212e-09 0 0
-1.47121e-09 0 0
-1.89975e-11 0 0
1.89052e-10 0 0
-8.36544e-10 0 0
-2.47056e-09 0 0
-4.05879e-09 0 0
-5.26923e-09 0 0
-6.07555e-09 0 0
-6.59028e-09 0 0
-6.93514e-09 0 0
-7.19224e-09 0 0
-7.40579e-09 0 0
-7.59812e-09 0 0
-7.78265e-09 0 0
-7.97278e-09 0 0
-8.18559e-09 0 0
-8.44324e-09 0 0
-8.77742e-09 0 0
-9.22497e-09 0 0
-9.81116e-09 0 0
-1.05081e-08 0 0
-1.09189e-08 0 0
-1.04883e-08 0 0
-9.84421e-09 0 0
-9.15176e-09 0 0
-8.79831e-09 0 0
-8.82645e-09 0 0
-8.94333e-09 0 0
-8.84216e-09 0 0
-8.40927e-09 0 0
-7.71743e-09 0 0
-6.91953e-09 0 0
-6.15681e-09 0 0
-5.53202e-09 0 0
-5.18169e-09 0 0
0.00135473 0 0
0 0 5.41312e-07
-4.77459e-13 0 2.78419e-10
-7.38788e-10 0 8.61278e-10
-2.30536e-10 0 2.09955e-09
-7.05149e-09 0 -4.15203e-10
3.10008e-09 0 -3.05636e-09
6.17275e-09 0 -1.88768e-09
7.18158e-09 0 -9.99791e-10
7.97246e-09 0 4.61283e-11
8.89897e-09 0 1.10026e-09
1.02871e-08 0 2.17363e-09
1.25192e-08 0 2.96459e-09
1.51741e-08 0 2.93137e-09
1.70733e-08 0 2.08884e-09
1.69168e-08 0 1.10596e-09
1.43488e-08 0 4.82946e-10
1.02065e-08 0 2.19026e-10
5.71052e-09 0 1.52336e-10
1.55705e-09 0 2.10051e-10
-2.22353e-09 0 3.61722e-10
-5.84457e-09 0 5.44483e-10
-9.39132e-09 0 6.80725e-10
-1.275e-08 0 7.2405e-10
-1.57253e-08 0 6.74665e-10
-1.8168e-08 0 5.63694e-10
-2.00311e-08 0 4.2927e-10
-2.1359e-08 0 3.00588e-10
-2.22479e-08 0 1.93106e-10
-2.28077e-08 0 1.10939e-10
-2.31377e-08 0 5.15436e-11
-2.33164e-08 0 9.47175e-12
-2.33982e-08 0 -2.13365e-11
-2.34116e-08 0 -4.47393e-11
-2.3371e-08 0 -6.17538e-11
-2.32865e-08 0 -7.70407e-11
-2.31279e-08 0 -1.01534e-10
-2.2804e-08 0 -1.40343e-10
-2.22303e-08 0 -1.829e-10
-2.14105e-08 0 -2.1129e-10
-2.04417e-08 0 -2.14903e-10
-1.94547e-08 0 -1.94811e-10
-1.85566e-08 0 -1.58986e-10
-1.78039e-08 0 -1.18295e-10
-1.71927e-08 0 -8.49242e-11
-1.66636e-08 0 -6.86133e-11
-1.6135e-08 0 -7.10134e-11
-1.55572e-08 0 -8.29039e-11
-1.49604e-08 0 -9.05084e-11
-1.44603e-08 0 -9.52944e-11
-1.42005e-08 0 -1.32801e-10
0.003975 0 1.10128e-05
0.0036 -3.09649e-07 -6.26993e-08
0.0035998 -0.00138979 -2.19176e-05
0.00670121 -0.00393723 0.000112855
0.0136124 -0.00587996 -0.000494769
0.0235055 -0.0144847 -0.004268
0.0463964 -0.0134505 -0.00488776
0.0499318 -0.00194434 -0.00164604
0.0496745 0.00262669 -0.000163455
0.0446943 0.00495005 0.000573237
0.039096 0.00511273 0.000568235
0.0340042 0.00444056 0.000308912
0.0297339 0.00355488 4.10385e-05
0.0263482 0.00268703 -0.000152945
0.0237732 0.00193639 -0.000255678
0.0218538 0.00134671 -0.000278676
0.020419 0.000919797 -0.000246133
0.0193301 0.000629964 -0.000184905
0.0184924 0.000441249 -0.000118028
0.0178469 0.000318956 -6.11048e-05
0.0173552 0.000236251 -2.1084e-05
0.0169885 0.000176191 2.16221e-06
0.0167224 0.00013005 1.2585e-05
0.0165347 9.41121e-05 1.49912e-05
0.016406 6.68625e-05 1.33524e-05
0.0163192 4.73636e-05 1.02863e-05
0.0162603 3.46513e-05 7.20571e-06
0.016218 2.77054e-05 4.69941e-06
0.0161836 2.56082e-05 2.89777e-06
0.0161499 2.76942e-05 1.7326e-06
0.0161111 3.36263e-05 1.08815e-06
0.0160617 4.34007e-05 8.74154e-07
0.0159961 5.73153e-05 1.06362e-06
0.0159082 7.58693e-05 1.70085e-06
0.0157907 9.9515e-05 2.86555e-06
0.015636 0.000128392 4.68031e-06
0.0154358 0.000161911 7.30304e-06
0.0151836 0.000197772 1.06598e-05
0.0148773 0.00023127 1.41693e-05
0.0145228 0.000256291 1.69282e-05
0.0141348 0.000267619 1.82235e-05
0.0137338 0.00026292 1.78838e-05
0.0133418 0.000243212 1.62292e-05
0.012978 0.000211976 1.37847e-05
0.0126569 0.000173748 1.10451e-05
0.0123875 0.000132902 8.3827e-06
0.0121735 9.28694e-05 6.03189e-06
0.012015 5.58028e-05 4.0659e-06
0.0119085 2.26868e-05 2.30137e-06
0.0118488 -3.29987e-06 2.74951e-06
0.0118299 -9.27975e-06 1.61067e-05
0.01183 -4.78296e-06 2.81406e-05
0.01 -1.38171e-07 -1.47094e-06
0.0100008 -0.0029852 -0.000598649
0.0147866 -0.00996859 -0.000793835
0.0241919 -0.0177631 -0.00123111
0.0386244 -0.0326357 -0.00333611
0.05934 -0.0249507 -0.000813776
0.0565634 -0.00277074 0.00318776
0.0559982 0.00506076 0.00338924
0.0502237 0.0100242 0.00300664
0.0447693 0.0101551 0.00213092
0.0402881 0.00905374 0.00120525
0.0365997 0.00762234 0.000473068
0.0336472 0.00615959 -4.26025e-05
0.0313803 0.00483486 -0.000350801
0.029645 0.00373156 -0.000472404
0.0282905 0.00285314 -0.000456468
0.0272156 0.00216336 -0.00036299
0.0263648 0.00162271 -0.000244989
0.0257061 0.0012004 -0.000138448
0.0252128 0.000873629 -6.01159e-05
0.024857 0.000624334 -1.18423e-05
0.0246099 0.000437492 1.24567e-05
0.0244446 0.000300642 2.10065e-05
0.0243376 0.000203568 2.09318e-05
0.0242698 0.000137881 1.7149e-05
0.0242259 9.67037e-05 1.24796e-05
0.0241941 7.45546e-05 8.23706e-06
0.0241654 6.7346e-05 4.84309e-06
0.0241325 7.23728e-05 2.28997e-06
0.0240891 8.82436e-05 4.25411e-07
0.024029 0.000114721 -9.05406e-07
0.0239456 0.000152526 -1.7806e-06
0.0238307 0.000203098 -2.14364e-06
0.0236747 0.000268017 -1.84413e-06
0.023466 0.000348178 -6.19129e-07
0.023192 0.000442661 1.92398e-06
0.0228407 0.000546251 5.67843e-06
0.0224061 0.000647434 9.35988e-06
0.0218943 0.00073046 1.10326e-05
0.0213241 0.000780849 9.40599e-06
0.0207237 0.000790433 4.62865e-06
0.0201241 0.000759064 -1.96587e-06
0.0195534 0.000693044 -8.72062e-06
0.0190338 0.000602132 -1.4333e-05
0.0185809 0.00049677 -1.80734e-05
0.0182036 0.000386106 -1.97537e-05
0.0179059 0.000277209 -1.95458e-05
0.0176873 0.000175017 -1.81837e-05
0.0175435 8.28414e-05 -1.42895e-05
0.0174749 1.46803e-05 1.24656e-05
0.0174749 -1.02414e-05 3.61481e-05
0.0148 -9.69279e-07 -1.76765e-06
0.0148024 -0.00530023 -0.00112489
0.0204055 -0.0164569 -0.00244945
0.0276109 -0.0289217 -0.00394292
0.0322852 -0.0463545 -0.00577814
0.0307373 -0.0286094 -0.001423
0.026928 -1.24974e-05 0.0033075
0.0263643 0.00704861 0.00352513
0.0298499 0.0143593 0.00343757
0.0301984 0.0137404 0.00248338
0.0294127 0.0119282 0.00153599
0.0285948 0.0100684 0.000711543
0.0279838 0.00820299 0.000113715
0.0276812 0.00649333 -0.000247417
0.0275592 0.00507239 -0.000392334
0.027512 0.00392146 -0.000386534
0.0274938 0.00298325 -0.000301577
0.0274944 0.00221844 -0.000193263
0.0275138 0.00160695 -9.59304e-05
0.0275498 0.00113365 -2.47673e-05
0.0275968 0.000779877 1.82609e-05
0.0276485 0.00052377 3.82235e-05
0.0276998 0.000344101 4.25537e-05
0.0277466 0.000222862 3.81988e-05
0.0277859 0.000145837 3.02998e-05
0.0278152 0.000102186 2.19703e-05
0.0278327 8.39189e-05 1.46946e-05
0.0278363 8.55453e-05 8.91689e-06
0.0278242 0.000103825 4.55259e-06
0.0277936 0.000137564 1.34369e-06
0.0277409 0.000187364 -9.48941e-07
0.0276604 0.000255303 -2.44662e-06
0.0275444 0.000344628 -3.01832e-06
0.0273822 0.00045898 -2.2878e-06
0.0271598 0.000601088 4.08051e-07
0.0268599 0.000770948 6.09698e-06
0.0264638 0.00096094 1.46766e-05
0.0259594 0.0011512 2.31895e-05
0.025352 0.00131321 2.71738e-05
0.0246662 0.00142021 2.37512e-05
0.0239391 0.00145647 1.33536e-05
0.0232104 0.00142027 -9.41422e-07
0.0225145 0.00132101 -1.54528e-05
0.0218775 0.00117405 -2.74289e-05
0.0213174 0.0009962 -3.54385e-05
0.0208451 0.000802668 -3.92042e-05
0.0204664 0.000605245 -3.91355e-05
0.0201836 0.000412125 -3.62222e-05
0.0199946 0.000228143 -3.06844e-05
0.0199014 6.27413e-05 4.27638e-06
0.0199013 -1.3336e-05 3.56924e-05
0.018 -1.95465e-06 -1.71306e-06
0.018003 -0.00701666 -0.00187387
0.0207972 -0.019062 -0.00492656
0.0207618 -0.0250992 -0.00634965
0.0161131 -0.027114 -0.00763805
-1.62498e-06 -0.0140698 -0.00434211
9.44444e-05 2.26113e-05 9.37483e-07
-2.97486e-05 3.11065e-05 0.000655841
0.00655494 0.00404535 0.00144739
0.0133621 0.00914818 0.00142262
0.0167536 0.00989444 0.00101931
0.0185432 0.00889192 0.000490146
0.020255 0.00735768 9.38846e-06
0.0219545 0.00579541 -0.000263468
0.0234735 0.00449937 -0.000343541
0.0247486 0.00344268 -0.000307936
0.0257918 0.00256267 -0.000223626
0.026639 0.00183409 -0.000132481
0.0273236 0.00125438 -5.52198e-05
0.02787 0.000818469 6.61142e-07
0.0282978 0.000508893 3.46785e-05
0.0286254 0.000300172 5.00477e-05
0.0288707 0.000166757 5.18842e-05
0.0290504 8.77417e-05 4.5693e-05
0.0291785 4.7738e-05 3.61e-05
0.0292661 3.60012e-05 2.62037e-05
0.0293213 4.54032e-05 1.76071e-05
0.0293499 7.17627e-05 1.08415e-05
0.0293554 0.000113443 5.84881e-06
0.0293389 0.000171096 2.37539e-06
0.0292993 0.000247457 2.3252e-07
0.0292326 0.000347025 -5.85409e-07
0.0291316 0.000475822 3.27792e-07
0.0289849 0.000640678 3.89119e-06
0.0287754 0.000847738 1.17527e-05
0.0284797 0.00110046 2.68e-05
0.0280674 0.0013908 4.96677e-05
0.0275144 0.00168876 7.38326e-05
0.0268252 0.00194813 8.872e-05
0.0260342 0.00212557 8.72861e-05
0.0251941 0.00219616 7.00076e-05
0.0243578 0.00215739 4.33284e-05
0.0235668 0.00202336 1.49101e-05
0.0228497 0.00181635 -9.69177e-06
0.0222241 0.00156011 -2.77152e-05
0.0217001 0.00127592 -3.86899e-05
0.0212827 0.000980213 -4.35747e-05
0.0209737 0.000684156 -4.40258e-05
0.0207707 0.000395303 -4.126e-05
0.0206743 0.000120682 -5.70259e-06
0.0206741 -1.21095e-05 2.77341e-05
0.0196 -2.843e-06 -2.58324e-06
0.019601 -0.00593218 -0.0027439
0.0190529 -0.0132407 -0.00648647
0.0159271 -0.0162906 -0.00669846
0.0108563 -0.0152789 -0.00669567
0.0017039 -0.00629965 -0.00504795
6.93343e-05 -6.33538e-05 -0.00130568
3.36053e-05 -3.36053e-05 -4.26436e-08
-2.9139e-05 3.03581e-05 0.000264375
0.00386773 0.00269596 0.000566897
0.00881925 0.00626877 0.000500288
0.0117175 0.00649114 0.000151143
0.0149594 0.00505673 -0.000233672
0.0181073 0.00371575 -0.000404328
0.0208024 0.00274128 -0.000404848
0.0229841 0.00199235 -0.000325396
0.0247144 0.00136914 -0.000226857
0.0260762 0.000850905 -0.000138349
0.0271375 0.000449902 -6.85258e-05
0.0279496 0.000171337 -1.76922e-05
0.0285551 9.38844e-07 1.55492e-05
0.0289934 -8.74679e-05 3.31797e-05
0.0293017 -0.000120389 3.84262e-05
0.0295125 -0.000118263 3.55343e-05
0.0296523 -9.45382e-05 2.86563e-05
0.0297414 -5.71324e-05 2.08863e-05
0.0297944 -1.00069e-05 1.39866e-05
0.0298214 4.58322e-05 8.66523e-06
0.0298287 0.000111786 5.02438e-06
0.0298192 0.00019138 2.97218e-06
0.029793 0.000290188 2.56872e-06
0.029747 0.000415695 4.19047e-06
0.029674 0.000577284 8.88151e-06
0.0295614 0.000785902 1.86791e-05
0.0293881 0.00105275 3.73332e-05
0.029122 0.00138837 7.26011e-05
0.0287138 0.00178827 0.000128917
0.0281168 0.00220991 0.000193032
0.0273339 0.00258156 0.000239859
0.0264183 0.00283767 0.00025183
0.0254497 0.00294355 0.000228621
0.0245007 0.00289855 0.000183196
0.0236217 0.0027247 0.000130861
0.0228415 0.00245309 8.24415e-05
0.0221742 0.00211518 4.31862e-05
0.0216254 0.00173823 1.39538e-05
0.0211963 0.00134307 -7.0459e-06
0.020886 0.000944073 -2.25675e-05
0.0206893 0.00055213 -3.38266e-05
0.0206027 0.000175552 -1.09879e-05
0.0206025 -8.10363e-06 1.63582e-05
0.0196 -1.37094e-06 -3.60926e-06
0.0195999 -0.00370128 -0.00312829
0.0187523 -0.00813469 -0.00652787
0.0174961 -0.00818198 -0.00605789
0.0131577 -0.00436081 -0.00554488
0.00905688 0.00252063 -0.00533922
0.00613676 0.00313425 -0.00312831
6.95146e-05 -5.71931e-05 -0.000679429
2.80541e-05 -2.80541e-05 -1.28439e-07
-2.85982e-05 2.96798e-05 9.746e-05
0.0026485 0.00184414 0.00036964
0.0068789 0.00282413 0.000270401
0.0121085 0.00130283 -0.000167147
0.0167223 0.000394073 -0.0003694
0.0203147 4.93975e-05 -0.000381423
0.0230014 -0.000118663 -0.000308474
0.0249953 -0.000272911 -0.000220065
0.0264693 -0.00042107 -0.000145768
0.0275427 -0.000524485 -8.99353e-05
0.0283013 -0.00055988 -4.87335e-05
0.0288149 -0.000532727 -1.9258e-05
0.0291454 -0.000464612 -3.91492e-07
0.0293466 -0.000377728 9.21619e-06
0.0294616 -0.000287202 1.20196e-05
0.0295225 -0.000200518 1.09269e-05
0.0295513 -0.000119687 8.36365e-06
0.0295622 -4.33424e-05 5.85882e-06
0.0295638 3.20265e-05 4.17293e-06
0.0295607 0.000111524 3.63788e-06
0.0295548 0.000201698 4.49936e-06
0.0295456 0.000310738 7.30847e-06
0.0295297 0.000448774 1.31833e-05
0.0295001 0.000628306 2.43628e-05
0.0294431 0.000864605 4.49808e-05
0.0293331 0.00117483 8.27834e-05
0.0291274 0.00157989 0.000156324
0.0287499 0.00208429 0.000281914
0.0281139 0.00263075 0.000434346
0.027219 0.00311254 0.00055527
0.0261521 0.00343791 0.000603484
0.0250361 0.00356543 0.000577595
0.0239711 0.00350186 0.000503625
0.0230146 0.0032813 0.00041089
0.0221912 0.00294522 0.000319281
0.0215066 0.00253245 0.000238205
0.020958 0.00207525 0.000169346
0.0205399 0.0015977 0.000110081
0.0202469 0.00111673 5.66716e-05
0.0200706 0.000646988 9.32706e-06
0.0200021 0.000203415 -2.61822e-06
0.0200019 -9.98967e-06 7.0918e-06
0.018 -8.71482e-07 -3.60398e-06
0.0180009 -0.00201763 -0.00305147
0.0183117 -0.00390634 -0.00616673
0.0183607 -0.00271919 -0.00529035
0.0173358 0.000568259 -0.00419095
0.0170497 0.00702804 -0.00396571
0.0177825 0.0125566 -0.00301661
0.0109162 0.00692648 -0.00151167
7.0991e-05 -4.33953e-05 -0.000441064
-2.15878e-05 -5.11819e-05 5.61908e-07
7.97985e-06 -0.000755673 0.000753589
0.00821027 -0.00298615 0.00109473
0.0154418 -0.00454615 0.000447396
0.0203645 -0.00413251 0.000113694
0.0235062 -0.00317075 -1.83609e-05
0.0255091 -0.00236638 -6.18235e-05
0.0267994 -0.00183911 -7.45324e-05
0.0276193 -0.00149874 -7.86308e-05
0.0281098 -0.00124126 -7.72879e-05
0.0283661 -0.00101054 -6.89599e-05
0.0284641 -0.00079427 -5.48829e-05
0.0284654 -0.000599565 -3.9058e-05
0.0284175 -0.000434073 -2.52248e-05
0.0283522 -0.000299193 -1.50521e-05
0.0282886 -0.000190945 -8.34531e-06
0.0282363 -0.000102718 -4.06313e-06
0.028199 -2.7185e-05 -1.09464e-06
0.0281774 4.29711e-05 1.46998e-06
0.0281709 0.000115109 4.39803e-06
0.0281784 0.000197048 8.51358e-06
0.0281982 0.000297747 1.51057e-05
0.028228 0.000428165 2.63897e-05
0.0282618 0.000602236 4.64353e-05
0.0282873 0.000838236 8.28272e-05
0.0282763 0.00115835 0.000150114
0.0281765 0.00159226 0.00028601
0.0278825 0.00215495 0.00053122
0.0272439 0.00277537 0.000837554
0.0262544 0.00331259 0.0010821
0.0250502 0.0036553 0.00118416
0.0238161 0.00376459 0.00114713
0.0226789 0.00366226 0.00102387
0.0216941 0.00339709 0.000866797
0.0208735 0.00301886 0.00070811
0.0202086 0.00256989 0.000561541
0.0196855 0.00208321 0.000428929
0.0192922 0.00158247 0.000306473
0.0190199 0.00108444 0.000189862
0.0188601 0.000605786 8.24702e-05
0.0188025 0.000171518 1.4898e-05
0.0188023 -3.06369e-05 -2.55972e-06
0.0148 -4.8849e-07 -3.19283e-06
0.0148015 -0.00104181 -0.00283223
0.0162282 -0.00166552 -0.00543159
0.0177832 -6.55015e-05 -0.00429261
0.01909 0.00312961 -0.0030606
0.0208103 0.00731985 -0.00283625
0.0246192 0.0129735 -0.00241016
0.0279116 0.0195017 -0.00152569
0.0229584 0.0112772 -0.000353272
0.0234171 5.72864e-11 0.000620744
0.0265667 -0.00673372 0.00156131
0.0299432 -0.0131547 0.00211855
0.030686 -0.0110689 0.00164282
0.0300529 -0.00770122 0.00113254
0.0290534 -0.00502736 0.000671377
0.0281118 -0.0032889 0.000320424
0.0273298 -0.00222823 9.33084e-05
0.0266942 -0.00156341 -3.25589e-05
0.0261724 -0.0011112 -8.75009e-05
0.0257419 -0.000780861 -9.76883e-05
0.025391 -0.000535039 -8.4096e-05
0.0251124 -0.000356073 -6.21425e-05
0.0248989 -0.00022953 -4.10508e-05
0.0247418 -0.000140928 -2.4629e-05
0.0246323 -7.72346e-05 -1.32396e-05
0.0245618 -2.80992e-05 -5.72791e-06
0.0245236 1.42502e-05 -6.10241e-07
0.0245128 5.58675e-05 3.46133e-06
0.0245265 0.000102117 7.6978e-06
0.0245639 0.00015861 1.34118e-05
0.0246256 0.000232096 2.25192e-05
0.0247123 0.000331518 3.83002e-05
0.0248232 0.000469191 6.68399e-05
0.0249512 0.000662788 0.00012005
0.0250724 0.00093469 0.000221903
0.0251341 0.00130981 0.000432377
0.0250079 0.00179833 0.000815435
0.0244613 0.00232923 0.00127737
0.0234918 0.0027735 0.0016217
0.0222728 0.00302936 0.00173814
0.0210623 0.00306723 0.00164781
0.0199909 0.00292771 0.0014497
0.0190918 0.00266629 0.00122215
0.018354 0.00232894 0.00100335
0.017755 0.00194971 0.000803944
0.017275 0.00155252 0.000620941
0.0169026 0.00115315 0.000447296
0.0166333 0.000762982 0.00027829
0.0164648 0.000394945 0.000121251
0.0163954 7.60219e-05 8.89627e-06
0.0163953 -6.63431e-05 -3.00457e-05
0.01 -9.34968e-07 -2.89342e-06
0.0100008 -0.000638158 -0.00230656
0.0113178 -0.000723028 -0.00414651
0.0131696 0.000535717 -0.00290614
0.0155839 0.00250097 -0.00179969
0.0194594 0.0055478 -0.00180583
0.0253655 0.00836021 -0.00236023
0.0344849 0.0101199 -0.00209493
0.0460944 0.00481509 -0.000516336
0.0458509 -0.00403024 0.00097898
0.0453574 -0.00823344 0.00161829
0.0380259 -0.00840657 0.00180222
0.0310379 -0.00574926 0.00155789
0.0259288 -0.00330889 0.00113028
0.0225616 -0.00172022 0.000687931
0.0204237 -0.000846266 0.000337763
0.0190628 -0.000413534 0.00011372
0.0181758 -0.000210329 -3.80894e-06
0.017583 -0.000114142 -5.04035e-05