# vtk DataFile Version 2.0
Tobias Weinzierl: CPU, Manycore and Cluster Computing
ASCII

DATASET STRUCTURED_POINTS
DIMENSIONS  51 11 6

ORIGIN 0 0 0 

SPACING 0.1 0.1 0.1 

POINT_DATA 3366

VECTORS velocity float
0 0 0
-1.33674e-10 0 0
-1.86133e-07 0 0
-2.74532e-07 0 0
-2.84595e-07 0 0
-2.52502e-07 0 0
-3.04345e-07 0 0
-3.01864e-07 0 0
-2.78745e-07 0 0
-2.5858e-07 0 0
-2.5121e-07 0 0
-2.51885e-07 0 0
-2.56004e-07 0 0
-2.61176e-07 0 0
-2.66263e-07 0 0
-2.70726e-07 0 0
-2.74378e-07 0 0
-2.77226e-07 0 0
-2.79365e-07 0 0
-2.80909e-07 0 0
-2.81965e-07 0 0
-2.82613e-07 0 0
-2.82906e-07 0 0
-2.82871e-07 0 0
-2.82508e-07 0 0
-2.81789e-07 0 0
-2.8066e-07 0 0
-2.79043e-07 0 0
-2.76829e-07 0 0
-2.73887e-07 0 0
-2.70065e-07 0 0
-2.65199e-07 0 0
-2.59137e-07 0 0
-2.5175e-07 0 0
-2.42963e-07 0 0
-2.32771e-07 0 0
-2.2126e-07 0 0
-2.0862e-07 0 0
-1.95157e-07 0 0
-1.81265e-07 0 0
-1.67379e-07 0 0
-1.53919e-07 0 0
-1.41264e-07 0 0
-1.29729e-07 0 0
-1.19553e-07 0 0
-1.10903e-07 0 0
-1.03886e-07 0 0
-9.85554e-08 0 0
-9.49235e-08 0 0
-9.2954e-08 0 0
0.00261126 0 0
0 9.16821e-08 0
1.00375e-10 1.31124e-07 0
-3.11209e-07 2.10847e-07 0
-3.88112e-07 9.49667e-08 0
-3.56966e-07 -1.12885e-08 0
-2.00948e-07 2.38757e-08 0
-3.46662e-07 4.55831e-08 0
-3.24582e-07 -2.88935e-08 0
-2.83477e-07 -4.38588e-08 0
-2.55885e-07 -2.62683e-08 0
-2.69141e-07 -5.26209e-09 0
-2.9164e-07 5.80529e-09 0
-3.12e-07 9.87658e-09 0
-3.28896e-07 1.05601e-08 0
-3.42407e-07 9.69031e-09 0
-3.52838e-07 8.17187e-09 0
-3.60662e-07 6.51487e-09 0
-3.66403e-07 4.9791e-09 0
-3.70535e-07 3.66234e-09 0
-3.73445e-07 2.57113e-09 0
-3.75417e-07 1.66904e-09 0
-3.76653e-07 9.03839e-10 0
-3.7728e-07 2.20267e-10 0
-3.77367e-07 -4.35415e-10 0
-3.76932e-07 -1.11488e-09 0
-3.75948e-07 -1.86861e-09 0
-3.74346e-07 -2.74667e-09 0
-3.72015e-07 -3.79826e-09 0
-3.68799e-07 -5.06926e-09 0
-3.64508e-07 -6.59694e-09 0
-3.58918e-07 -8.40191e-09 0
-3.51791e-07 -1.04783e-08 0
-3.42904e-07 -1.27848e-08 0
-3.32075e-07 -1.52413e-08 0
-3.19204e-07 -1.77319e-08 0
-3.04291e-07 -2.01129e-08 0
-2.87465e-07 -2.22196e-08 0
-2.69005e-07 -2.3875e-08 0
-2.49366e-07 -2.49179e-08 0
-2.29149e-07 -2.5246e-08 0
-2.08992e-07 -2.48362e-08 0
-1.89498e-07 -2.37298e-08 0
-1.71205e-07 -2.20122e-08 0
-1.54554e-07 -1.97959e-08 0
-1.39875e-07 -1.72027e-08 0
-1.2739e-07 -1.43467e-08 0
-1.17228e-07 -1.13266e-08 0
-1.09447e-07 -8.23114e-09 0
-1.0406e-07 -5.15618e-09 0
-1.01063e-07 -1.81467e-09 0
0.00537269 -2.73332e-07 0
0 -8.47516e-09 0
1.90984e-10 1.60457e-07 0
-2.99108e-07 2.57641e-07 0
-2.38832e-07 9.92934e-08 0
-2.08892e-07 -1.28097e-07 0
-2.84836e-07 1.34944e-08 0
-2.63603e-07 1.1796e-07 0
-2.85465e-07 -6.83061e-08 0
3.69712e-08 -6.59361e-08 0
1.82163e-08 -6.63059e-09 0
-3.12473e-08 4.1406e-08 0
-8.01948e-08 4.61513e-08 0
-1.1261e-07 3.89809e-08 0
-1.34709e-07 3.12323e-08 0
-1.50125e-07 2.42977e-08 0
-1.60778e-07 1.83819e-08 0
-1.68074e-07 1.35834e-08 0
-1.73065e-07 9.84245e-09 0
-1.76485e-07 6.98809e-09 0
-1.78826e-07 4.81646e-09 0
-1.80409e-07 3.13736e-09 0
-1.81436e-07 1.79026e-09 0
-1.82031e-07 6.44116e-10 0
-1.82266e-07 -4.09112e-10 0
-1.8217e-07 -1.46192e-09 0
-1.81741e-07 -2.5975e-09 0
-1.80946e-07 -3.89378e-09 0
-1.79721e-07 -5.42443e-09 0
-1.77972e-07 -7.25616e-09 0
-1.75573e-07 -9.44143e-09 0
-1.72365e-07 -1.20065e-08 0
-1.68174e-07 -1.4937e-08 0
-1.62824e-07 -1.81658e-08 0
-1.56173e-07 -2.15711e-08 0
-1.48142e-07 -2.49887e-08 0
-1.38733e-07 -2.82298e-08 0
-1.28023e-07 -3.10846e-08 0
-1.16192e-07 -3.33144e-08 0
-1.03581e-07 -3.46872e-08 0
-9.06757e-08 -3.50659e-08 0
-7.79309e-08 -3.44396e-08 0
-6.57166e-08 -3.28758e-08 0
-5.43515e-08 -3.04892e-08 0
-4.40918e-08 -2.74333e-08 0
-3.51099e-08 -2.38798e-08 0
-2.74959e-08 -1.99907e-08 0
-2.12784e-08 -1.59015e-08 0
-1.64515e-08 -1.17165e-08 0
-1.30043e-08 -7.50015e-09 0
-1.09757e-08 -2.68194e-09 0
0.00545851 -3.89675e-07 0
0 -1.17386e-07 0
-1.46828e-10 1.43017e-07 0
-3.80662e-07 2.44129e-07 0
-1.93797e-07 1.52241e-07 0
-1.63035e-07 1.35299e-07 0
-3.36389e-07 8.42924e-08 0
-2.21329e-07 1.89999e-10 0
-2.62749e-07 -3.54293e-07 0
-3.15497e-07 -3.46882e-07 0
-1.21289e-07 5.74095e-08 0
-9.83002e-08 1.03717e-07 0
-1.12421e-07 9.2418e-08 0
-1.30858e-07 6.68616e-08 0
-1.45544e-07 4.91218e-08 0
-1.55895e-07 3.61247e-08 0
-1.62751e-07 2.61924e-08 0
-1.67251e-07 1.87592e-08 0
-1.70261e-07 1.33098e-08 0
-1.72324e-07 9.33658e-09 0
-1.73763e-07 6.41029e-09 0
-1.74765e-07 4.19923e-09 0
-1.75442e-07 2.45559e-09 0
-1.75858e-07 9.93004e-10 0
-1.76048e-07 -3.33987e-10 0
-1.76022e-07 -1.64582e-09 0
-1.75769e-07 -3.0492e-09 0
-1.75252e-07 -4.64418e-09 0
-1.74408e-07 -6.52689e-09 0
-1.73136e-07 -8.78715e-09 0
-1.71292e-07 -1.14995e-08 0
-1.68682e-07 -1.47065e-08 0
-1.65068e-07 -1.83967e-08 0
-1.60191e-07 -2.24826e-08 0
-1.53819e-07 -2.67959e-08 0
-1.4581e-07 -3.1111e-08 0
-1.36146e-07 -3.51868e-08 0
-1.24904e-07 -3.87738e-08 0
-1.12262e-07 -4.15678e-08 0
-9.86569e-08 -4.32406e-08 0
-8.48111e-08 -4.36273e-08 0
-7.12831e-08 -4.27705e-08 0
-5.84429e-08 -4.07776e-08 0
-4.66203e-08 -3.77835e-08 0
-3.60787e-08 -3.39774e-08 0
-2.69702e-08 -2.95807e-08 0
-1.93438e-08 -2.4801e-08 0
-1.31826e-08 -1.98024e-08 0
-8.44328e-09 -1.46971e-08 0
-5.08316e-09 -9.52896e-09 0
-3.09152e-09 -3.41157e-09 0
0.00529328 -4.66447e-07 0
0 -1.93553e-07 0
-2.12092e-10 7.90683e-08 0
-4.78972e-07 1.20021e-07 0
-2.32777e-07 9.73135e-08 0
-1.06024e-07 1.27563e-07 0
1.54069e-10 7.13686e-08 0
-4.33186e-09 -3.97425e-09 0
3.99456e-09 -4.22322e-09 0
-3.57202e-07 -2.19383e-07 0
-3.56566e-07 -2.21903e-07 0
-1.86657e-07 3.918e-08 0
-1.68665e-07 8.34147e-08 0
-1.67695e-07 7.443e-08 0
-1.70988e-07 5.71262e-08 0
-1.73149e-07 4.16661e-08 0
-1.7425e-07 2.96434e-08 0
-1.74912e-07 2.09372e-08 0
-1.75429e-07 1.47651e-08 0
-1.75888e-07 1.03614e-08 0
-1.76297e-07 7.15014e-09 0
-1.76646e-07 4.72795e-09 0
-1.76925e-07 2.81294e-09 0
-1.77128e-07 1.20074e-09 0
-1.77245e-07 -2.66086e-10 0
-1.77266e-07 -1.71872e-09 0
-1.77169e-07 -3.27576e-09 0
-1.76917e-07 -5.052e-09 0
-1.76446e-07 -7.16248e-09 0
-1.75649e-07 -9.72096e-09 0
-1.74366e-07 -1.28302e-08 0
-1.72358e-07 -1.65607e-08 0
-1.69306e-07 -2.09171e-08 0
-1.64829e-07 -2.57994e-08 0
-1.5856e-07 -3.09834e-08 0
-1.50266e-07 -3.61575e-08 0
-1.39932e-07 -4.10153e-08 0
-1.2767e-07 -4.52928e-08 0
-1.13611e-07 -4.86311e-08 0
-9.82823e-08 -5.05468e-08 0
-8.28932e-08 -5.0854e-08 0
-6.81171e-08 -4.97336e-08 0
-5.42571e-08 -4.73439e-08 0
-4.16666e-08 -4.38092e-08 0
-3.06286e-08 -3.93454e-08 0
-2.12612e-08 -3.42268e-08 0
-1.35473e-08 -2.87058e-08 0
-7.40209e-09 -2.29684e-08 0
-2.72698e-09 -1.71279e-08 0
5.63826e-10 -1.12061e-08 0
2.52437e-09 -3.98775e-09 0
0.00506126 -5.03075e-07 0
0 -1.58182e-07 0
-1.14769e-10 3.78039e-08 0
-5.60544e-07 6.95639e-08 0
-3.30733e-07 3.57271e-08 0
-1.99104e-07 5.14303e-09 0
-1.0538e-07 1.24006e-09 0
-4.06576e-09 4.511e-09 0
-5.15755e-10 5.15755e-10 0
3.74385e-09 -4.24497e-09 0
-2.19757e-07 -1.23108e-07 0
-2.24539e-07 -8.57666e-08 0
-2.20243e-07 7.60823e-08 0
-2.09852e-07 7.09999e-08 0
-1.9908e-07 5.50846e-08 0
-1.90569e-07 3.92854e-08 0
-1.85142e-07 2.76883e-08 0
-1.81987e-07 1.96794e-08 0
-1.80234e-07 1.4078e-08 0
-1.79297e-07 1.00461e-08 0
-1.78823e-07 7.0482e-09 0
-1.7861e-07 4.7356e-09 0
-1.78542e-07 2.86845e-09 0
-1.78555e-07 1.26959e-09 0
-1.78611e-07 -2.02946e-10 0
-1.78685e-07 -1.67326e-09 0
-1.78753e-07 -3.25937e-09 0
-1.7878e-07 -5.08147e-09 0
-1.7871e-07 -7.26686e-09 0
-1.7844e-07 -9.95023e-09 0
-1.77797e-07 -1.32652e-08 0
-1.76504e-07 -1.7321e-08 0
-1.74146e-07 -2.21584e-08 0
-1.70181e-07 -2.76856e-08 0
-1.64036e-07 -3.36265e-08 0
-1.5533e-07 -3.95566e-08 0
-1.44092e-07 -4.50843e-08 0
-1.30582e-07 -4.99864e-08 0
-1.14768e-07 -5.38923e-08 0
-9.70931e-08 -5.60096e-08 0
-7.98317e-08 -5.61185e-08 0
-6.36887e-08 -5.47179e-08 0
-4.87342e-08 -5.20152e-08 0
-3.53844e-08 -4.80584e-08 0
-2.3947e-08 -4.30846e-08 0
-1.44661e-08 -3.74305e-08 0
-6.81704e-09 -3.13898e-08 0
-8.20124e-10 -2.51594e-08 0
3.69131e-09 -1.88405e-08 0
6.84979e-09 -1.24243e-08 0
8.75091e-09 -4.38349e-09 0
0.00477452 -5.01965e-07 0
0 -9.86854e-08 0
8.73526e-12 -5.93034e-09 0
-5.62484e-07 3.41651e-09 0
-3.29918e-07 1.18307e-09 0
-2.44535e-07 -1.00814e-08 0
-1.90572e-07 -1.08188e-07 0
-1.63646e-07 -1.06318e-07 0
-4.49225e-09 4.52968e-09 0
-7.85028e-10 7.85028e-10 0
3.49899e-09 -3.98849e-09 0
-1.22867e-07 3.80185e-08 0
-3.20281e-07 7.09118e-08 0
-2.60677e-07 5.52316e-08 0
-2.20304e-07 3.83786e-08 0
-2.01064e-07 2.75901e-08 0
-1.91452e-07 2.07552e-08 0
-1.86347e-07 1.57484e-08 0
-1.835e-07 1.18613e-08 0
-1.81851e-07 8.79426e-09 0
-1.80879e-07 6.34702e-09 0
-1.80312e-07 4.35917e-09 0
-1.80006e-07 2.69495e-09 0
-1.79883e-07 1.2352e-09 0
-1.79901e-07 -1.29116e-10 0
-1.80033e-07 -1.50313e-09 0
-1.8026e-07 -2.99418e-09 0
-1.80559e-07 -4.718e-09 0
-1.80885e-07 -6.80412e-09 0
-1.81148e-07 -9.39876e-09 0
-1.81177e-07 -1.26608e-08 0
-1.80662e-07 -1.67429e-08 0
-1.79097e-07 -2.17441e-08 0
-1.75742e-07 -2.76245e-08 0
-1.69731e-07 -3.41053e-08 0
-1.60434e-07 -4.06668e-08 0
-1.4798e-07 -4.68263e-08 0
-1.33032e-07 -5.24857e-08 0
-1.1518e-07 -5.73081e-08 0
-9.41122e-08 -5.97464e-08 0
-7.4668e-08 -5.94768e-08 0
-5.71852e-08 -5.77424e-08 0
-4.11829e-08 -5.47847e-08 0
-2.72543e-08 -5.0478e-08 0
-1.57023e-08 -4.51081e-08 0
-6.41578e-09 -3.90926e-08 0
8.93219e-10 -3.2757e-08 0
6.52225e-09 -2.6289e-08 0
1.07097e-08 -1.97604e-08 0
1.36308e-08 -1.31178e-08 0
1.54223e-08 -4.59342e-09 0
0.00444929 -4.88245e-07 0
0 -6.25498e-08 0
4.943e-11 -4.7202e-08 0
-5.10419e-07 -5.80576e-08 0
-3.15023e-07 -2.13195e-08 0
-2.47319e-07 -4.13116e-08 0
-2.1681e-07 -5.32507e-08 0
-2.57867e-07 -1.85889e-07 0
-1.99026e-07 -1.63454e-07 0
-5.03091e-09 4.02818e-09 0
3.30051e-09 4.35734e-09 0
-4.16906e-10 2.34133e-07 0
-4.90972e-07 2.16766e-07 0
-3.00579e-07 -2.36328e-08 0
-2.21127e-07 -2.281e-09 0
-1.99128e-07 1.09363e-08 0
-1.91293e-07 1.2915e-08 0
-1.87455e-07 1.15625e-08 0
-1.8514e-07 9.43124e-09 0
-1.83597e-07 7.30596e-09 0
-1.82538e-07 5.41492e-09 0
-1.81825e-07 3.78932e-09 0
-1.81385e-07 2.38704e-09 0
-1.81173e-07 1.13891e-09 0
-1.81164e-07 -3.42718e-11 0
-1.81345e-07 -1.21723e-09 0
-1.81706e-07 -2.50138e-09 0
-1.82236e-07 -3.98904e-09 0
-1.82905e-07 -5.79917e-09 0
-1.83641e-07 -8.07306e-09 0
-1.84281e-07 -1.09768e-08 0
-1.84501e-07 -1.46935e-08 0
-1.83713e-07 -1.93905e-08 0
-1.8098e-07 -2.51411e-08 0
-1.75081e-07 -3.17981e-08 0
-1.65022e-07 -3.8928e-08 0
-1.51063e-07 -4.61098e-08 0
-1.34659e-07 -5.35067e-08 0
-1.14514e-07 -6.06475e-08 0
-8.77039e-08 -6.38851e-08 0
-6.59756e-08 -6.27826e-08 0
-4.74188e-08 -6.04385e-08 0
-3.0633e-08 -5.70094e-08 0
-1.65929e-08 -5.21254e-08 0
-5.48453e-09 -4.62181e-08 0
3.08767e-09 -3.9808e-08 0
9.63054e-09 -3.32287e-08 0
1.45667e-08 -2.66308e-08 0
1.81965e-08 -2.00346e-08 0
2.07283e-08 -1.33256e-08 0
2.23374e-08 -4.64938e-09 0
0.00411315 -5.23681e-07 0
0 -6.32074e-08 0
1.16583e-10 -7.51574e-08 0
-4.19527e-07 -9.79328e-08 0
-2.91481e-07 -3.06752e-08 0
-2.43719e-07 -1.48463e-08 0
-2.60986e-07 -5.94818e-08 0
-3.03829e-07 -1.10416e-07 0
-4.57437e-07 -2.56306e-07 0
-4.26175e-07 -1.98461e-07 0
-2.13823e-07 -2.89256e-12 0
-7.01761e-08 5.17558e-07 0
-2.80741e-08 3.65529e-07 0
-1.35457e-07 -2.05583e-07 0
-1.78591e-07 -5.86629e-08 0
-1.91524e-07 -8.74006e-10 0
-1.94638e-07 9.40035e-09 0
-1.94589e-07 9.61113e-09 0
-1.93578e-07 7.94448e-09 0
-1.92396e-07 6.12003e-09 0
-1.91336e-07 4.50541e-09 0
-1.90505e-07 3.14461e-09 0
-1.89933e-07 1.9956e-09 0
-1.8962e-07 9.93575e-10 0
-1.89562e-07 6.87307e-11 0
-1.89753e-07 -8.50195e-10 0
-1.90192e-07 -1.83771e-09 0
-1.90873e-07 -2.97592e-09 0
-1.91776e-07 -4.36055e-09 0
-1.92838e-07 -6.10815e-09 0
-1.93902e-07 -8.36377e-09 0
-1.94626e-07 -1.13065e-08 0
-1.94356e-07 -1.51465e-08 0
-1.91981e-07 -2.01004e-08 0
-1.85942e-07 -2.63342e-08 0
-1.74852e-07 -3.3922e-08 0
-1.59097e-07 -4.30675e-08 0
-1.41198e-07 -5.45287e-08 0
-1.17665e-07 -6.69953e-08 0
-7.87485e-08 -7.15315e-08 0
-5.55438e-08 -6.83656e-08 0
-3.63154e-08 -6.49138e-08 0
-1.90503e-08 -6.04543e-08 0
-5.44796e-09 -5.44474e-08 0
4.63158e-09 -4.7597e-08 0
1.19878e-08 -4.05133e-08 0
1.73724e-08 -3.3502e-08 0
2.13171e-08 -2.66535e-08 0
2.4164e-08 -1.99234e-08 0
2.61505e-08 -1.31285e-08 0
2.75054e-08 -4.58853e-09 0
0.00380667 -6.85714e-07 0
0 -8.95543e-08 0
1.76682e-10 -7.4718e-08 0
-3.95111e-07 -9.41569e-08 0
-3.8948e-07 -2.30324e-08 0
-3.81355e-07 9.03106e-09 0
-3.78179e-07 5.31948e-08 0
-4.15514e-07 4.05759e-08 0
-4.53404e-07 -3.72584e-08 0
-6.49398e-07 -2.73117e-07 0
-6.76736e-07 -4.04118e-07 0
-7.08307e-07 8.02214e-09 0
-2.04957e-07 2.71641e-07 0
-3.56923e-07 1.35105e-07 0
-4.08702e-07 5.80928e-08 0
-4.12831e-07 2.83858e-08 0
-4.0821e-07 1.63378e-08 0
-4.0294e-07 1.05356e-08 0
-3.98494e-07 7.17762e-09 0
-3.95036e-07 4.98042e-09 0
-3.92462e-07 3.44048e-09 0
-3.90626e-07 2.31061e-09 0
-3.89402e-07 1.44306e-09 0
-3.88695e-07 7.3727e-10 0
-3.88438e-07 1.18035e-10 0
-3.88593e-07 -4.76482e-10 0
-3.89143e-07 -1.10266e-09 0
-3.90084e-07 -1.81786e-09 0
-3.91401e-07 -2.6866e-09 0
-3.93042e-07 -3.78754e-09 0
-3.9485e-07 -5.22234e-09 0
-3.96452e-07 -7.12868e-09 0
-3.97084e-07 -9.70191e-09 0
-3.95364e-07 -1.32355e-08 0
-3.89179e-07 -1.82011e-08 0
-3.76217e-07 -2.53849e-08 0
-3.55728e-07 -3.60169e-08 0
-3.29012e-07 -5.13809e-08 0
-2.86932e-07 -6.88334e-08 0
-2.08773e-07 -7.41335e-08 0
-1.66491e-07 -6.83596e-08 0
-1.32384e-07 -6.39623e-08 0
-1.00904e-07 -5.92971e-08 0
-7.65435e-08 -5.2942e-08 0
-5.86323e-08 -4.58721e-08 0
-4.55906e-08 -3.87164e-08 0
-3.61132e-08 -3.17365e-08 0
-2.93184e-08 -2.49912e-08 0
-2.4638e-08 -1.84219e-08 0
-2.16626e-08 -1.1844e-08 0
-1.99757e-08 -4.14466e-09 0
0.00347422 -9.19118e-07 0
0 0 0
9.43535e-11 0 0
-2.11721e-07 0 0
-2.49606e-07 0 0
-2.60014e-07 0 0
-2.48964e-07 0 0
-2.05682e-07 0 0
-1.95012e-07 0 0
-2.23723e-07 0 0
-4.63113e-07 0 0
-6.38546e-07 0 0
-4.71133e-07 0 0
-3.77769e-07 0 0
-3.3758e-07 0 0
-3.18706e-07 0 0
-3.08391e-07 0 0
-3.01994e-07 0 0
-2.97733e-07 0 0
-2.94806e-07 0 0
-2.92783e-07 0 0
-2.91407e-07 0 0
-2.90512e-07 0 0
-2.89992e-07 0 0
-2.89783e-07 0 0
-2.89847e-07 0 0
-2.90168e-07 0 0
-2.90743e-07 0 0
-2.91568e-07 0 0
-2.9262e-07 0 0
-2.93823e-07 0 0
-2.9498e-07 0 0
-2.9567e-07 0 0
-2.95107e-07 0 0
-2.92034e-07 0 0
-2.84925e-07 0 0
-2.72808e-07 0 0
-2.55438e-07 0 0
-2.26212e-07 0 0
-1.71713e-07 0 0
-1.41212e-07 0 0
-1.16839e-07 0 0
-9.40864e-08 0 0
-7.63611e-08 0 0
-6.31758e-08 0 0
-5.34623e-08 0 0
-4.63529e-08 0 0
-4.12555e-08 0 0
-3.77808e-08 0 0
-3.56455e-08 0 0
-3.45647e-08 0 0
0.00164087 0 0
0 0 6.80933e-08
-1.24674e-11 0 5.49861e-08
-3.29766e-07 0 6.35285e-08
-3.94891e-07 0 3.47318e-09
-3.3638e-07 0 -1.07622e-08
-2.00095e-07 0 -4.1472e-09
-2.78056e-07 0 3.75832e-09
-2.68916e-07 0 3.2726e-09
-2.46545e-07 0 5.52853e-10
-2.39809e-07 0 -1.28883e-09
-2.55637e-07 0 -1.45662e-09
-2.79788e-07 0 -1.03696e-09
-3.03187e-07 0 -6.13623e-10
-3.22846e-07 0 -3.31904e-10
-3.38386e-07 0 -1.73584e-10
-3.50206e-07 0 -9.20615e-11
-3.58951e-07 0 -5.12202e-11
-3.65283e-07 0 -3.01265e-11
-3.69779e-07 0 -1.83355e-11
-3.72896e-07 0 -1.1086e-11
-3.74969e-07 0 -6.35435e-12
-3.76226e-07 0 -3.41394e-12
-3.76815e-07 0 -2.25635e-12
-3.76809e-07 0 -3.44629e-12
-3.76228e-07 0 -8.19757e-12
-3.7504e-07 0 -1.85773e-11
-3.73166e-07 0 -3.77873e-11
-3.70485e-07 0 -7.04617e-11
-3.66834e-07 0 -1.22875e-10
-3.62017e-07 0 -2.02884e-10
-3.55814e-07 0 -3.1938e-10
-3.48008e-07 0 -4.81032e-10
-3.38409e-07 0 -6.94252e-10
-3.26891e-07 0 -9.60512e-10
-3.13422e-07 0 -1.27329e-09
-2.98082e-07 0 -1.61485e-09
-2.81068e-07 0 -1.95394e-09
-2.62705e-07 0 -2.24803e-09
-2.43451e-07 0 -2.45461e-09
-2.23856e-07 0 -2.54751e-09
-2.04488e-07 0 -2.52341e-09
-1.85871e-07 0 -2.39569e-09
-1.6847e-07 0 -2.18674e-09
-1.52671e-07 0 -1.92271e-09
-1.38773e-07 0 -1.62864e-09
-1.26984e-07 0 -1.32459e-09
-1.17432e-07 0 -1.0238e-09
-1.1018e-07 0 -7.32342e-10
-1.0522e-07 0 -4.45887e-10
-1.02449e-07 0 -1.09927e-10
0.00540401 0 1.90544e-07
0.0036 1.45313e-07 7.64402e-08
0.00359975 -0.00557137 -0.00286421
0.0149955 -0.0100604 -0.00444131
0.0247307 -0.00863562 -0.00241023
0.0341429 -0.00783525 -0.00128506
0.0440538 -0.00484992 -0.000671015
0.0459688 -0.00080738 -0.000331614
0.0454034 0.00229127 -0.000170656
0.0400734 0.0040808 -9.305e-05
0.0351759 0.00391397 -5.38175e-05
0.0314266 0.00303897 -2.89743e-05
0.0288962 0.00209618 -1.52094e-05
0.0273243 0.00132989 -7.89599e-06
0.0264107 0.00078753 -4.06932e-06
0.025914 0.000436201 -2.09153e-06
0.0256647 0.000223591 -1.07812e-06
0.0255539 0.000102725 -5.58832e-07
0.0255153 3.86647e-05 -2.89195e-07
0.0255108 8.0037e-06 -1.44132e-07
0.0255193 -3.82718e-06 -5.92942e-08
0.0255297 -5.3439e-06 1.33152e-10
0.0255361 -1.19046e-06 5.5897e-08
0.0255351 6.36596e-06 1.25955e-07
0.0255246 1.64954e-05 2.30807e-07
0.0255023 2.92562e-05 3.99336e-07
0.0254653 4.5299e-05 6.7573e-07
0.02541 6.5723e-05 1.12861e-06
0.0253311 9.20126e-05 1.86299e-06
0.0252214 0.000125999 3.03474e-06
0.0250716 0.000169792 4.86508e-06
0.0248698 0.000225617 7.64862e-06
0.0246013 0.000295494 1.17423e-05
0.0242493 0.000380673 1.75155e-05
0.0237953 0.000480818 2.52399e-05
0.0232219 0.000593045 3.49124e-05
0.0225165 0.000711146 4.60528e-05
0.021675 0.000825558 5.7589e-05
0.0207071 0.0009246 6.79809e-05
0.0196374 0.000996957 7.56358e-05
0.0185033 0.00103448 7.94463e-05
0.0173491 0.001034 7.914e-05
0.0162191 0.000997264 7.52255e-05
0.0151521 0.000929464 6.86344e-05
0.0141784 0.000837286 6.0345e-05
0.0133202 0.000727377 5.11605e-05
0.0125923 0.000605431 4.16366e-05
0.012004 0.000475836 3.21007e-05
0.0115606 0.000341648 2.27056e-05
0.011265 0.000204704 1.34934e-05
0.0111184 6.78457e-05 4.6629e-06
0.0111184 -1.05393e-08 3.92039e-07
0.01 1.30229e-07 1.06701e-07
0.0100001 -0.00865676 -0.00513304
0.0183118 -0.0166205 -0.00763276
0.0259862 -0.0163356 -0.0036621
0.0350115 -0.0176797 -0.00175069
0.052248 -0.0108984 -0.000802535
0.0514265 -0.000849022 -0.000324346
0.0519673 0.00616414 -0.000161847
0.0412078 0.0103698 -9.04672e-05
0.0346158 0.00872273 -6.01534e-05
0.0307049 0.00631937 -3.22716e-05
0.0284462 0.00412286 -1.61746e-05
0.0272567 0.0024961 -8.13938e-06
0.0266776 0.00141586 -4.05134e-06
0.0264268 0.000748878 -1.99198e-06
0.0263417 0.000361562 -9.73837e-07
0.0263333 0.000150222 -4.75614e-07
0.0263553 4.35264e-05 -2.30528e-07
0.0263852 -3.82553e-06 -1.05923e-07
0.0264125 -1.88551e-05 -3.60368e-08
0.026433 -1.67621e-05 1.35028e-08
0.0264448 -5.49902e-06 6.4099e-08
0.0264472 1.12885e-05 1.34471e-07
0.0264392 3.25014e-05 2.47921e-07
0.0264195 5.86028e-05 4.39642e-07
0.026386 9.11134e-05 7.66228e-07
0.0263352 0.000132386 1.31932e-06
0.0262621 0.000185529 2.24512e-06
0.0261599 0.000254367 3.77062e-06
0.0260193 0.000343342 6.23515e-06
0.0258278 0.000457233 1.01192e-05
0.0255699 0.000600535 1.60514e-05
0.0252265 0.000776319 2.47547e-05
0.0247757 0.000984496 3.68777e-05
0.0241952 0.00121962 5.2663e-05
0.0234663 0.00146891 7.14913e-05
0.02258 0.00171182 9.15233e-05
0.0215444 0.00192259 0.000109835
0.0203877 0.00207599 0.000123277
0.019156 0.00215409 0.000129688
0.0179038 0.00215054 0.00012869
0.0166839 0.00207019 0.000121488
0.0155396 0.00192521 0.000109981
0.0145029 0.00173047 9.5986e-05
0.0135954 0.00150025 8.08681e-05
0.0128302 0.00124645 6.5494e-05
0.0122149 0.000978027 5.03206e-05
0.011753 0.000701175 3.55157e-05
0.0114459 0.000419854 2.10606e-05
0.0112938 0.000139382 7.13993e-06
0.0112937 3.10169e-07 3.70366e-07
0.0148 -1.0317e-07 2.43982e-07
0.0148003 -0.00937334 -0.00710434
0.0202011 -0.0188406 -0.0105224
0.0239867 -0.0212141 -0.0049257
0.0261186 -0.031885 -0.00227841
0.0283788 -0.0201413 -0.000865676
0.0269566 -1.83792e-06 -0.000145159
0.0277856 0.0127895 -8.2673e-05
0.0332697 0.0215733 -5.3e-05
0.0294676 0.014492 -3.55502e-05
0.0270018 0.00924715 -2.42999e-05
0.0259122 0.00556415 -1.38639e-05
0.0256293 0.00310877 -7.17139e-06
0.0257002 0.00162276 -3.48341e-06
0.0258769 0.000774868 -1.62033e-06
0.0260544 0.000318592 -7.37416e-07
0.0261987 8.99106e-05 -3.32213e-07
0.0263054 -1.28516e-05 -1.46818e-07
0.0263803 -4.90601e-05 -5.81715e-08
0.0264307 -5.15907e-05 -8.47429e-09
0.0264628 -3.76374e-05 3.14985e-08
0.0264809 -1.54412e-05 8.08972e-08
0.0264877 1.17839e-05 1.59178e-07
0.0264843 4.36832e-05 2.94171e-07
0.0264709 8.16427e-05 5.31496e-07
0.026446 0.000128276 9.48382e-07
0.0264073 0.000187252 1.67526e-06
0.0263507 0.000263298 2.92915e-06
0.0262701 0.000362247 5.063e-06
0.026157 0.000491018 8.63283e-06
0.0259995 0.000657336 1.44758e-05
0.0257812 0.000868955 2.37713e-05
0.0254808 0.00113205 3.80122e-05
0.0250713 0.00144849 5.87554e-05
0.0245221 0.00181189 8.69798e-05
0.0238035 0.00220353 0.000122012
0.0228955 0.00259035 0.000160446
0.021801 0.00292852 0.000196131
0.0205533 0.0031741 0.000222126
0.0192136 0.00329634 0.000233762
0.0178546 0.0032861 0.000230626
0.016542 0.00315425 0.000215821
0.0153251 0.00292321 0.000193581
0.014236 0.00261841 0.00016754
0.0132933 0.00226289 0.000140183
0.0125062 0.00187499 0.00011293
0.0118782 0.00146798 8.64294e-05
0.0114097 0.00105066 6.08315e-05
0.0110995 0.000628425 3.59805e-05
0.0109464 0.00020862 1.20029e-05
0.0109462 6.63255e-07 2.9776e-07
0.018 -3.36147e-07 2.57513e-07
0.0180002 -0.00795224 -0.00851294
0.0209484 -0.0160334 -0.0126423
0.0208634 -0.0167178 -0.00587512
0.0158202 -0.0191307 -0.00265811
-2.6644e-08 -0.0104953 -0.000912126
2.19631e-05 9.66934e-06 1.29242e-08
-9.91037e-06 1.10793e-05 -1.11773e-05
0.0128063 0.00878414 -1.60463e-05
0.0216076 0.0150439 -9.46739e-06
0.0216839 0.00990455 -1.04438e-05
0.0224684 0.00551158 -9.70218e-06
0.0236041 0.00271683 -5.76502e-06
0.0245897 0.00117296 -2.7511e-06
0.0253075 0.000397064 -1.20208e-06
0.0257847 4.10419e-05 -5.04242e-07
0.0260864 -0.000100077 -2.07161e-07
0.026272 -0.000137744 -8.18066e-08
0.0263843 -0.000128975 -2.44628e-08
0.0264514 -0.00010131 1.07945e-08
0.0264906 -6.69972e-05 4.70172e-08
0.0265123 -3.05258e-05 1.01545e-07
0.0265222 7.54664e-06 1.96049e-07
0.0265235 4.87558e-05 3.65695e-07
0.0265174 9.59294e-05 6.71779e-07
0.0265037 0.000152935 1.2222e-06
0.0264809 0.00022472 2.20569e-06
0.0264463 0.000317504 3.94808e-06
0.0263952 0.000439025 7.00178e-06
0.0263203 0.000598711 1.22796e-05
0.0262108 0.000807596 2.12359e-05
0.0260501 0.00107764 3.60634e-05
0.0258146 0.00141992 5.97901e-05
0.025471 0.00184092 9.59918e-05
0.0249764 0.0023365 0.000147635
0.0242829 0.00288394 0.000214635
0.0233504 0.00343601 0.000290753
0.0221697 0.00392441 0.000362666
0.0207825 0.00427786 0.000414488
0.019277 0.00444767 0.000435813
0.0177584 0.00442332 0.000426787
0.0163129 0.00422742 0.000395456
0.0149963 0.00389813 0.000351285
0.0138384 0.00347461 0.000301531
0.0128518 0.00298979 0.000250662
0.0120389 0.00246829 0.000200958
0.0113973 0.00192693 0.000153275
0.0109225 0.00137617 0.000107627
0.01061 0.000821897 6.35473e-05
0.0104564 0.000272706 2.10194e-05
0.0104562 1.02732e-06 2.19578e-07
0.0196 -3.25522e-07 1.5336e-07
0.0196 -0.00503621 -0.00923794
0.0214048 -0.00996473 -0.0137393
0.020018 -0.00943066 -0.00633798
0.0148511 -0.00753753 -0.00274777
0.00461783 -0.00303572 -0.00115246
1.72906e-05 -1.59928e-05 -0.000241438
6.08242e-06 -6.08242e-06 -3.46659e-09
-9.50435e-06 1.03164e-05 -3.87662e-06
0.00878931 0.00564208 -5.8606e-06
0.0150556 0.00840464 -6.02058e-06
0.0186124 0.00365557 -7.49145e-06
0.0216883 0.000994348 -5.20761e-06
0.0237432 -7.67155e-05 -2.52013e-06
0.024983 -0.000417986 -1.0821e-06
0.0256948 -0.000459242 -4.43739e-07
0.0260934 -0.000396812 -1.82518e-07
0.0263137 -0.000310409 -7.52952e-08
0.0264345 -0.000228302 -2.422e-08
0.0265005 -0.00015786 1.19512e-08
0.0265362 -9.85672e-05 5.4338e-08
0.0265553 -4.72259e-05 1.214e-07
0.0265653 1.51438e-07 2.39574e-07
0.0265699 4.78051e-05 4.54475e-07
0.0265712 0.000100252 8.48181e-07
0.0265698 0.000162546 1.56909e-06
0.0265653 0.000240669 2.88424e-06
0.0265566 0.000341983 5.26971e-06
0.0265407 0.000475751 9.56324e-06
0.0265126 0.000653622 1.72111e-05
0.0264634 0.000889944 3.06414e-05
0.0263779 0.00120153 5.37581e-05
0.026231 0.00160614 9.24119e-05
0.025983 0.0021184 0.000154336
0.0255758 0.0027414 0.000247377
0.024934 0.00345318 0.000374358
0.0239821 0.00419235 0.000524734
0.0226849 0.00485723 0.000669767
0.021095 0.00533552 0.00077273
0.0193499 0.00555264 0.000810466
0.0176106 0.00550081 0.00078624
0.0159916 0.00522446 0.000720432
0.0145522 0.00478495 0.000633531
0.0133148 0.00423813 0.000539408
0.0122811 0.00362689 0.000445688
0.0114432 0.00298093 0.000355757
0.0107903 0.00231904 0.000270528
0.0103118 0.00165195 0.000189581
0.00999907 0.00098483 0.000111795
0.0098461 0.000326503 3.6844e-05
0.00984592 1.36797e-06 1.6796e-07
0.0196 -2.17464e-07 2.79131e-08
0.0196001 -0.0018585 -0.00925221
0.0217327 -0.00368747 -0.0137582
0.0212211 -0.00296586 -0.00634071
0.0181464 -0.000131951 -0.00268893
0.0138265 0.00597824 -0.00131312
0.00886881 0.00497352 -0.000582083
1.73964e-05 -1.45892e-05 -0.000123156
5.08482e-06 -5.08482e-06 -1.43802e-09
-9.19755e-06 9.81116e-06 -1.48846e-06
0.00564375 9.27381e-05 -3.89722e-06
0.0149859 -0.00111246 -8.03247e-06
0.0207759 -0.00240811 -8.61506e-06
0.0237342 -0.00211817 -4.24424e-06
0.025202 -0.00155253 -1.76271e-06
0.0259268 -0.00106827 -7.28864e-07
0.0262835 -0.00071842 -3.20992e-07
0.0264575 -0.000478585 -1.49856e-07
0.0265411 -0.000315582 -6.47083e-08
0.0265804 -0.000202933 -6.80314e-09
0.0265987 -0.000121965 5.29512e-08
0.0266078 -5.98404e-05 1.39247e-07
0.0266137 -7.488e-06 2.86445e-07
0.0266196 4.20013e-05 5.53408e-07
0.0266274 9.45451e-05 1.04704e-06
0.0266382 0.000155961 1.96414e-06
0.0266528 0.000232721 3.66718e-06
0.0266716 0.000332681 6.82079e-06
0.026694 0.000465856 1.26338e-05
0.026718 0.000645268 2.32774e-05
0.0267381 0.000887792 4.25761e-05
0.0267422 0.00121471 7.7059e-05
0.0267065 0.0016512 0.00013729
0.0265873 0.002223 0.000238767
0.0263103 0.0029469 0.000400034
0.0257636 0.0038107 0.000633197
0.0248128 0.00474394 0.000923354
0.0233684 0.00560292 0.0012104
0.0214946 0.00621483 0.00141016
0.0194181 0.00646894 0.00147235
0.0173935 0.0063696 0.00141186
0.0155671 0.00599835 0.00127791
0.0139922 0.0054469 0.00111231
0.0126743 0.00478785 0.000939739
0.0115978 0.00407144 0.00077215
0.010741 0.00332944 0.000613973
0.0100827 0.00258015 0.000465666
0.00960548 0.00183272 0.00032577
0.00929597 0.00109039 0.00019191
0.00914536 0.000361117 6.31787e-05
0.00914517 1.59209e-06 2.02867e-07
0.018 -1.51878e-07 -7.59919e-08
0.0180001 0.000744228 -0.00860076
0.0213175 0.00119426 -0.0127772
0.0224676 0.00134471 -0.00590535
0.021896 0.00336566 -0.0025265
0.0213112 0.0081037 -0.00121246
0.0222112 0.014686 -0.000642188
0.014261 0.00905313 -0.000289952
1.77569e-05 -1.14214e-05 -6.25246e-05
-7.89903e-06 -1.23468e-05 5.46666e-08
1.12027e-06 -0.00657621 7.52847e-06
0.0155435 -0.0114688 -1.30332e-06
0.0226535 -0.00774733 -1.36904e-05
0.0252244 -0.00449861 -6.90734e-06
0.0261777 -0.00260832 -2.86154e-06
0.0265353 -0.0015395 -1.21495e-06
0.0266603 -0.000926793 -5.5386e-07
0.0266935 -0.000567661 -2.65129e-07
0.0266926 -0.000351073 -1.20308e-07
0.0266816 -0.000215475 -2.93313e-08
0.0266704 -0.000126044 5.23646e-08
0.0266632 -6.2447e-05 1.5949e-07
0.0266618 -1.21944e-05 3.36198e-07
0.026667 3.30734e-05 6.55749e-07
0.0266799 7.97388e-05 1.25133e-06
0.0267018 0.000133568 2.37148e-06
0.0267343 0.000200704 4.48301e-06
0.0267794 0.000288537 8.46244e-06
0.0268394 0.000406637 1.59499e-05
0.0269157 0.000567849 2.99939e-05
0.0270075 0.000789614 5.61955e-05
0.0271082 0.00109541 0.000104634
0.0271991 0.00151575 0.000192775
0.027237 0.0020871 0.000348729
0.0271357 0.00284412 0.000611157
0.0267429 0.00379611 0.0010149
0.0258371 0.00487876 0.00154663
0.0242235 0.00590751 0.0020892
0.0219697 0.00663154 0.00245873
0.0194585 0.00689425 0.00255056
0.0170959 0.00672758 0.00241309
0.0150475 0.00626703 0.00215669
0.0133414 0.00563421 0.00185915
0.011954 0.00491106 0.00155997
0.0108469 0.00414821 0.00127582
0.00998176 0.00337453 0.00101132
0.00932653 0.00260476 0.000765467
0.00885649 0.0018448 0.000534776
0.008554 0.00109523 0.000314775
0.00840758 0.00036219 0.000103613
0.0084074 1.49481e-06 3.77474e-07
0.0148 -1.41025e-07 -1.66258e-07
0.0148002 0.0022116 -0.00738962
0.0199434 0.00374639 -0.0109775
0.0230091 0.00314847 -0.00512894
0.0246707 0.0043059 -0.00226965
0.0264315 0.00737171 -0.00111055
0.029754 0.0129744 -0.000588975
0.035045 0.0226479 -0.00031275
0.0303169 0.0143531 -0.000104036
0.0305078 1.72433e-10 1.31226e-05
0.0323802 -0.0154461 1.75337e-05
0.0305934 -0.0237557 -3.8191e-06
0.0291465 -0.0120801 -1.4994e-05
0.0282882 -0.00563685 -7.47232e-06
0.0277326 -0.00286045 -3.1756e-06
0.0273609 -0.00154922 -1.38015e-06
0.0271123 -0.000875776 -6.25358e-07
0.0269468 -0.00051052 -2.85788e-07
0.0268374 -0.000303507 -1.16425e-07
0.0267662 -0.000180741 -1.3647e-08
0.0267216 -0.000103717 7.61432e-08
0.0266964 -5.14523e-05 1.94325e-07
0.0266865 -1.18567e-05 3.92409e-07
0.02669 2.26497e-05 7.55678e-07
0.0267065 5.74956e-05 1.44062e-06
0.0267372 9.73399e-05 2.74326e-06
0.0267845 0.000147013 5.22863e-06
0.0268519 0.000212314 9.978e-06
0.0269441 0.000300868 1.90608e-05
0.0270663 0.0004232 3.64298e-05
0.0272229 0.000594164 6.95943e-05
0.0274143 0.000834834 0.00013265
0.0276299 0.00117469 0.000251396
0.0278333 0.00165306 0.000470556
0.0279356 0.00231612 0.000858751
0.0277506 0.00319794 0.00149216
0.0269535 0.0042628 0.00237513
0.0251796 0.00531803 0.00330699
0.0224783 0.00606204 0.00393846
0.019442 0.00628863 0.00406009
0.0167347 0.00606091 0.00378574
0.0144853 0.00557526 0.00334423
0.0126735 0.00496002 0.00285997
0.0112388 0.00428795 0.00238745
0.0101174 0.00359909 0.00194634
0.00925515 0.00291384 0.00153983
0.00861013 0.00224103 0.00116407
0.00815164 0.00158277 0.00081256
0.00785858 0.00093749 0.000477953
0.00771752 0.000309246 0.000157251
0.00771734 7.4375e-07 5.72544e-07
0.01 -2.10951e-07 -2.7719e-07
0.0100001 0.00204363 -0.00582586
0.0175259 0.00333864 -0.00867041
0.0222445 0.0024739 -0.00414434
0.0255235 0.0028928 -0.00193744
0.0291024 0.00457253 -0.000979942
0.0342728 0.00692624 -0.000541278
0.042848 0.00896709 -0.000299546
0.0573537 0.0047389 -0.000120134
0.0574222 -0.00201859 -1.29228e-05
0.0574546 -0.00663581 8.38318e-06
0.0420238 -0.00821646 -4.96271e-06
0.0337237 -0.00542941 -1.11058e-05
0.0299584 -0.00307761 -7.1434e-06
0.0280948 -0.00167734 -3.61157e-06
0.027102 -0.000917285 -1.68982e-06