# vtk DataFile Version 2.0
Tobias Weinzierl: CPU, Manycore and Cluster Computing
ASCII

DATASET STRUCTURED_POINTS
DIMENSIONS  51 11 6

ORIGIN 0 0 0 

SPACING 0.1 0.1 0.1 

POINT_DATA 3366

VECTORS velocity float
0 0 0
1.15698e-08 0 0
1.97826e-08 0 0
1.5001e-08 0 0
6.32801e-09 0 0
1.72602e-09 0 0
3.6368e-10 0 0
6.45214e-11 0 0
1.00578e-11 0 0
1.40905e-12 0 0
1.79774e-13 0 0
2.10713e-14 0 0
2.28348e-15 0 0
2.29968e-16 0 0
2.16171e-17 0 0
1.90395e-18 0 0
1.57668e-19 0 0
1.23146e-20 0 0
9.09782e-22 0 0
6.37431e-23 0 0
4.24583e-24 0 0
2.69459e-25 0 0
1.63276e-26 0 0
9.46408e-28 0 0
5.25691e-29 0 0
2.80279e-30 0 0
1.43657e-31 0 0
7.08847e-33 0 0
3.37171e-34 0 0
1.54796e-35 0 0
6.86734e-37 0 0
2.94721e-38 0 0
1.22483e-39 0 0
4.93406e-41 0 0
1.92838e-42 0 0
7.31844e-44 0 0
2.6992e-45 0 0
9.6823e-47 0 0
3.3804e-48 0 0
1.14949e-49 0 0
3.80963e-51 0 0
1.23132e-52 0 0
3.88354e-54 0 0
1.19593e-55 0 0
3.59786e-57 0 0
1.05796e-58 0 0
3.04226e-60 0 0
8.55922e-62 0 0
2.35717e-63 0 0
6.5247e-65 0 0
1.8401e-62 0 0
0 -1.90928e-158 0
4.20779e-08 -1.42205e-156 0
8.88815e-08 -1.19959e-154 0
7.66719e-08 -9.24607e-153 0
3.35681e-08 -5.90267e-151 0
8.52377e-09 -2.99773e-149 0
1.66905e-09 -1.08026e-147 0
2.79173e-10 -1.88917e-148 0
4.16531e-11 -1.00358e-146 0
5.65241e-12 -6.11215e-145 0
7.04722e-13 -3.6537e-143 0
8.12276e-14 -2.14908e-141 0
8.69509e-15 -1.24383e-139 0
8.67747e-16 -7.08127e-138 0
8.10138e-17 -3.96389e-136 0
7.09848e-18 -2.18076e-134 0
5.8549e-19 -1.1786e-132 0
4.55878e-20 -6.25445e-131 0
3.35971e-21 -3.2572e-129 0
2.34938e-22 -1.66375e-127 0
1.56244e-23 -8.33033e-126 0
9.90344e-25 -4.08584e-124 0
5.99469e-26 -1.96175e-122 0
3.4718e-27 -9.21338e-121 0
1.92709e-28 -4.22912e-119 0
1.02685e-29 -1.8956e-117 0
5.26055e-31 -8.28865e-116 0
2.59466e-32 -3.53178e-114 0
1.23375e-33 -1.46474e-112 0
5.66253e-35 -5.90489e-111 0
2.51149e-36 -2.31054e-109 0
1.07761e-37 -8.76102e-108 0
4.47765e-39 -3.21318e-106 0
1.80348e-40 -1.13749e-104 0
7.04765e-42 -3.87757e-103 0
2.67437e-43 -1.26936e-101 0
9.8627e-45 -3.97783e-100 0
3.53756e-46 -1.18887e-98 0
1.23499e-47 -3.37402e-97 0
4.1993e-49 -9.04491e-96 0
1.39165e-50 -2.27582e-94 0
4.49779e-52 -5.33246e-93 0
1.41854e-53 -1.15205e-91 0
4.36827e-55 -2.26574e-90 0
1.31412e-56 -3.98816e-89 0
3.86413e-58 -6.13727e-88 0
1.11115e-59 -7.981e-87 0
3.12612e-61 -8.31885e-86 0
8.60912e-63 -6.34424e-85 0
2.383e-64 -2.93494e-84 0
6.73764e-62 -1.11909e-81 0
0 -1.88906e-157 0
5.97248e-08 -1.3895e-155 0
1.8661e-07 -1.46802e-153 0
2.09398e-07 -1.54078e-151 0
1.01794e-07 -1.39443e-149 0
2.10214e-08 -1.07413e-147 0
3.55171e-09 -7.63371e-146 0
5.34407e-10 -2.70238e-147 0
7.43441e-11 -1.17615e-145 0
9.63041e-12 -7.35268e-144 0
1.16411e-12 -4.44583e-142 0
1.31436e-13 -2.64082e-140 0
1.38763e-14 -1.54372e-138 0
1.37198e-15 -8.87919e-137 0
1.27288e-16 -5.02327e-135 0
1.11059e-17 -2.79399e-133 0
9.13434e-19 -1.52721e-131 0
7.09896e-20 -8.19979e-130 0
5.2255e-21 -4.32233e-128 0
3.65144e-22 -2.23568e-126 0
2.42742e-23 -1.13403e-124 0
1.53836e-24 -5.63765e-123 0
9.31205e-26 -2.74494e-121 0
5.39375e-27 -1.30802e-119 0
2.99455e-28 -6.09537e-118 0
1.5961e-29 -2.77533e-116 0
8.17938e-31 -1.23353e-114 0
4.0357e-32 -5.34631e-113 0
1.91965e-33 -2.25701e-111 0
8.81387e-35 -9.26912e-110 0
3.91065e-36 -3.69791e-108 0
1.67858e-37 -1.43088e-106 0
6.97735e-39 -5.36053e-105 0
2.81132e-40 -1.94042e-103 0
1.099e-41 -6.77123e-102 0
4.17182e-43 -2.27184e-100 0
1.53904e-44 -7.30625e-99 0
5.52205e-46 -2.24417e-97 0
1.92841e-47 -6.55561e-96 0
6.55917e-49 -1.81197e-94 0
2.17437e-50 -4.70941e-93 0
7.02958e-52 -1.14215e-91 0
2.21766e-53 -2.55976e-90 0
6.83095e-55 -5.2353e-89 0
2.05553e-56 -9.60893e-88 0
6.04575e-58 -1.54642e-86 0
1.73891e-59 -2.10972e-85 0
4.89345e-61 -2.31427e-84 0
1.34794e-62 -1.86191e-83 0
3.73194e-64 -9.06924e-83 0
1.05655e-61 -3.55614e-80 0
0 -8.1219e-159 0
3.97115e-08 -6.03156e-157 0
2.36848e-07 -4.99667e-155 0
3.94598e-07 -3.79302e-153 0
2.31032e-07 -1.89447e-151 0
1.42236e-08 -1.85704e-151 0
2.24634e-09 0 0
3.19755e-10 5.34182e-144 0
4.76337e-11 -1.08392e-144 0
6.49487e-12 -7.68697e-143 0
8.17059e-13 -4.75646e-141 0
9.52386e-14 -2.85728e-139 0
1.03189e-14 -1.6876e-137 0
1.04235e-15 -9.81084e-136 0
9.84552e-17 -5.61182e-134 0
8.72181e-18 -3.1571e-132 0
7.26746e-19 -1.74613e-130 0
5.71201e-20 -9.49011e-129 0
4.24608e-21 -5.066e-127 0
2.99279e-22 -2.65481e-125 0
2.00484e-23 -1.36501e-123 0
1.27926e-24 -6.882e-122 0
7.79115e-26 -3.40009e-120 0
4.53779e-27 -1.64498e-118 0
2.53196e-28 -7.78753e-117 0
1.35569e-29 -3.60452e-115 0
6.97635e-31 -1.62972e-113 0
3.45529e-32 -7.19067e-112 0
1.64936e-33 -3.09271e-110 0
7.59743e-35 -1.29509e-108 0
3.38108e-36 -5.27305e-107 0
1.45533e-37 -2.08436e-105 0
6.06509e-39 -7.98534e-104 0
2.44969e-40 -2.95926e-102 0
9.59807e-42 -1.05849e-100 0
3.6512e-43 -3.64499e-99 0
1.34967e-44 -1.20485e-97 0
4.85172e-46 -3.80969e-96 0
1.69732e-47 -1.14758e-94 0
5.78282e-49 -3.27689e-93 0
1.92005e-50 -8.81683e-92 0
6.21668e-52 -2.21862e-90 0
1.964e-53 -5.17202e-89 0
6.05778e-55 -1.10332e-87 0
1.82521e-56 -2.11869e-86 0
5.3749e-58 -3.57946e-85 0
1.54776e-59 -5.14518e-84 0
4.36037e-61 -5.96916e-83 0
1.20237e-62 -5.09491e-82 0
3.33238e-64 -2.6293e-81 0
9.39797e-62 -1.06126e-78 0
0 -2.25593e-160 0
9.35946e-09 -1.69147e-158 0
2.06936e-07 -1.16701e-156 0
5.47017e-07 -6.99253e-155 0
3.97224e-07 -2.58258e-153 0
0 -2.51381e-153 0
0 0 0
0 0 0
4.88482e-12 -3.81443e-142 0
1.2206e-12 -6.31816e-142 0
2.05854e-13 -4.37661e-140 0
2.86839e-14 -2.68139e-138 0
3.50736e-15 -1.60065e-136 0
3.8667e-16 -9.40814e-135 0
3.90226e-17 -5.44292e-133 0
3.64082e-18 -3.09824e-131 0
3.16294e-19 -1.73452e-129 0
2.57272e-20 -9.54639e-128 0
1.96815e-21 -5.16291e-126 0
1.42148e-22 -2.74242e-124 0
9.72441e-24 -1.42997e-122 0
6.31938e-25 -7.3153e-121 0
3.91099e-26 -3.66929e-119 0
2.31047e-27 -1.8034e-117 0
1.30563e-28 -8.67856e-116 0
7.07078e-30 -4.08613e-114 0
3.67619e-31 -1.88068e-112 0
1.83783e-32 -8.45367e-111 0
8.84772e-34 -3.70728e-109 0
4.10741e-35 -1.58433e-107 0
1.84105e-36 -6.58962e-106 0
7.97704e-38 -2.66363e-104 0
3.34483e-39 -1.04468e-102 0
1.35866e-40 -3.9682e-101 0
5.35155e-42 -1.45675e-99 0
2.04584e-43 -5.15595e-98 0
7.5974e-45 -1.75443e-96 0
2.7429e-46 -5.72038e-95 0
9.63477e-48 -1.78017e-93 0
3.29515e-49 -5.2624e-92 0
1.09802e-50 -1.46915e-90 0
3.56725e-52 -3.84559e-89 0
1.13061e-53 -9.35165e-88 0
3.4979e-55 -2.08757e-86 0
1.05697e-56 -4.20955e-85 0
3.12111e-58 -7.49744e-84 0
9.01105e-60 -1.14102e-82 0
2.54491e-61 -1.40791e-81 0
7.03422e-63 -1.2833e-80 0
1.95406e-64 -7.06863e-80 0
5.4472e-62 -2.93992e-77 0
0 -4.48208e-161 0
-4.70804e-09 -3.35723e-159 0
1.59155e-07 -1.9512e-157 0
6.11162e-07 -1.02115e-155 0
5.33021e-07 -3.51361e-154 0
7.45827e-08 -3.41341e-154 0
0 0 0
0 0 0
0 0 0
1.12781e-13 2.62245e-140 0
3.0506e-14 -3.14152e-139 0
5.4055e-15 -2.12407e-137 0
7.75151e-16 -1.28194e-135 0
9.60837e-17 -7.62052e-134 0
1.06208e-17 -4.46056e-132 0
1.06615e-18 -2.56996e-130 0
9.83714e-20 -1.45691e-128 0
8.41608e-21 -8.12325e-127 0
6.72126e-22 -4.45279e-125 0
5.0376e-23 -2.3985e-123 0
3.5592e-24 -1.26893e-121 0
2.37941e-25 -6.59008e-120 0
1.50999e-26 -3.3578e-118 0
9.12221e-28 -1.67748e-116 0
5.25932e-29 -8.21122e-115 0
2.90024e-30 -3.93536e-113 0
1.5328e-31 -1.84518e-111 0
7.77818e-33 -8.45641e-110 0
3.79605e-34 -3.78446e-108 0
1.78447e-35 -1.65205e-106 0
8.09128e-37 -7.02615e-105 0
3.54341e-38 -2.90737e-103 0
1.50052e-39 -1.16872e-101 0
6.15127e-41 -4.55604e-100 0
2.44368e-42 -1.71899e-98 0
9.41677e-44 -6.26283e-97 0
3.5232e-45 -2.19743e-95 0
1.28092e-46 -7.40183e-94 0
4.52909e-48 -2.38458e-92 0
1.5586e-49 -7.31414e-91 0
5.22402e-51 -2.12413e-89 0
1.70656e-52 -5.80026e-88 0
5.43707e-54 -1.47612e-86 0
1.69046e-55 -3.46083e-85 0
5.13207e-57 -7.35925e-84 0
1.5222e-58 -1.3885e-82 0
4.41342e-60 -2.24998e-81 0
1.25148e-61 -2.97251e-80 0
3.47242e-63 -2.9162e-79 0
9.68242e-65 -1.73012e-78 0
2.65472e-62 -7.4228e-76 0
0 -1.7078e-159 0
-4.83735e-09 -1.26665e-157 0
1.58823e-07 -8.11708e-156 0
6.10476e-07 -4.94184e-154 0
5.4831e-07 -2.31866e-152 0
1.55924e-07 -6.56246e-151 0
1.17338e-08 -6.33545e-151 0
0 0 0
0 0 0
0 0 0
2.5472e-15 -2.13908e-138 0
1.37865e-15 -1.36547e-136 0
3.0044e-16 -8.33565e-135 0
4.66721e-17 -5.01298e-133 0
5.93936e-18 -2.96973e-131 0
6.56055e-19 -1.73244e-129 0
6.48433e-20 -9.94869e-128 0
5.84126e-21 -5.62177e-126 0
4.85508e-22 -3.12469e-124 0
3.75627e-23 -1.70757e-122 0
2.72321e-24 -9.17035e-121 0
1.85972e-25 -4.83745e-119 0
1.20147e-26 -2.50516e-117 0
7.36938e-28 -1.2729e-115 0
4.30454e-29 -6.34185e-114 0
2.40076e-30 -3.09603e-112 0
1.28146e-31 -1.47992e-110 0
6.55987e-33 -6.92078e-109 0
3.22643e-34 -3.16346e-107 0
1.52726e-35 -1.41196e-105 0
6.96841e-37 -6.14681e-104 0
3.06892e-38 -2.60671e-102 0
1.30626e-39 -1.07531e-100 0
5.37996e-41 -4.30797e-99 0
2.1464e-42 -1.67301e-97 0
8.30372e-44 -6.28467e-96 0
3.118e-45 -2.27789e-94 0
1.1374e-46 -7.94265e-93 0
4.03408e-48 -2.65489e-91 0
1.39225e-49 -8.47072e-90 0
4.67899e-51 -2.56626e-88 0
1.53234e-52 -7.33377e-87 0
4.89347e-54 -1.96036e-85 0
1.52479e-55 -4.84746e-84 0
4.63868e-57 -1.09226e-82 0
1.37854e-58 -2.19547e-81 0
4.00422e-60 -3.81336e-80 0
1.13741e-61 -5.43708e-79 0
3.1611e-63 -5.79654e-78 0
8.82835e-65 -3.74645e-77 0
2.42121e-62 -1.66002e-74 0
0 -6.14895e-158 0
8.52737e-09 -4.52448e-156 0
2.04152e-07 -3.13716e-154 0
5.42729e-07 -2.05334e-152 0
4.17877e-07 -1.10823e-150 0
1.2968e-07 -4.6143e-149 0
2.06369e-08 -1.32225e-147 0
1.02141e-09 -1.27719e-147 0
0 0 0
0 0 0
0 -1.05341e-137 0
7.88584e-15 -6.70101e-136 0
1.49218e-15 -4.13689e-134 0
2.0042e-16 -2.51759e-132 0
2.26549e-17 -1.5099e-130 0
2.27507e-18 -8.92125e-129 0
2.08108e-19 -5.19132e-127 0
1.75866e-20 -2.97406e-125 0
1.38564e-21 -1.6768e-123 0
1.02454e-22 -9.30033e-122 0
7.14457e-24 -5.07242e-120 0
4.71768e-25 -2.71916e-118 0
2.95955e-26 -1.43199e-116 0
1.76888e-27 -7.40462e-115 0
1.00976e-28 -3.75725e-113 0
5.51742e-30 -1.86969e-111 0
2.89133e-31 -9.11804e-110 0
1.4557e-32 -4.35451e-108 0
7.05271e-34 -2.0348e-106 0
3.29298e-35 -9.29489e-105 0
1.48375e-36 -4.14632e-103 0
6.45969e-38 -1.80415e-101 0
2.72051e-39 -7.64728e-100 0
1.10955e-40 -3.15297e-98 0
4.3867e-42 -1.26232e-96 0
1.68282e-43 -4.89773e-95 0
6.26952e-45 -1.83736e-93 0
2.27033e-46 -6.64634e-92 0
7.99733e-48 -2.31066e-90 0
2.74238e-49 -7.69007e-89 0
9.16098e-51 -2.43802e-87 0
2.98318e-52 -7.31776e-86 0
9.47584e-54 -2.06306e-84 0
2.93777e-55 -5.40613e-83 0
8.89464e-57 -1.29804e-81 0
2.63141e-58 -2.79807e-80 0
7.61073e-60 -5.25092e-79 0
2.15307e-61 -8.15836e-78 0
5.96071e-63 -9.56504e-77 0
1.65844e-64 -6.83397e-76 0
4.63821e-62 -3.13125e-73 0
0 -1.65114e-156 0
3.5247e-08 -1.20628e-154 0
2.24015e-07 -8.74049e-153 0
3.80167e-07 -5.94347e-151 0
2.33175e-07 -3.61215e-149 0
6.8614e-08 -1.94475e-147 0
1.29558e-08 -9.06636e-146 0
1.65292e-09 -3.13771e-144 0
6.69251e-11 -3.04895e-144 0
6.83205e-12 0 0
7.37786e-13 -3.48796e-137 0
8.34813e-14 -2.24325e-135 0
8.83826e-15 -1.40102e-133 0
8.77026e-16 -8.62922e-132 0
8.17166e-17 -5.24019e-130 0
7.16359e-18 -3.1365e-128 0
5.92124e-19 -1.84985e-126 0
4.62517e-20 -1.07468e-124 0
3.42176e-21 -6.14789e-123 0
2.40289e-22 -3.46195e-121 0
1.60508e-23 -1.9182e-119 0
1.02193e-24 -1.04536e-117 0
6.21347e-26 -5.60072e-116 0
3.61427e-27 -2.9486e-114 0
2.01474e-28 -1.5246e-112 0
1.078e-29 -7.73783e-111 0
5.54457e-31 -3.85243e-109 0
2.74523e-32 -1.88022e-107 0
1.31015e-33 -8.98908e-106 0
6.03437e-35 -4.20623e-104 0
2.68544e-36 -1.9246e-102 0
1.15597e-37 -8.60212e-101 0
4.81808e-39 -3.75127e-99 0
1.94633e-40 -1.59396e-97 0
7.62737e-42 -6.58927e-96 0
2.90218e-43 -2.64535e-94 0
1.07306e-44 -1.02923e-92 0
3.85839e-46 -3.87121e-91 0
1.3502e-47 -1.40347e-89 0
4.60148e-49 -4.88671e-88 0
1.52827e-50 -1.62683e-86 0
4.94967e-52 -5.14905e-85 0
1.5642e-53 -1.53816e-83 0
4.82611e-55 -4.29487e-82 0
1.45456e-56 -1.10604e-80 0
4.2847e-58 -2.57698e-79 0
1.2342e-59 -5.27531e-78 0
3.47806e-61 -9.03869e-77 0
9.59362e-63 -1.18317e-75 0
2.65969e-64 -9.52712e-75 0
7.54901e-62 -4.5201e-72 0
0 -2.45184e-155 0
4.17911e-08 -1.77986e-153 0
1.47062e-07 -1.29739e-151 0
1.74891e-07 -9.22514e-150 0
8.89523e-08 -6.48438e-148 0
2.5305e-08 -4.50536e-146 0
5.11683e-09 -3.09397e-144 0
8.14278e-10 -2.09973e-142 0
9.23555e-11 -1.40801e-140 0
9.96322e-12 -9.32753e-139 0
1.09604e-12 -6.10199e-137 0
1.1467e-13 -3.90634e-135 0
1.13882e-14 -2.46755e-133 0
1.07217e-15 -1.53787e-131 0
9.56369e-17 -9.45409e-130 0
8.08376e-18 -5.73138e-128 0
6.47947e-19 -3.42546e-126 0
4.93047e-20 -2.01777e-124 0
3.5666e-21 -1.17109e-122 0
2.45638e-22 -6.69466e-121 0
1.61324e-23 -3.76826e-119 0
1.01194e-24 -2.08768e-117 0
6.07232e-26 -1.13797e-115 0
3.49106e-27 -6.10029e-114 0
1.92578e-28 -3.2146e-112 0
1.02075e-29 -1.66434e-110 0
5.20564e-31 -8.46178e-109 0
2.5576e-32 -4.22207e-107 0
1.21205e-33 -2.06609e-105 0
5.54673e-35 -9.90875e-104 0
2.45389e-36 -4.65353e-102 0
1.05057e-37 -2.13819e-100 0
4.35682e-39 -9.60217e-99 0
1.75183e-40 -4.20962e-97 0
6.83555e-42 -1.79923e-95 0
2.59045e-43 -7.48563e-94 0
9.54208e-45 -3.02606e-92 0
3.41902e-46 -1.18604e-90 0
1.19251e-47 -4.49533e-89 0
4.05155e-49 -1.64245e-87 0
1.34171e-50 -5.76203e-86 0
4.33359e-52 -1.93125e-84 0
1.36597e-53 -6.14404e-83 0
4.20421e-55 -1.83922e-81 0
1.26419e-56 -5.11815e-80 0
3.71579e-58 -1.3009e-78 0
1.0681e-59 -2.93897e-77 0
3.00403e-61 -5.63693e-76 0
8.27051e-63 -8.40261e-75 0
2.28867e-64 -7.83081e-74 0
6.54317e-62 -3.8527e-71 0
0 0 0
1.63362e-08 0 0
3.99321e-08 0 0
3.79936e-08 0 0
1.76188e-08 0 0
5.0298e-09 0 0
1.06416e-09 0 0
1.82776e-10 0 0
2.54304e-11 0 0
3.13117e-12 0 0
3.58253e-13 0 0
3.83768e-14 0 0
3.86373e-15 0 0
3.66446e-16 0 0
3.27983e-17 0 0
2.77492e-18 0 0
2.22298e-19 0 0
1.68909e-20 0 0
1.21945e-21 0 0
8.37983e-23 0 0
5.49056e-24 0 0
3.43593e-25 0 0
2.05696e-26 0 0
1.1799e-27 0 0
6.49461e-29 0 0
3.4353e-30 0 0
1.74851e-31 0 0
8.57469e-33 0 0
4.05641e-34 0 0
1.85327e-35 0 0
8.18609e-37 0 0
3.49948e-38 0 0
1.44924e-39 0 0
5.81956e-41 0 0
2.26793e-42 0 0
8.58457e-44 0 0
3.15864e-45 0 0
1.13057e-46 0 0
3.93932e-48 0 0
1.33711e-49 0 0
4.42395e-51 0 0
1.42765e-52 0 0
4.49634e-54 0 0
1.38281e-55 0 0
4.15495e-57 0 0
1.22038e-58 0 0
3.50558e-60 0 0
9.85299e-62 0 0
2.71097e-63 0 0
7.49738e-65 0 0
2.14869e-62 0 0
0 0 -4.11436e-159
4.04745e-08 0 -3.0532e-157
8.10842e-08 0 -2.54067e-155
6.69712e-08 0 -1.82902e-153
2.88023e-08 0 -1.01351e-151
7.67769e-09 0 -4.06041e-150
1.56872e-09 0 -1.01584e-148
2.71046e-10 0 -8.68654e-149
4.13969e-11 0 -5.11545e-147
5.71155e-12 0 -3.10266e-145
7.20491e-13 0 -1.85182e-143
8.37381e-14 0 -1.08788e-141
9.0171e-15 0 -6.28862e-140
9.03723e-16 0 -3.57567e-138
8.46332e-17 0 -1.99898e-136
7.43232e-18 0 -1.09831e-134
6.14039e-19 0 -5.92788e-133
4.78691e-20 0 -3.1414e-131
3.53102e-21 0 -1.63368e-129
2.47081e-22 0 -8.33273e-128
1.64401e-23 0 -4.16602e-126
1.04241e-24 0 -2.04026e-124
6.31149e-26 0 -9.78089e-123
3.65593e-27 0 -4.58636e-121
2.02954e-28 0 -2.10183e-119
1.08153e-29 0 -9.40534e-118
5.54085e-31 0 -4.10558e-116
2.73294e-32 0 -1.74634e-114
1.29949e-33 0 -7.22972e-113
5.9641e-35 0 -2.90924e-111
2.64514e-36 0 -1.13623e-109
1.1349e-37 0 -4.30005e-108
4.71543e-39 0 -1.57397e-106
1.89914e-40 0 -5.5607e-105
7.42095e-42 0 -1.89164e-103
2.81583e-43 0 -6.17926e-102
1.03836e-44 0 -1.93217e-100
3.72415e-46 0 -5.76178e-99
1.30003e-47 0 -1.63142e-97
4.42014e-49 0 -4.36304e-96
1.46473e-50 0 -1.09512e-94
4.73363e-52 0 -2.55953e-93
1.49281e-53 0 -5.51545e-92
4.59665e-55 0 -1.08186e-90
1.38273e-56 0 -1.89911e-89
4.06559e-58 0 -2.91436e-88
1.169e-59 0 -3.7791e-87
3.28866e-61 0 -3.92773e-86
9.05614e-63 0 -2.98687e-85
2.50658e-64 0 -1.37818e-84
7.08619e-62 0 -5.24731e-82
0.0036 -2.11524e-158 -9.6561e-159
0.00456906 -2.92895e-154 -2.36794e-154
0.00342997 -4.38302e-152 -4.32425e-152
0.00162513 -6.21126e-150 -5.9923e-150
0.000492304 -5.66677e-148 -5.11165e-148
9.98889e-05 -3.25264e-146 -2.85073e-146
1.65293e-05 -1.20274e-144 -1.05682e-144
2.40617e-06 -2.0052e-145 -1.9738e-145
3.1762e-07 -1.07563e-143 -1.07602e-143
3.85404e-08 -6.66585e-142 -6.66618e-142
4.33125e-09 -4.05587e-140 -4.05588e-140
4.53068e-10 -2.42909e-138 -2.42909e-138
4.42842e-11 -1.43203e-136 -1.43203e-136
4.05801e-12 -8.3074e-135 -8.3074e-135
3.49674e-13 -4.74036e-133 -4.74036e-133
2.84128e-14 -2.65957e-131 -2.65957e-131
2.18275e-15 -1.46647e-129 -1.46647e-129
1.58928e-16 -7.94316e-128 -7.94316e-128
1.09926e-17 -4.22427e-126 -4.22427e-126
7.23852e-19 -2.20452e-124 -2.20452e-124
4.54695e-20 -1.12832e-122 -1.12832e-122
2.72982e-21 -5.66021e-121 -5.66021e-121
1.56913e-22 -2.78115e-119 -2.78115e-119
8.64991e-24 -1.3375e-117 -1.3375e-117
4.57998e-25 -6.29062e-116 -6.29062e-116
2.33261e-26 -2.89103e-114 -2.89103e-114
1.1443e-27 -1.29706e-112 -1.29706e-112
5.41382e-29 -5.67505e-111 -5.67505e-111
2.47319e-30 -2.4187e-109 -2.4187e-109
1.09216e-31 -1.00288e-107 -1.00288e-107
4.66716e-33 -4.0398e-106 -4.0398e-106
1.93191e-34 -1.57844e-104 -1.57844e-104
7.75356e-36 -5.9715e-103 -5.9715e-103
3.01981e-37 -2.18299e-101 -2.18299e-101
1.14232e-38 -7.69368e-100 -7.69368e-100
4.20024e-40 -2.60725e-98 -2.60725e-98
1.50233e-41 -8.46968e-97 -8.46968e-97
5.2309e-43 -2.62799e-95 -2.62799e-95
1.7742e-44 -7.7554e-94 -7.7554e-94
5.86578e-46 -2.16566e-92 -2.16566e-92
1.89155e-47 -5.68697e-91 -5.68697e-91
5.95294e-49 -1.39359e-89 -1.39359e-89
1.82943e-50 -3.15596e-88 -3.15596e-88
5.49292e-52 -6.52247e-87 -6.52247e-87
1.6122e-53 -1.20975e-85 -1.20975e-85
4.6278e-55 -1.96746e-84 -1.96746e-84
1.29981e-56 -2.71234e-83 -2.71234e-83
3.57378e-58 -3.00628e-82 -3.00628e-82
9.62317e-60 -2.44307e-81 -2.44307e-81
2.60433e-61 -1.20072e-80 -1.20072e-80
2.59517e-61 -1.9638e-80 -1.9638e-80
0.01 -1.90335e-157 -1.84868e-159
0.0109348 -1.82088e-153 -3.33253e-154
0.00907804 -2.12522e-151 6.45853e-153
0.00494686 -6.36294e-149 -5.01135e-149
0.0015818 -1.2402e-146 -1.10123e-146
0.000259225 -1.18779e-144 -1.03252e-144
3.65568e-05 -8.65549e-143 -7.59291e-143
4.75697e-06 -2.94919e-144 -2.86575e-144
5.83085e-07 -1.28229e-142 -1.28489e-142
6.73285e-08 -8.15941e-141 -8.16169e-141
7.31628e-09 -5.0235e-139 -5.02363e-139
7.47851e-10 -3.03943e-137 -3.03943e-137
7.19339e-11 -1.81044e-135 -1.81044e-135
6.51777e-12 -1.06152e-133 -1.06152e-133
5.57147e-13 -6.12428e-132 -6.12428e-132
4.50118e-14 -3.47534e-130 -3.47534e-130
3.44364e-15 -1.93897e-128 -1.93897e-128
2.49982e-16 -1.06311e-126 -1.06311e-126
1.72531e-17 -5.72549e-125 -5.72549e-125
1.13431e-18 -3.02726e-123 -3.02726e-123
7.11728e-20 -1.57054e-121 -1.57054e-121
4.26956e-21 -7.99012e-120 -7.99012e-120
2.45284e-22 -3.98367e-118 -3.98367e-118
1.35166e-23 -1.94508e-116 -1.94508e-116
7.15525e-25 -9.29367e-115 -9.29367e-115
3.64383e-26 -4.34186e-113 -4.34186e-113
1.78749e-27 -1.98159e-111 -1.98159e-111
8.45718e-29 -8.82609e-110 -8.82609e-110
3.86382e-30 -3.83237e-108 -3.83237e-108
1.70648e-31 -1.62026e-106 -1.62026e-106
7.29344e-33 -6.66097e-105 -6.66097e-105
3.01955e-34 -2.65868e-103 -2.65868e-103
1.2121e-35 -1.02857e-101 -1.02857e-101
4.72173e-37 -3.84947e-100 -3.84947e-100
1.78648e-38 -1.39062e-98 -1.39062e-98
6.57016e-40 -4.83675e-97 -4.83675e-97
2.3505e-41 -1.61493e-95 -1.61493e-95
8.18585e-43 -5.15825e-94 -5.15825e-94
2.77704e-44 -1.56969e-92 -1.56969e-92
9.18327e-46 -4.52834e-91 -4.52834e-91
2.96196e-47 -1.23101e-89 -1.23101e-89
9.32359e-49 -3.12987e-88 -3.12987e-88
2.86586e-50 -7.37258e-87 -7.37258e-87
8.60654e-52 -1.58927e-85 -1.58927e-85
2.52655e-53 -3.08398e-84 -3.08398e-84
7.25383e-55 -5.26522e-83 -5.26522e-83
2.03776e-56 -7.64796e-82 -7.64796e-82
5.60378e-58 -8.96526e-81 -8.96526e-81
1.50921e-59 -7.72976e-80 -7.72976e-80
4.0851e-61 -4.02541e-79 -4.02541e-79
4.07076e-61 -6.65621e-79 -6.65621e-79
0.0148 -8.79911e-159 1.52247e-158
0.016695 -6.59118e-155 -3.14895e-154
0.0158561 -6.73278e-153 6.77776e-152
0.0106347 -8.51714e-151 -4.63305e-149
0.00389034 -1.66969e-148 -1.04989e-146
0.000178948 -1.66123e-148 -1.00456e-144
2.3538e-05 0 -7.48866e-143
2.89404e-06 6.16961e-141 5.32669e-141
3.75555e-07 -1.20267e-141 -1.21989e-141
4.53704e-08 -8.68421e-140 -8.69963e-140
5.11353e-09 -5.47338e-138 -5.47433e-138
5.38562e-10 -3.35033e-136 -3.35033e-136
5.3104e-11 -2.01716e-134 -2.01716e-134
4.91281e-12 -1.1959e-132 -1.1959e-132
4.27427e-13 -6.97904e-131 -6.97904e-131
3.50573e-14 -4.00756e-129 -4.00756e-129
2.71729e-15 -2.26346e-127 -2.26346e-127
1.99511e-16 -1.25687e-125 -1.25687e-125
1.39079e-17 -6.85851e-124 -6.85851e-124
9.2249e-19 -3.67606e-122 -3.67606e-122
5.83387e-20 -1.93428e-120 -1.93428e-120
3.52437e-21 -9.98607e-119 -9.98607e-119
2.0376e-22 -5.05527e-117 -5.05527e-117
1.12929e-23 -2.50774e-115 -2.50774e-115
6.00933e-25 -1.21814e-113 -1.21814e-113
3.07484e-26 -5.78963e-112 -5.78963e-112
1.51495e-27 -2.69011e-110 -2.69011e-110
7.19648e-29 -1.22081e-108 -1.22081e-108
3.30001e-30 -5.40552e-107 -5.40552e-107
1.46245e-31 -2.33257e-105 -2.33257e-105
6.27032e-33 -9.79685e-104 -9.79685e-104
2.60363e-34 -3.99914e-102 -3.99914e-102
1.04801e-35 -1.58407e-100 -1.58407e-100
4.09305e-37 -6.07726e-99 -6.07726e-99
1.55235e-38 -2.25349e-97 -2.25349e-97
5.72199e-40 -8.05679e-96 -8.05679e-96
2.05141e-41 -2.7695e-94 -2.7695e-94
7.15853e-43 -9.12286e-93 -9.12286e-93
2.43311e-44 -2.86838e-91 -2.86838e-91
8.06029e-46 -8.56748e-90 -8.56748e-90
2.60414e-47 -2.41687e-88 -2.41687e-88
8.21038e-49 -6.39286e-87 -6.39286e-87
2.52751e-50 -1.57103e-85 -1.57103e-85
7.60139e-52 -3.54423e-84 -3.54423e-84
2.23454e-53 -7.22295e-83 -7.22295e-83
6.42383e-55 -1.30016e-81 -1.30016e-81
1.80684e-56 -1.99973e-80 -1.99973e-80
4.97466e-58 -2.49353e-79 -2.49353e-79
1.34129e-59 -2.29619e-78 -2.29619e-78
3.63464e-61 -1.27656e-77 -1.27656e-77
3.62183e-61 -2.1357e-77 -2.1357e-77
0.018 -3.08274e-160 7.73971e-157
0.020382 -7.73477e-157 -8.73961e-153
0.0209131 -2.31611e-154 1.09581e-150
0.0168583 -4.09961e-153 -1.40751e-148
0.00725876 -2.24422e-150 1.6172e-146
0 -2.24035e-150 1.63139e-146
0 0 0
0 0 5.32937e-141
3.50726e-08 -4.48616e-139 -3.88076e-139
7.84016e-09 -7.26896e-139 -7.37071e-139
1.19604e-09 -5.1306e-137 -5.13741e-137
1.51791e-10 -3.20423e-135 -3.20423e-135
1.70035e-11 -1.95064e-133 -1.95064e-133
1.7264e-12 -1.16974e-131 -1.16974e-131
1.61239e-13 -6.90746e-130 -6.90746e-130
1.39847e-14 -4.01521e-128 -4.01521e-128
1.13405e-15 -2.29665e-126 -2.29665e-126
8.64302e-17 -1.29212e-124 -1.29212e-124
6.21685e-18 -7.14732e-123 -7.14732e-123
4.23516e-19 -3.88524e-121 -3.88524e-121
2.74076e-20 -2.07449e-119 -2.07449e-119
1.68936e-21 -1.0874e-117 -1.0874e-117
9.94116e-23 -5.59256e-116 -5.59256e-116
5.5967e-24 -2.82032e-114 -2.82032e-114
3.02019e-25 -1.39368e-112 -1.39368e-112
1.56494e-26 -6.74348e-111 -6.74348e-111
7.79857e-28 -3.19237e-109 -3.19237e-109
3.74304e-29 -1.47729e-107 -1.47729e-107
1.73267e-30 -6.67604e-106 -6.67604e-106
7.74525e-32 -2.94308e-104 -2.94308e-104
3.3473e-33 -1.26413e-102 -1.26413e-102
1.40014e-34 -5.28323e-101 -5.28323e-101
5.67426e-36 -2.14517e-99 -2.14517e-99
2.23012e-37 -8.44744e-98 -8.44744e-98
8.50786e-39 -3.21977e-96 -3.21977e-96
3.15325e-40 -1.18512e-94 -1.18512e-94
1.1363e-41 -4.20125e-93 -4.20125e-93
3.98428e-43 -1.42988e-91 -1.42988e-91
1.36034e-44 -4.65478e-90 -4.65478e-90
4.52569e-46 -1.44279e-88 -1.44279e-88
1.46805e-47 -4.23444e-87 -4.23444e-87
4.64603e-49 -1.16859e-85 -1.16859e-85
1.43538e-50 -3.0058e-84 -3.0058e-84
4.33152e-52 -7.1229e-83 -7.1229e-83
1.27742e-53 -1.53096e-81 -1.53096e-81
3.68356e-55 -2.91969e-80 -2.91969e-80
1.0391e-56 -4.78214e-79 -4.78214e-79
2.86881e-58 -6.38535e-78 -6.38535e-78
7.75549e-60 -6.32982e-77 -6.32982e-77
2.10701e-61 -3.79115e-76 -3.79115e-76
2.0995e-61 -6.42233e-76 -6.42233e-76
0.0196 -5.09768e-161 -8.44971e-156
0.0221062 -3.39977e-157 8.58075e-152
0.0231683 -3.65864e-155 -6.53088e-150
0.0206559 -1.52903e-153 5.67547e-148
0.010076 -2.96424e-151 -4.09506e-146
0.00106019 -2.94931e-151 1.39621e-143
0 0 1.40037e-143
0 0 0
0 0 -3.86974e-139
6.66577e-10 3.14537e-137 2.63991e-137
1.63661e-10 -3.75299e-136 -3.80091e-136
2.65409e-11 -2.58764e-134 -2.58765e-134
3.50277e-12 -1.59334e-132 -1.59334e-132
4.01589e-13 -9.66778e-131 -9.66778e-131
4.12457e-14 -5.77881e-129 -5.77881e-129
3.86313e-15 -3.40172e-127 -3.40172e-127
3.33856e-16 -1.9713e-125 -1.9713e-125
2.68467e-17 -1.12419e-123 -1.12419e-123
2.02168e-18 -6.30635e-122 -6.30635e-122
1.43298e-19 -3.47845e-120 -3.47845e-120
9.60045e-21 -1.88564e-118 -1.88564e-118
6.10099e-22 -1.00412e-116 -1.00412e-116
3.6888e-23 -5.24966e-115 -5.24966e-115
2.12762e-24 -2.69305e-113 -2.69305e-113
1.1734e-25 -1.35473e-111 -1.35473e-111
6.20083e-27 -6.67822e-110 -6.67822e-110
3.14571e-28 -3.22359e-108 -3.22359e-108
1.5346e-29 -1.52242e-106 -1.52242e-106
7.21035e-31 -7.02831e-105 -7.02831e-105
3.26754e-32 -3.16848e-103 -3.16848e-103
1.43008e-33 -1.3933e-101 -1.3933e-101
6.05204e-35 -5.9688e-100 -5.9688e-100
2.47935e-36 -2.48747e-98 -2.48747e-98
9.84291e-38 -1.00683e-96 -1.00683e-96
3.79042e-39 -3.95065e-95 -3.95065e-95
1.41719e-40 -1.49957e-93 -1.49957e-93
5.149e-42 -5.49239e-92 -5.49239e-92
1.81938e-43 -1.93538e-90 -1.93538e-90
6.25693e-45 -6.53802e-89 -6.53802e-89
2.09582e-46 -2.10835e-87 -2.10835e-87
6.84222e-48 -6.45613e-86 -6.45613e-86
2.17858e-49 -1.86496e-84 -1.86496e-84
6.76943e-51 -5.03929e-83 -5.03929e-83
2.05393e-52 -1.25967e-81 -1.25967e-81
6.08863e-54 -2.86938e-80 -2.86938e-80
1.76434e-55 -5.83066e-79 -5.83066e-79
5.0003e-57 -1.02381e-77 -1.02381e-77
1.38666e-58 -1.47559e-76 -1.47559e-76
3.76457e-60 -1.58986e-75 -1.58986e-75
1.027e-61 -1.03762e-74 -1.03762e-74
1.02328e-61 -1.78138e-74 -1.78138e-74
0.0196 -1.53045e-159 -7.95729e-156
0.0221038 -2.13771e-155 8.03287e-152
0.0231609 -1.55279e-153 -6.13326e-150
0.0206323 -1.78548e-151 5.38887e-148
0.0102049 -1.98009e-149 -3.93049e-146
0.00212066 -7.12449e-148 -3.52995e-145
0.000122744 -6.92825e-148 -1.40784e-141
0 0 -1.40753e-141
0 0 0
0 0 2.70567e-137
1.26682e-11 -2.60622e-135 -2.58332e-135
6.4999e-12 -1.69636e-133 -1.69641e-133
1.3195e-12 -1.057e-131 -1.057e-131
1.90953e-13 -6.49141e-130 -6.49141e-130
2.26892e-14 -3.92902e-128 -3.92902e-128
2.34673e-15 -2.34302e-126 -2.34302e-126
2.17824e-16 -1.37617e-124 -1.37617e-124
1.84807e-17 -7.95825e-123 -7.95825e-123
1.45069e-18 -4.52952e-121 -4.52952e-121
1.06276e-19 -2.53632e-119 -2.53632e-119
7.31325e-21 -1.39664e-117 -1.39664e-117
4.75136e-22 -7.55962e-116 -7.55962e-116
2.92648e-23 -4.02006e-114 -4.02006e-114
1.71467e-24 -2.09919e-112 -2.09919e-112
9.585e-26 -1.07574e-110 -1.07574e-110
5.12474e-27 -5.40664e-109 -5.40664e-109
2.62651e-28 -2.66324e-107 -2.66324e-107
1.2929e-29 -1.28478e-105 -1.28478e-105
6.12344e-31 -6.0649e-104 -6.0649e-104
2.79483e-32 -2.79892e-102 -2.79892e-102
1.23104e-33 -1.26149e-100 -1.26149e-100
5.23991e-35 -5.54622e-99 -5.54622e-99
2.15791e-36 -2.37556e-97 -2.37556e-97
8.60773e-38 -9.89787e-96 -9.89787e-96
3.32923e-39 -4.00482e-94 -4.00482e-94
1.24974e-40 -1.57047e-92 -1.57047e-92
4.55734e-42 -5.95497e-91 -5.95497e-91
1.61579e-43 -2.17742e-89 -2.17742e-89
5.5743e-45 -7.65237e-88 -7.65237e-88
1.87262e-46 -2.57464e-86 -2.57464e-86
6.13019e-48 -8.25221e-85 -8.25221e-85
1.95682e-49 -2.50427e-83 -2.50427e-83
6.09481e-51 -7.13842e-82 -7.13842e-82
1.85336e-52 -1.89139e-80 -1.89139e-80
5.50552e-54 -4.59194e-79 -4.59194e-79
1.5985e-55 -1.00088e-77 -1.00088e-77
4.53869e-57 -1.89921e-76 -1.89921e-76
1.26085e-58 -2.98346e-75 -2.98346e-75
3.42866e-60 -3.53584e-74 -3.53584e-74
9.36858e-62 -2.55172e-73 -2.55172e-73
9.33462e-62 -4.44387e-73 -4.44387e-73
0.018 -5.24844e-158 3.24818e-156
0.0203557 -1.13928e-153 -4.4154e-152
0.0208432 -1.07513e-151 5.02989e-150
0.0167635 -1.29496e-149 -6.18604e-148
0.00742579 -1.07102e-147 1.07693e-145
0.00165243 -5.09759e-146 2.88151e-144
0.000209824 -1.51433e-144 1.51654e-143
8.70638e-06 -1.46441e-144 1.03547e-139
0 0 1.03535e-139
0 0 0
0 -1.30814e-134 -1.30415e-134
4.14185e-11 -8.49107e-133 -8.49067e-133
7.21384e-12 -5.35309e-131 -5.35309e-131
8.95279e-13 -3.32844e-129 -3.32844e-129
9.38682e-14 -2.04058e-127 -2.04058e-127
8.77658e-15 -1.23317e-125 -1.23317e-125
7.50174e-16 -7.34369e-124 -7.34369e-124
5.94407e-17 -4.30815e-122 -4.30815e-122
4.40532e-18 -2.48888e-120 -2.48888e-120
3.07312e-19 -1.41545e-118 -1.41545e-118
2.02749e-20 -7.92136e-117 -7.92136e-117
1.26988e-21 -4.36048e-115 -4.36048e-115
7.5744e-23 -2.35997e-113 -2.35997e-113
4.31389e-24 -1.25518e-111 -1.25518e-111
2.3514e-25 -6.557e-110 -6.557e-110
1.22915e-26 -3.36248e-108 -3.36248e-108
6.17295e-28 -1.69161e-106 -1.69161e-106
2.98335e-29 -8.34313e-105 -8.34313e-105
1.3896e-30 -4.03109e-103 -4.03109e-103
6.24654e-32 -1.90642e-101 -1.90642e-101
2.71335e-33 -8.81692e-100 -8.81692e-100
1.14023e-34 -3.98348e-98 -3.98348e-98
4.64061e-36 -1.75609e-96 -1.75609e-96
1.831e-37 -7.54371e-95 -7.54371e-95
7.01047e-39 -3.15292e-93 -3.15292e-93
2.60696e-40 -1.27984e-91 -1.27984e-91
9.42357e-42 -5.03506e-90 -5.03506e-90
3.31383e-43 -1.91509e-88 -1.91509e-88
1.13449e-44 -7.0213e-87 -7.0213e-87
3.78387e-46 -2.47243e-85 -2.47243e-85
1.23033e-47 -8.32457e-84 -8.32457e-84
3.90242e-49 -2.66489e-82 -2.66489e-82
1.20819e-50 -8.05192e-81 -8.05192e-81
3.65317e-52 -2.27408e-79 -2.27408e-79
1.07939e-53 -5.92362e-78 -5.92362e-78
3.11807e-55 -1.39602e-76 -1.39602e-76
8.81064e-57 -2.89055e-75 -2.89055e-75
2.43641e-58 -5.00905e-74 -5.00905e-74
6.59661e-60 -6.63016e-73 -6.63016e-73
1.79484e-61 -5.3946e-72 -5.3946e-72
1.78846e-61 -9.54002e-72 -9.54002e-72
0.0148 -2.56553e-156 2.13217e-156
0.0164863 -6.12581e-152 -3.52965e-152
0.0154971 -5.95667e-150 3.54384e-150
0.0103584 -5.41012e-148 -1.6635e-147
0.0038749 -3.87057e-146 -1.45599e-145
0.000829926 -2.2116e-144 -4.10401e-144
0.000125866 -1.05796e-142 -1.2222e-142
1.3946e-05 -3.73423e-141 -3.80981e-141
5.04564e-07 -3.63061e-141 -7.35676e-138
4.71145e-08 0 -5.05628e-136
4.63769e-09 -4.41586e-134 -4.46563e-134
4.76538e-10 -2.89929e-132 -2.89929e-132
4.60785e-11 -1.85005e-130 -1.85005e-130
4.19749e-12 -1.16483e-128 -1.16483e-128
3.6075e-13 -7.23486e-127 -7.23486e-127
2.93021e-14 -4.43169e-125 -4.43169e-125
2.25363e-15 -2.67649e-123 -2.67649e-123
1.64439e-16 -1.59328e-121 -1.59328e-121
1.14056e-17 -9.34581e-120 -9.34581e-120
7.53439e-19 -5.40009e-118 -5.40009e-118
4.74903e-20 -3.07251e-116 -3.07251e-116
2.86126e-21 -1.72081e-114 -1.72081e-114
1.65058e-22 -9.48313e-113 -9.48313e-113
9.13142e-24 -5.13998e-111 -5.13998e-111
4.85195e-25 -2.73881e-109 -2.73881e-109
2.47963e-26 -1.43396e-107 -1.43396e-107