# vtk DataFile Version 2.0
Tobias Weinzierl: CPU, Manycore and Cluster Computing
ASCII

DATASET STRUCTURED_POINTS
DIMENSIONS  51 11 6

ORIGIN 0 0 0 

SPACING 0.1 0.1 0.1 

POINT_DATA 3366

VECTORS velocity float
0 0 0
1.72995e-10 0 0
-3.28885e-07 0 0
-4.57463e-07 0 0
-3.85385e-07 0 0
-1.20754e-07 0 0
-1.20083e-07 0 0
-2.16714e-07 0 0
-3.16381e-07 0 0
-3.73473e-07 0 0
-3.81951e-07 0 0
-3.72656e-07 0 0
-3.64136e-07 0 0
-3.60549e-07 0 0
-3.61145e-07 0 0
-3.64038e-07 0 0
-3.67573e-07 0 0
-3.70808e-07 0 0
-3.73381e-07 0 0
-3.75252e-07 0 0
-3.7651e-07 0 0
-3.77272e-07 0 0
-3.77637e-07 0 0
-3.77668e-07 0 0
-3.77389e-07 0 0
-3.76789e-07 0 0
-3.75818e-07 0 0
-3.74384e-07 0 0
-3.72352e-07 0 0
-3.69537e-07 0 0
-3.65698e-07 0 0
-3.60547e-07 0 0
-3.53769e-07 0 0
-3.45065e-07 0 0
-3.34198e-07 0 0
-3.21026e-07 0 0
-3.05519e-07 0 0
-2.87794e-07 0 0
-2.68159e-07 0 0
-2.47134e-07 0 0
-2.25416e-07 0 0
-2.0379e-07 0 0
-1.83026e-07 0 0
-1.63797e-07 0 0
-1.46628e-07 0 0
-1.31884e-07 0 0
-1.19782e-07 0 0
-1.10434e-07 0 0
-1.03916e-07 0 0
-1.00525e-07 0 0
0.0018846 0 0
0 4.20619e-07 0
4.50931e-10 2.0219e-07 0
-6.51567e-07 2.98051e-07 0
-8.91674e-07 1.43534e-07 0
-6.89683e-07 2.92778e-08 0
-2.05791e-07 5.90733e-08 0
-1.5163e-07 1.74275e-07 0
-2.70541e-07 1.66783e-07 0
-3.80969e-07 1.11752e-07 0
-4.8216e-07 5.33949e-08 0
-5.12103e-07 1.1956e-08 0
-5.23046e-07 -8.99366e-11 0
-5.40213e-07 7.07214e-10 0
-5.61349e-07 3.77031e-09 0
-5.82751e-07 6.13439e-09 0
-6.01865e-07 6.99354e-09 0
-6.17266e-07 6.56116e-09 0
-6.2874e-07 5.45527e-09 0
-6.368e-07 4.17355e-09 0
-6.42192e-07 2.97904e-09 0
-6.45615e-07 1.9622e-09 0
-6.47613e-07 1.11881e-09 0
-6.48564e-07 4.01964e-10 0
-6.48693e-07 -2.50834e-10 0
-6.48103e-07 -9.06758e-10 0
-6.46796e-07 -1.63563e-09 0
-6.44679e-07 -2.5121e-09 0
-6.41571e-07 -3.61908e-09 0
-6.37197e-07 -5.0499e-09 0
-6.3118e-07 -6.90618e-09 0
-6.23036e-07 -9.28675e-09 0
-6.12186e-07 -1.22634e-08 0
-5.98007e-07 -1.58455e-08 0
-5.79927e-07 -1.99523e-08 0
-5.57546e-07 -2.4416e-08 0
-5.30705e-07 -2.90105e-08 0
-4.99492e-07 -3.34626e-08 0
-4.64268e-07 -3.74421e-08 0
-4.25739e-07 -4.05799e-08 0
-3.84986e-07 -4.25352e-08 0
-3.43383e-07 -4.30804e-08 0
-3.02403e-07 -4.21539e-08 0
-2.63428e-07 -3.98542e-08 0
-2.2763e-07 -3.63948e-08 0
-1.95901e-07 -3.20498e-08 0
-1.68827e-07 -2.70953e-08 0
-1.46734e-07 -2.17627e-08 0
-1.29759e-07 -1.62027e-08 0
-1.17968e-07 -1.03478e-08 0
-1.11749e-07 -3.90314e-09 0
0.00459447 -3.36473e-06 0
0 5.86776e-08 0
6.18945e-10 2.62566e-07 0
-5.74342e-07 3.38328e-07 0
-7.6575e-07 1.11603e-07 0
-3.97961e-07 4.69474e-08 0
-1.74229e-07 7.60444e-08 0
-2.4375e-07 1.3192e-07 0
-3.56513e-07 4.35236e-08 0
-2.97361e-07 -1.73222e-09 0
-2.82809e-07 5.68827e-08 0
-2.77469e-07 8.77876e-08 0
-2.88093e-07 1.09312e-07 0
-3.21686e-07 1.03334e-07 0
-3.57127e-07 8.1261e-08 0
-3.88946e-07 5.9622e-08 0
-4.15024e-07 4.26059e-08 0
-4.34564e-07 2.98021e-08 0
-4.48203e-07 2.03883e-08 0
-4.57237e-07 1.36164e-08 0
-4.62968e-07 8.81913e-09 0
-4.66438e-07 5.42616e-09 0
-4.6838e-07 2.97568e-09 0
-4.69262e-07 1.10757e-09 0
-4.69353e-07 -4.5622e-10 0
-4.68776e-07 -1.93623e-09 0
-4.67542e-07 -3.51925e-09 0
-4.65575e-07 -5.3786e-09 0
-4.6271e-07 -7.6893e-09 0
-4.58698e-07 -1.06363e-08 0
-4.53188e-07 -1.44123e-08 0
-4.45718e-07 -1.91966e-08 0
-4.35712e-07 -2.51068e-08 0
-4.22503e-07 -3.2121e-08 0
-4.05456e-07 -4.00061e-08 0
-3.84145e-07 -4.83291e-08 0
-3.58485e-07 -5.65618e-08 0
-3.28677e-07 -6.41584e-08 0
-2.95171e-07 -7.05483e-08 0
-2.58768e-07 -7.51534e-08 0
-2.20653e-07 -7.74961e-08 0
-1.82273e-07 -7.73342e-08 0
-1.45063e-07 -7.47154e-08 0
-1.10219e-07 -6.99086e-08 0
-7.86824e-08 -6.33078e-08 0
-5.11194e-08 -5.53713e-08 0
-2.78953e-08 -4.65459e-08 0
-9.13011e-09 -3.7191e-08 0
5.21001e-09 -2.75307e-08 0
1.52169e-08 -1.75602e-08 0
2.06925e-08 -6.95228e-09 0
0.00549618 -7.16934e-06 0
0 -4.66945e-07 0
6.99455e-10 1.64532e-07 0
-5.006e-07 1.02726e-07 0
-7.1427e-07 -1.74662e-07 0
-3.10423e-07 -7.58057e-08 0
-8.92192e-08 3.54805e-08 0
-2.10351e-07 3.49252e-10 0
-3.02663e-07 -2.55961e-07 0
-5.77145e-07 -4.22114e-07 0
-4.94657e-07 -1.82907e-07 0
-4.23497e-07 5.09838e-08 0
-3.83275e-07 1.66175e-07 0
-3.6653e-07 1.75534e-07 0
-3.56684e-07 1.3589e-07 0
-3.56882e-07 9.65288e-08 0
-3.62938e-07 6.65455e-08 0
-3.69839e-07 4.48154e-08 0
-3.7536e-07 2.95452e-08 0
-3.79141e-07 1.90803e-08 0
-3.81505e-07 1.20041e-08 0
-3.82869e-07 7.19975e-09 0
-3.83555e-07 3.84001e-09 0
-3.83767e-07 1.3326e-09 0
-3.83608e-07 -7.46688e-10 0
-3.83108e-07 -2.71432e-09 0
-3.82239e-07 -4.82714e-09 0
-3.80922e-07 -7.31839e-09 0
-3.79022e-07 -1.04232e-08 0
-3.76333e-07 -1.43941e-08 0
-3.72557e-07 -1.95038e-08 0
-3.67263e-07 -2.60255e-08 0
-3.59842e-07 -3.41706e-08 0
-3.49469e-07 -4.39606e-08 0
-3.352e-07 -5.50666e-08 0
-3.16275e-07 -6.67771e-08 0
-2.92443e-07 -7.82126e-08 0
-2.6386e-07 -8.85404e-08 0
-2.30947e-07 -9.6959e-08 0
-1.94602e-07 -1.02682e-07 0
-1.56294e-07 -1.05102e-07 0
-1.1787e-07 -1.04012e-07 0
-8.10337e-08 -9.96686e-08 0
-4.69732e-08 -9.25804e-08 0
-1.65525e-08 -8.33186e-08 0
9.66426e-09 -7.25002e-08 0
3.14709e-08 -6.0716e-08 0
4.89337e-08 -4.84231e-08 0
6.22603e-08 -3.58838e-08 0
7.16799e-08 -2.3031e-08 0
7.70068e-08 -9.39601e-09 0
0.00551326 -1.043e-05 0
0 -8.91621e-07 0
6.56749e-10 3.70639e-08 0
-5.23854e-07 -8.38388e-08 0
-7.98582e-07 -2.36149e-07 0
-5.23884e-07 -1.22e-07 0
-3.48737e-10 -7.53709e-09 0
2.89982e-08 2.37694e-08 0
-2.28519e-08 2.61656e-08 0
-3.44348e-07 -2.3809e-07 0
-5.82002e-07 -3.35745e-07 0
-5.13293e-07 -6.14298e-08 0
-5.02788e-07 1.1509e-07 0
-4.80338e-07 1.48802e-07 0
-4.37889e-07 1.19981e-07 0
-4.06563e-07 8.92332e-08 0
-3.89483e-07 6.34928e-08 0
-3.80827e-07 4.31312e-08 0
-3.76313e-07 2.82811e-08 0
-3.73803e-07 1.8075e-08 0
-3.72318e-07 1.12431e-08 0
-3.71391e-07 6.64124e-09 0
-3.70777e-07 3.40937e-09 0
-3.70327e-07 9.44658e-10 0
-3.6994e-07 -1.17477e-09 0
-3.69536e-07 -3.26226e-09 0
-3.69043e-07 -5.5783e-09 0
-3.68376e-07 -8.37095e-09 0
-3.67424e-07 -1.19051e-08 0
-3.66025e-07 -1.64827e-08 0
-3.63926e-07 -2.2454e-08 0
-3.60728e-07 -3.02084e-08 0
-3.55779e-07 -4.01181e-08 0
-3.48037e-07 -5.23662e-08 0
-3.36034e-07 -6.66304e-08 0
-3.18339e-07 -8.18782e-08 0
-2.94366e-07 -9.67072e-08 0
-2.64319e-07 -1.09883e-07 0
-2.28658e-07 -1.20345e-07 0
-1.88533e-07 -1.27076e-07 0
-1.45961e-07 -1.29305e-07 0
-1.03627e-07 -1.26912e-07 0
-6.37888e-08 -1.20557e-07 0
-2.75876e-08 -1.11118e-07 0
4.19878e-09 -9.93276e-08 0
3.10909e-08 -8.5934e-08 0
5.3072e-08 -7.16576e-08 0
7.04387e-08 -5.70233e-08 0
8.35979e-08 -4.22908e-08 0
9.29207e-08 -2.72903e-08 0
9.82711e-08 -1.1302e-08 0
0.00535708 -1.28508e-05 0
0 -7.90432e-07 0
6.56224e-10 -3.7396e-08 0
-5.32023e-07 -1.30978e-07 0
-8.37981e-07 -2.02402e-07 0
-6.62684e-07 -1.99746e-07 0
-2.1024e-07 -9.08657e-08 0
2.76567e-08 -2.65786e-08 0
3.73217e-09 -3.73217e-09 0
-2.16084e-08 2.40951e-08 0
-2.61443e-07 -1.32627e-07 0
-3.76657e-07 -8.45838e-08 0
-5.22428e-07 1.42627e-07 0
-5.76202e-07 1.52477e-07 0
-5.23399e-07 9.70484e-08 0
-4.62031e-07 6.37904e-08 0
-4.21819e-07 4.3084e-08 0
-3.9893e-07 2.84069e-08 0
-3.86203e-07 1.83378e-08 0
-3.79057e-07 1.17018e-08 0
-3.74988e-07 7.32581e-09 0
-3.72652e-07 4.31269e-09 0
-3.7131e-07 2.06017e-09 0
-3.7055e-07 1.74152e-10 0
-3.7014e-07 -1.61965e-09 0
-3.69943e-07 -3.5398e-09 0
-3.69876e-07 -5.79218e-09 0
-3.69876e-07 -8.60035e-09 0
-3.69877e-07 -1.22296e-08 0
-3.69782e-07 -1.70079e-08 0
-3.69417e-07 -2.3344e-08 0
-3.68464e-07 -3.17375e-08 0
-3.66312e-07 -4.27573e-08 0
-3.61772e-07 -5.68816e-08 0
-3.52728e-07 -7.40076e-08 0
-3.36563e-07 -9.28421e-08 0
-3.1195e-07 -1.11233e-07 0
-2.79327e-07 -1.27351e-07 0
-2.39322e-07 -1.39884e-07 0
-1.93467e-07 -1.47591e-07 0
-1.44406e-07 -1.49397e-07 0
-9.63385e-08 -1.45243e-07 0
-5.24351e-08 -1.36544e-07 0
-1.3445e-08 -1.24762e-07 0
2.00611e-08 -1.10697e-07 0
4.77373e-08 -9.51593e-08 0
6.98547e-08 -7.89731e-08 0
8.70253e-08 -6.26913e-08 0
9.99044e-08 -4.65211e-08 0
1.09021e-07 -3.01462e-08 0
1.14288e-07 -1.25512e-08 0
0.00514059 -1.42661e-05 0
0 -5.61912e-07 0
6.93804e-10 -8.67965e-08 0
-5.03814e-07 -1.85382e-07 0
-8.263e-07 -1.56468e-07 0
-6.98626e-07 -1.12251e-07 0
-4.57722e-07 -1.63143e-07 0
-2.06235e-07 -1.08812e-07 0
2.77531e-08 -2.54035e-08 0
3.80069e-09 -3.80069e-09 0
-2.1041e-08 2.2175e-08 0
-1.39518e-07 1.65921e-07 0
-5.1076e-07 3.19343e-07 0
-7.10765e-07 2.01768e-07 0
-6.31783e-07 5.89111e-08 0
-5.11332e-07 1.54798e-08 0
-4.39961e-07 7.32753e-09 0
-4.05658e-07 5.26636e-09 0
-3.89418e-07 4.18261e-09 0
-3.81406e-07 3.35743e-09 0
-3.77275e-07 2.55454e-09 0
-3.75081e-07 1.6689e-09 0
-3.73921e-07 6.65083e-10 0
-3.73364e-07 -4.80715e-10 0
-3.73204e-07 -1.81478e-09 0
-3.73348e-07 -3.42019e-09 0
-3.73762e-07 -5.42383e-09 0
-3.74442e-07 -8.00456e-09 0
-3.75391e-07 -1.14057e-08 0
-3.76603e-07 -1.59535e-08 0
-3.78017e-07 -2.20795e-08 0
-3.79452e-07 -3.03476e-08 0
-3.80443e-07 -4.1481e-08 0
-3.79834e-07 -5.63046e-08 0
-3.7493e-07 -7.52298e-08 0
-3.61333e-07 -9.70754e-08 0
-3.36075e-07 -1.18951e-07 0
-3.00056e-07 -1.38299e-07 0
-2.54298e-07 -1.53519e-07 0
-2.00892e-07 -1.63036e-07 0
-1.42815e-07 -1.64856e-07 0
-8.71397e-08 -1.58672e-07 0
-3.86993e-08 -1.47375e-07 0
3.05966e-09 -1.33402e-07 0
3.79725e-08 -1.17429e-07 0
6.59248e-08 -1.00252e-07 0
8.76275e-08 -8.27845e-08 0
1.04107e-07 -6.55603e-08 0
1.16308e-07 -4.86824e-08 0
1.2493e-07 -3.16506e-08 0
1.29947e-07 -1.31872e-08 0
0.00488803 -1.47691e-05 0
0 -4.08034e-07 0
6.85313e-10 -1.24479e-07 0
-4.85465e-07 -2.18962e-07 0
-7.80203e-07 -1.39207e-07 0
-6.84374e-07 -7.23327e-08 0
-5.02996e-07 -8.77231e-08 0
-4.22551e-07 -2.31096e-07 0
-2.83169e-07 -1.70864e-07 0
2.74206e-08 -2.33865e-08 0
-2.01485e-08 -2.48498e-08 0
2.32588e-09 3.485e-07 0
-3.80529e-07 6.1795e-07 0
-6.90949e-07 2.88442e-07 0
-6.57681e-07 -1.74084e-08 0
-5.23892e-07 -6.15883e-08 0
-4.43087e-07 -3.44665e-08 0
-4.09522e-07 -1.51499e-08 0
-3.97207e-07 -5.98198e-09 0
-3.92747e-07 -1.80106e-09 0
-3.91021e-07 -6.4814e-11 0
-3.90274e-07 3.77108e-10 0
-3.89951e-07 1.08692e-10 0
-3.89903e-07 -5.78042e-10 0
-3.90116e-07 -1.56666e-09 0
-3.90621e-07 -2.8525e-09 0
-3.91473e-07 -4.50921e-09 0
-3.92742e-07 -6.67681e-09 0
-3.94512e-07 -9.56561e-09 0
-3.96874e-07 -1.34723e-08 0
-3.99891e-07 -1.88061e-08 0
-4.0354e-07 -2.61218e-08 0
-4.07561e-07 -3.61638e-08 0
-4.11e-07 -4.99227e-08 0
-4.10883e-07 -6.83903e-08 0
-4.00765e-07 -9.11985e-08 0
-3.74761e-07 -1.15663e-07 0
-3.34385e-07 -1.39283e-07 0
-2.80995e-07 -1.60065e-07 0
-2.16283e-07 -1.7477e-07 0
-1.44237e-07 -1.7856e-07 0
-7.78731e-08 -1.70522e-07 0
-2.42242e-08 -1.56384e-07 0
2.00529e-08 -1.40106e-07 0
5.57118e-08 -1.22183e-07 0
8.30931e-08 -1.03442e-07 0
1.03546e-07 -8.48811e-08 0
1.186e-07 -6.6973e-08 0
1.29516e-07 -4.96778e-08 0
1.37174e-07 -3.23152e-08 0
1.41658e-07 -1.35022e-08 0
0.00461908 -1.48711e-05 0
0 -3.82634e-07 0
6.56316e-10 -1.38617e-07 0
-4.90838e-07 -2.29934e-07 0
-7.46679e-07 -1.22753e-07 0
-6.95725e-07 -4.81509e-08 0
-5.68611e-07 -5.11497e-08 0
-4.62193e-07 -1.21446e-07 0
-5.15306e-07 -3.28543e-07 0
-4.3555e-07 -2.4158e-07 0
-5.74639e-07 5.68984e-11 0
-5.72268e-07 3.60027e-07 0
-3.6927e-07 6.93331e-07 0
-3.56614e-07 3.56785e-07 0
-4.4842e-07 -4.42365e-08 0
-4.72101e-07 -1.08923e-07 0
-4.71573e-07 -5.72204e-08 0
-4.72623e-07 -2.08836e-08 0
-4.75071e-07 -5.78879e-09 0
-4.76974e-07 -5.37701e-10 0
-4.77984e-07 9.31984e-10 0
-4.78396e-07 1.0005e-09 0
-4.78563e-07 5.41311e-10 0
-4.78745e-07 -1.45012e-10 0
-4.79118e-07 -9.82209e-10 0
-4.79811e-07 -1.99154e-09 0
-4.80939e-07 -3.24853e-09 0
-4.82624e-07 -4.87351e-09 0
-4.85011e-07 -7.03838e-09 0
-4.88268e-07 -9.98437e-09 0
-4.92571e-07 -1.40503e-08 0
-4.98047e-07 -1.97078e-08 0
-5.04622e-07 -2.75849e-08 0
-5.11548e-07 -3.84926e-08 0
-5.15842e-07 -5.34884e-08 0
-5.09523e-07 -7.33196e-08 0
-4.8303e-07 -9.72128e-08 0
-4.38064e-07 -1.2475e-07 0
-3.75945e-07 -1.54261e-07 0
-2.91856e-07 -1.78711e-07 0
-1.91137e-07 -1.8665e-07 0
-1.05504e-07 -1.76777e-07 0
-4.26485e-08 -1.60054e-07 0
6.89201e-09 -1.42046e-07 0
4.50047e-08 -1.2285e-07 0
7.29567e-08 -1.03295e-07 0
9.29373e-08 -8.42931e-08 0
1.07031e-07 -6.61856e-08 0
1.16837e-07 -4.88413e-08 0
1.23462e-07 -3.15867e-08 0
1.27198e-07 -1.33755e-08 0
0.00430432 -1.5079e-05 0
0 -4.26306e-07 0
6.10667e-10 -9.53709e-08 0
-5.04076e-07 -1.55332e-07 0
-7.41848e-07 -8.29029e-08 0
-7.55548e-07 -4.18101e-08 0
-7.19928e-07 -5.89572e-08 0
-6.53049e-07 -9.60781e-08 0
-6.03277e-07 -8.10131e-08 0
-7.49564e-07 1.29534e-07 0
-7.769e-07 1.96916e-07 0
-7.94373e-07 -9.14607e-08 0
-6.03395e-07 -2.30985e-07 0
-5.46053e-07 -9.27882e-08 0
-6.40516e-07 4.80089e-08 0
-6.81861e-07 8.07695e-08 0
-6.79494e-07 5.8816e-08 0
-6.71281e-07 3.25479e-08 0
-6.65922e-07 1.62673e-08 0
-6.62927e-07 8.02629e-09 0
-6.61178e-07 4.06083e-09 0
-6.60109e-07 2.0702e-09 0
-6.59514e-07 9.46537e-10 0
-6.59338e-07 1.88804e-10 0
-6.59595e-07 -4.39806e-10 0
-6.60336e-07 -1.07005e-09 0
-6.61651e-07 -1.79725e-09 0
-6.63672e-07 -2.71475e-09 0
-6.66588e-07 -3.93438e-09 0
-6.70644e-07 -5.60479e-09 0
-6.76147e-07 -7.93278e-09 0
-6.83427e-07 -1.121e-08 0
-6.92699e-07 -1.58287e-08 0
-7.0358e-07 -2.22293e-08 0
-7.13604e-07 -3.09166e-08 0
-7.15535e-07 -4.29237e-08 0
-6.99223e-07 -5.93435e-08 0
-6.6363e-07 -8.02139e-08 0
-6.07789e-07 -1.05071e-07 0
-5.14997e-07 -1.28702e-07 0
-3.80657e-07 -1.39264e-07 0
-2.58253e-07 -1.31266e-07 0
-1.7611e-07 -1.15984e-07 0
-1.13172e-07 -1.02789e-07 0
-6.44656e-08 -8.98968e-08 0
-2.88791e-08 -7.63731e-08 0
-3.6278e-09 -6.27164e-08 0
1.39887e-08 -4.92845e-08 0
2.60013e-08 -3.61339e-08 0
3.37579e-08 -2.30704e-08 0
3.76908e-08 -1.00509e-08 0
0.00349619 -1.34033e-05 0
0 0 0
3.03781e-10 0 0
-2.51998e-07 0 0
-3.71201e-07 0 0
-4.01132e-07 0 0
-4.0651e-07 0 0
-4.06662e-07 0 0
-3.72286e-07 0 0
-3.12026e-07 0 0
-2.01345e-07 0 0
-2.19803e-07 0 0
-3.69106e-07 0 0
-4.86407e-07 0 0
-5.0386e-07 0 0
-4.67328e-07 0 0
-4.29125e-07 0 0
-4.05593e-07 0 0
-3.93619e-07 0 0
-3.87872e-07 0 0
-3.85089e-07 0 0
-3.83703e-07 0 0
-3.8303e-07 0 0
-3.82788e-07 0 0
-3.82869e-07 0 0
-3.8325e-07 0 0
-3.83958e-07 0 0
-3.85056e-07 0 0
-3.8665e-07 0 0
-3.88884e-07 0 0
-3.91953e-07 0 0
-3.96087e-07 0 0
-4.01498e-07 0 0
-4.08137e-07 0 0
-4.15014e-07 0 0
-4.19146e-07 0 0
-4.161e-07 0 0
-4.04059e-07 0 0
-3.81455e-07 0 0
-3.36881e-07 0 0
-2.62881e-07 0 0
-1.89759e-07 0 0
-1.42217e-07 0 0
-1.06085e-07 0 0
-7.7572e-08 0 0
-5.65096e-08 0 0
-4.14417e-08 0 0
-3.08503e-08 0 0
-2.35966e-08 0 0
-1.89486e-08 0 0
-1.6688e-08 0 0
0.00143339 0 0
0 0 4.12473e-07
5.16302e-10 0 1.27082e-07
-7.00703e-07 0 1.59972e-07
-1.01945e-06 0 -8.66507e-08
-9.05696e-07 0 -3.65609e-07
-3.11893e-08 0 -3.24003e-07
9.21995e-08 0 -7.79512e-08
-3.65697e-08 0 2.98696e-08
-2.07241e-07 0 4.53519e-08
-3.35983e-07 0 1.25109e-08
-4.08283e-07 0 -1.24467e-08
-4.6028e-07 0 -1.74105e-08
-5.05203e-07 0 -1.25122e-08
-5.42441e-07 0 -6.47397e-09
-5.72438e-07 0 -2.37581e-09
-5.96141e-07 0 -3.14988e-10
-6.1414e-07 0 4.38246e-10
-6.27193e-07 0 5.58048e-10
-6.36269e-07 0 4.50229e-10
-6.42339e-07 0 3.0357e-10
-6.46222e-07 0 1.84927e-10
-6.48536e-07 0 1.06732e-10
-6.49702e-07 0 6.26048e-11
-6.49976e-07 0 4.26945e-11
-6.49483e-07 0 3.8874e-11
-6.48235e-07 0 4.56559e-11
-6.46146e-07 0 5.96286e-11
-6.43035e-07 0 7.85313e-11
-6.38623e-07 0 1.00367e-10
-6.32522e-07 0 1.22757e-10
-6.24236e-07 0 1.42827e-10
-6.1318e-07 0 1.57836e-10
-5.98733e-07 0 1.65826e-10
-5.80344e-07 0 1.63716e-10
-5.57644e-07 0 1.41726e-10
-5.30517e-07 0 8.16326e-11
-4.99109e-07 0 -3.10601e-11
-4.63847e-07 0 -1.89021e-10
-4.25485e-07 0 -3.57689e-10
-3.85108e-07 0 -4.88886e-10
-3.4404e-07 0 -5.44112e-10
-3.03676e-07 0 -5.11353e-10
-2.65318e-07 0 -4.04746e-10
-2.30076e-07 0 -2.54155e-10
-1.98807e-07 0 -9.50682e-11
-1.72096e-07 0 4.10526e-11
-1.50284e-07 0 1.34791e-10
-1.33529e-07 0 1.93762e-10
-1.21906e-07 0 3.33599e-10
-1.15806e-07 0 8.96431e-10
0.00460906 0 3.61994e-06
0.0036 3.0324e-07 2.44934e-07
0.0035993 -0.00261785 -0.00101487
0.00937257 -0.00665317 -0.00258825
0.0187616 -0.00908919 -0.00335375
0.0303299 -0.0113438 -0.00341021
0.0464874 -0.00700049 -0.00190645
0.047932 4.0696e-05 -0.000138054
0.0472317 0.00294813 0.000382263
0.0418609 0.00449596 0.000255185
0.0364283 0.00427551 -0.000107901
0.0317327 0.00349976 -0.000246824
0.0280871 0.00259848 -0.000216008
0.0255543 0.00178481 -0.000138877
0.0239251 0.00115987 -7.43884e-05
0.0229213 0.000726751 -3.47496e-05
0.0223206 0.000442837 -1.43827e-05
0.0219704 0.00026333 -5.21742e-06
0.021771 0.000153271 -1.5556e-06
0.0216598 8.77283e-05 -2.77815e-07
0.0215988 4.98661e-05 9.00788e-08
0.021565 2.88247e-05 1.70578e-07
0.0215451 1.7883e-05 1.98699e-07
0.0215311 1.30539e-05 2.51877e-07
0.0215181 1.21039e-05 3.52156e-07
0.021503 1.39146e-05 5.07833e-07
0.0214828 1.80957e-05 7.29441e-07
0.0214548 2.477e-05 1.03646e-06
0.0214156 3.44743e-05 1.46214e-06
0.0213607 4.81347e-05 2.05987e-06
0.0212844 6.70817e-05 2.91313e-06
0.0211787 9.30594e-05 4.14888e-06
0.0210332 0.000128151 5.94928e-06
0.0208346 0.000174476 8.54168e-06
0.0205672 0.000233468 1.21267e-05
0.0202137 0.000304695 1.6719e-05
0.0197588 0.000384663 2.19841e-05
0.0191937 0.000466527 2.72533e-05
0.0185211 0.000541256 3.17513e-05
0.0177565 0.000599773 3.48416e-05
0.0169272 0.000635153 3.61738e-05
0.0160681 0.000644103 3.57407e-05
0.015216 0.000627247 3.38583e-05
0.0144042 0.000588144 3.1013e-05
0.0136591 0.000531619 2.76129e-05
0.0129998 0.000462364 2.38639e-05
0.0124398 0.000384261 1.98174e-05
0.0119878 0.000300191 1.54655e-05
0.0116493 0.000211992 1.08414e-05
0.0114277 0.000121222 6.56428e-06
0.0113238 3.75826e-05 6.25601e-06
0.0113237 -2.54158e-07 7.85344e-06
0.01 3.14213e-07 -3.08048e-07
0.010001 -0.00490427 -0.00177584
0.0156918 -0.0130986 -0.00416712
0.0248508 -0.0185877 -0.00473832
0.03631 -0.0254395 -0.0037784
0.0547323 -0.0161531 -0.00093044
0.0539995 -0.000317704 0.00116851
0.0546198 0.00617506 0.00132974
0.0481441 0.0108744 0.000824021
0.0414849 0.0102607 -7.43234e-06
0.0362254 0.00848124 -0.000372747
0.032329 0.00628431 -0.000346488
0.0298283 0.00422716 -0.00022263
0.0283667 0.00266733 -0.000117915
0.027542 0.00162027 -5.36787e-05
0.0270886 0.00095732 -2.10492e-05
0.0268469 0.000551894 -6.64794e-06
0.0267225 0.0003111 -1.12181e-06
0.0266608 0.000172195 5.89785e-07
0.0266312 9.47245e-05 8.62297e-07
0.0266166 5.35958e-05 6.93159e-07
0.0266078 3.38147e-05 4.51479e-07
0.0265995 2.67949e-05 2.4737e-07
0.0265884 2.79333e-05 9.64947e-08
0.0265722 3.51063e-05 -1.27538e-08
0.0265483 4.7791e-05 -9.38163e-08
0.0265139 6.65984e-05 -1.51838e-07
0.0264652 9.30677e-05 -1.76345e-07
0.026397 0.000129621 -1.29724e-07
0.0263022 0.000179592 7.43725e-08
0.0261715 0.000247239 6.08842e-07
0.0259921 0.000337568 1.78896e-06
0.025748 0.000455681 4.12043e-06
0.0254188 0.000605198 8.23894e-06
0.0249812 0.000785435 1.45885e-05
0.0244127 0.000988185 2.29152e-05
0.0236985 0.00119653 3.20983e-05
0.0228392 0.00138752 4.05784e-05
0.0218545 0.00153759 4.68945e-05
0.0207819 0.00162839 5.00578e-05
0.0196702 0.00165092 4.98189e-05
0.0185709 0.00160666 4.67947e-05
0.0175288 0.00150513 4.21282e-05
0.0165776 0.00135922 3.67802e-05
0.0157405 0.00118131 3.12066e-05
0.0150327 0.000981514 2.5501e-05
0.0144634 0.000767408 1.96031e-05
0.014038 0.000544353 1.34129e-05
0.013759 0.000316779 7.34519e-06
0.0136259 0.00010111 6.22817e-06
0.0136254 -2.01777e-07 7.99612e-06
0.0148 -7.12423e-07 -3.80739e-07
0.0148023 -0.0065334 -0.00237682
0.0191591 -0.0173338 -0.00566056
0.0249357 -0.0251353 -0.00617762
0.0285574 -0.0374372 -0.00423189
0.0274452 -0.0231175 -0.000739092
0.0261501 -8.63344e-06 0.00113516
0.0267434 0.00858066 0.00121113
0.0319589 0.0175654 0.000993093
0.0312224 0.0163248 0.00031443
0.0293357 0.0128432 -0.000121761
0.027963 0.00914416 -0.000223824
0.0272721 0.00583964 -0.000169251
0.0270548 0.00349514 -9.23767e-05
0.0270352 0.00202726 -3.74461e-05
0.0270867 0.00114665 -9.35619e-06
0.0271546 0.000632152 1.61e-06
0.0272158 0.000339718 4.38022e-06
0.0272632 0.00017868 4.04653e-06
0.0272964 9.36522e-05 2.91461e-06
0.0273175 5.19183e-05 1.83009e-06
0.0273287 3.48489e-05 1.00381e-06
0.0273319 3.23348e-05 4.17908e-07
0.0273279 3.93565e-05 -3.73755e-09
0.0273167 5.39772e-05 -3.35216e-07
0.0272973 7.62427e-05 -6.3222e-07
0.0272679 0.000107643 -9.28635e-07
0.0272256 0.000150918 -1.23179e-06
0.0271658 0.00021007 -1.50757e-06
0.0270823 0.000290472 -1.64561e-06
0.0269664 0.000398971 -1.3884e-06
0.0268059 0.000543782 -1.99473e-07
0.026584 0.00073379 2.93078e-06
0.0262781 0.000976427 9.56746e-06
0.0258587 0.00127296 2.12836e-05
0.0252921 0.00161172 3.82452e-05
0.0245519 0.00196433 5.82817e-05
0.0236325 0.00229008 7.77824e-05
0.0225555 0.00254631 9.30543e-05
0.0213685 0.00269962 0.000101288
0.020136 0.00273408 0.000101496
0.0189252 0.0026537 9.51159e-05
0.0177901 0.00247752 8.50414e-05
0.0167663 0.00222963 7.36032e-05
0.0158751 0.00193173 6.18637e-05
0.0151285 0.00160073 5.00907e-05
0.0145328 0.00124892 3.82356e-05
0.0140907 0.000884827 2.61303e-05
0.0138028 0.000515659 1.4049e-05
0.0136671 0.000165586 7.40043e-06
0.0136664 4.35741e-07 6.69061e-06
0.018 -1.66377e-06 -7.33533e-07
0.018002 -0.00678592 -0.00313302
0.0195612 -0.0170681 -0.00751025
0.019929 -0.0208196 -0.0074996
0.0162145 -0.0221039 -0.00502759
-6.30626e-07 -0.0115729 -0.00190579
8.96508e-05 3.23145e-05 3.03261e-07
-3.5797e-05 3.8397e-05 0.000206315
0.00850315 0.00618136 0.00041195
0.0174398 0.0128723 0.000330205
0.0203366 0.011829 0.000119679
0.0217858 0.00844677 -6.63415e-05
0.0233811 0.00520642 -0.000108169
0.0247539 0.00294338 -6.50423e-05
0.0257405 0.00160491 -2.00175e-05
0.0263968 0.000842538 3.07331e-06
0.0268149 0.000422559 1e-05
0.0270731 0.000200907 9.58736e-06
0.0272286 9.01116e-05 7.04386e-06
0.0273202 3.93594e-05 4.52977e-06
0.0273727 2.05606e-05 2.64151e-06
0.0274012 1.8983e-05 1.36801e-06
0.0274147 2.7484e-05 5.35895e-07
0.0274181 4.321e-05 -2.72579e-08
0.0274138 6.58299e-05 -4.51203e-07
0.0274026 9.66759e-05 -8.22259e-07
0.0273838 0.000138414 -1.18925e-06
0.0273558 0.000195032 -1.56155e-06
0.0273154 0.000272018 -1.88927e-06
0.0272578 0.00037666 -2.01104e-06
0.0271758 0.00051836 -1.53871e-06
0.0270586 0.000708828 3.94224e-07
0.0268897 0.000961802 5.64687e-06
0.0266442 0.00129118 1.7723e-05
0.0262843 0.00170463 4.12435e-05
0.0257586 0.00219084 7.83432e-05
0.025018 0.00270881 0.000124737
0.0240435 0.00319376 0.000171371
0.0228593 0.00357609 0.00020848
0.0215303 0.00380141 0.000228382
0.0201476 0.00384519 0.000228511
0.0188045 0.00371743 0.000213027
0.0175672 0.00345297 0.00018942
0.0164704 0.00309187 0.000163145
0.0155301 0.00266687 0.000136479
0.0147524 0.00220167 0.000110039
0.0141383 0.00171264 8.38431e-05
0.0136866 0.00121067 5.76454e-05
0.0133946 0.000704718 3.15822e-05
0.0132586 0.000226772 1.17515e-05
0.0132579 1.63378e-06 4.83872e-06
0.0196 -1.95055e-06 -1.64213e-06
0.0196007 -0.00492966 -0.00375106
0.01909 -0.0111005 -0.00860849
0.0170446 -0.0125392 -0.0079379
0.0128453 -0.0104513 -0.00507476
0.0031702 -0.00408482 -0.00245447
6.83827e-05 -6.31477e-05 -0.000458603
2.73506e-05 -2.73506e-05 -4.97112e-08
-3.4476e-05 3.71181e-05 3.90639e-05
0.00616672 0.00441667 9.85603e-05
0.0128447 0.00848626 7.74718e-05
0.0159917 0.00613842 -5.50747e-05
0.019733 0.00292018 -0.000139643
0.0227611 0.00116587 -9.63643e-05
0.024744 0.00039552 -3.48065e-05
0.0259297 7.30508e-05 -7.43475e-07
0.0266113 -4.70055e-05 9.97329e-06
0.0269951 -7.72929e-05 1.00817e-05
0.0272085 -7.10496e-05 7.25725e-06
0.0273258 -5.21267e-05 4.4864e-06
0.0273895 -3.0034e-05 2.49137e-06
0.0274234 -7.6102e-06 1.21039e-06
0.0274407 1.53047e-05 4.13886e-07
0.0274484 4.02602e-05 -1.01649e-07
0.0274504 6.96023e-05 -4.77378e-07
0.0274482 0.000106376 -7.99547e-07
0.0274425 0.000154483 -1.10891e-06
0.0274327 0.000219004 -1.39621e-06
0.0274173 0.000306635 -1.57116e-06
0.0273935 0.000426244 -1.3832e-06
0.0273563 0.000589496 -2.47182e-07
0.027297 0.0008115 3.16337e-06
0.0272007 0.00111134 1.19746e-05
0.0270414 0.00151178 3.33078e-05
0.0267737 0.00203326 7.93389e-05
0.026321 0.00267287 0.000159667
0.0255929 0.0033776 0.000267008
0.0245451 0.00404904 0.000377735
0.0232061 0.00457852 0.000465069
0.0216714 0.00488296 0.000509433
0.0200769 0.00492805 0.000506191
0.0185581 0.00473617 0.00046776
0.0171938 0.00436794 0.000412897
0.016012 0.00388507 0.000353597
0.0150179 0.00333188 0.000294344
0.0142084 0.00273764 0.00023636
0.0135776 0.00212134 0.000179786
0.0131185 0.00149494 0.000124196
0.0128247 0.000868039 6.93695e-05
0.0126895 0.000279437 2.25354e-05
0.0126888 3.14421e-06 2.89195e-06
0.0196 -1.0598e-06 -2.40174e-06
0.0196004 -0.00262764 -0.00395623
0.0192382 -0.00536862 -0.00859943
0.018529 -0.00476747 -0.00768134
0.0157088 -0.00135265 -0.00473249
0.0118076 0.00440948 -0.00258744
0.00716389 0.0037367 -0.00110998
6.8496e-05 -5.77994e-05 -0.000219407
2.33235e-05 -2.33235e-05 -1.01299e-07
-3.29137e-05 3.60382e-05 1.05009e-05
0.00441061 0.00199049 0.000199504
0.00994082 0.00159017 0.000135002
0.0167598 -0.00150104 -0.000187494
0.0218218 -0.00202356 -0.000215788
0.0246504 -0.00154495 -0.000111782
0.0260689 -0.00102109 -3.51617e-05
0.0267713 -0.000644982 -4.48082e-06
0.0271225 -0.000399433 3.30221e-06
0.0272991 -0.000243031 3.62505e-06
0.0273879 -0.000143249 2.40453e-06
0.0274326 -7.79543e-05 1.29255e-06
0.0274553 -3.26201e-05 5.5079e-07
0.0274676 2.33869e-06 9.66954e-08
0.0274752 3.35545e-05 -1.88311e-07
0.0274814 6.61132e-05 -3.89534e-07
0.027488 0.00010456 -5.51946e-07
0.027496 0.000153676 -6.78533e-07
0.0275063 0.000219161 -7.12364e-07
0.027519 0.000308347 -4.83025e-07
0.0275339 0.000430998 4.1722e-07
0.0275488 0.000600287 2.89397e-06
0.0275584 0.000833887 8.93045e-06
0.0275509 0.00115533 2.33111e-05
0.027502 0.00159619 5.87957e-05
0.0273621 0.00219496 0.000143413
0.0270266 0.00297036 0.000309137
0.0263358 0.00386427 0.0005486
0.0251942 0.00473429 0.000801594
0.0236374 0.00541641 0.000994451
0.0218195 0.00579412 0.00108359
0.0199435 0.00582488 0.00106601
0.0182092 0.0055508 0.000974087
0.0167021 0.00507154 0.000852059
0.0154311 0.00447389 0.000724511
0.0143846 0.00381071 0.000599396
0.0135473 0.00311343 0.000478835
0.0129042 0.00240118 0.000363038
0.0124419 0.00168525 0.000251091
0.0121495 0.000974751 0.000141952
0.0120168 0.000313063 4.47732e-05
0.0120161 4.01289e-06 1.54149e-06
0.018 -6.47611e-07 -2.42918e-06
0.0180009 -0.000774461 -0.00385472
0.0188474 -0.000997033 -0.00810329
0.0200257 0.000361165 -0.00695253
0.0200052 0.0027546 -0.00419079
0.0198317 0.00794219 -0.00231078
0.020125 0.0131871 -0.00118355
0.0124493 0.00741518 -0.000543908
7.0197e-05 -4.54019e-05 -0.000181735
-2.64333e-05 -5.14096e-05 4.91866e-07
6.7976e-06 -0.00151912 0.000690775
0.00985202 -0.00623013 0.000786172
0.0183558 -0.00887034 -5.56699e-05
0.0235899 -0.00663379 -0.000275775
0.0260014 -0.00380248 -0.000180177
0.0269331 -0.0020297 -7.52191e-05
0.0272699 -0.00109621 -2.52723e-05
0.0273867 -0.000605076 -7.46216e-06
0.0274231 -0.00033733 -1.97038e-06
0.0274311 -0.000186377 -4.65243e-07
0.0274304 -9.7926e-05 -1.19322e-07
0.0274289 -4.27992e-05 -6.65603e-08
0.0274296 -4.6012e-06 -6.58394e-08
0.0274338 2.64375e-05 -5.78469e-08
0.0274427 5.67712e-05 -2.47992e-08
0.0274572 9.14374e-05 5.7594e-08
0.0274789 0.00013526 2.49051e-07
0.0275095 0.000193754 6.87954e-07
0.0275513 0.000273968 1.68121e-06
0.0276067 0.000385451 3.89742e-06
0.0276777 0.000541456 8.76851e-06
0.0277637 0.000760451 1.93137e-05
0.027858 0.00106786 4.24756e-05
0.0279406 0.0014995 9.81587e-05
0.0279641 0.00210803 0.000240332
0.0278033 0.00294202 0.000550075
0.0271973 0.00395231 0.00102986
0.0259553 0.00495883 0.00154345
0.0241322 0.00574261 0.00192345
0.021954 0.0061602 0.00208306
0.0197399 0.00616028 0.00202718
0.0177697 0.00580671 0.00183259
0.0161197 0.00524748 0.00159008
0.0147654 0.00458784 0.00134418
0.0136736 0.00387958 0.00110672
0.0128149 0.00315052 0.000880493
0.0121645 0.00241673 0.000665523
0.0117028 0.00168715 0.000459936
0.0114141 0.000969675 0.000261402
0.0112849 0.000308544 8.24309e-05
0.0112842 1.93452e-06 1.2003e-06
0.0148 -4.71832e-07 -2.14114e-06
0.0148014 0.000211876 -0.00360247
0.0172922 0.00111382 -0.00723883
0.020502 0.00253313 -0.00585395
0.0229562 0.00458381 -0.00345959
0.0248426 0.00747792 -0.00207591
0.0279209 0.0126856 -0.00129321
0.0310874 0.0207003 -0.000702952
0.0254288 0.0125405 -5.85232e-05
0.026868 -6.98405e-10 0.000617011
0.0317483 -0.00807913 0.00162008
0.0352535 -0.0169911 0.00165971
0.033334 -0.0151808 0.000400541
0.030546 -0.00954824 -0.00024222
0.0287608 -0.00480872 -0.000266487
0.0278133 -0.0022534 -0.000137829
0.0273145 -0.00108487 -5.53045e-05
0.0270428 -0.000547949 -1.99894e-05
0.0268906 -0.000285975 -6.83497e-06
0.0268042 -0.000150226 -2.19124e-06
0.0267559 -7.57213e-05 -5.79471e-07
0.0267309 -3.17329e-05 -5.31402e-09
0.0267211 -2.60869e-06 2.34651e-07
0.0267229 2.02935e-05 3.93972e-07
0.0267347 4.2339e-05 5.81344e-07
0.0267569 6.75266e-05 8.78737e-07
0.0267912 9.96025e-05 1.40567e-06
0.0268408 0.00014286 2.39144e-06
0.0269101 0.000202885 4.30681e-06
0.0270046 0.00028744 8.13778e-06
0.0271312 0.000407646 1.59678e-05
0.0272959 0.000579674 3.22004e-05
0.0275003 0.00082674 6.66301e-05
0.0277334 0.00118103 0.000146519
0.0279579 0.00168951 0.000354184
0.0280475 0.0024058 0.000836951
0.0276205 0.00328346 0.00160189
0.026331 0.00415106 0.00239583
0.0243869 0.00487085 0.00301008
0.0218415 0.00528451 0.00329445
0.0192917 0.00526308 0.00318514
0.0171217 0.00490534 0.00285343
0.0153597 0.00438857 0.00246654
0.0139447 0.00380789 0.00208244
0.0128234 0.00320033 0.00171317
0.0119529 0.00258457 0.00136184
0.0113 0.00197113 0.00102823
0.0108392 0.0013659 0.000709593
0.010552 0.000775655 0.000402878
0.0104235 0.00023961 0.000125777
0.0104228 -6.217e-06 -6.67441e-07
0.01 -8.31913e-07 -2.00081e-06
0.0100005 0.000216254 -0.00304554
0.0132881 0.000979536 -0.00568266
0.0173632 0.00190058 -0.00414761
0.0211021 0.00317972 -0.00235272
0.0252752 0.00573151 -0.00156788
0.0305694 0.00841474 -0.00146117
0.0392067 0.0105166 -0.00109851
0.0518789 0.00423349 -2.29425e-05
0.0517008 -0.00662785 0.000931676
0.0514427 -0.0104775 0.00139672
0.0431043 -0.00833994 0.00127061
0.0340565 -0.00425669 0.000498779
0.0277899 -0.00194988 -7.09421e-05
0.0245555 -0.000957843 -0.000173749
0.0230579 -0.000522952 -0.000103479
0.0223489 -0.000299961 -4.36738e-05