# vtk DataFile Version 2.0
Tobias Weinzierl: CPU, Manycore and Cluster Computing
ASCII

DATASET STRUCTURED_POINTS
DIMENSIONS  51 11 6

ORIGIN 0 0 0 

SPACING 0.1 0.1 0.1 

POINT_DATA 3366

VECTORS velocity float
0 0 0
1.53395e-08 0 0
1.70598e-08 0 0
8.34707e-09 0 0
2.50049e-09 0 0
5.37837e-10 0 0
9.26895e-11 0 0
1.35167e-11 0 0
1.71918e-12 0 0
1.94353e-13 0 0
1.97883e-14 0 0
1.83275e-15 0 0
1.55649e-16 0 0
1.22015e-17 0 0
8.87895e-19 0 0
6.02722e-20 0 0
3.83306e-21 0 0
2.29244e-22 0 0
1.29376e-23 0 0
6.91083e-25 0 0
3.50371e-26 0 0
1.69017e-27 0 0
7.77546e-29 0 0
3.41837e-30 0 0
1.43892e-31 0 0
5.80963e-33 0 0
2.25349e-34 0 0
8.41035e-36 0 0
3.02434e-37 0 0
1.04923e-38 0 0
3.51611e-40 0 0
1.13946e-41 0 0
3.57476e-43 0 0
1.08676e-44 0 0
3.20462e-46 0 0
9.17389e-48 0 0
2.55172e-49 0 0
6.90169e-51 0 0
1.81656e-52 0 0
4.65609e-54 0 0
1.16297e-55 0 0
2.83245e-57 0 0
6.73092e-59 0 0
1.56155e-60 0 0
3.53873e-62 0 0
7.83752e-64 0 0
1.69735e-65 0 0
3.59611e-67 0 0
7.45715e-69 0 0
1.54428e-70 0 0
3.2045e-68 0 0
0 -1.67546e-170 0
6.69776e-08 -1.6934e-168 0
8.51314e-08 -1.80516e-166 0
4.34611e-08 -1.67106e-164 0
1.27885e-08 -1.291e-162 0
2.57675e-09 -8.37358e-161 0
4.19919e-10 -3.98163e-159 0
5.87161e-11 -3.24236e-160 0
7.24454e-12 -2.01502e-158 0
8.01202e-13 -1.62701e-156 0
8.02748e-14 -1.28932e-154 0
7.34655e-15 -1.00522e-152 0
6.18297e-16 -7.71082e-151 0
4.81328e-17 -5.81729e-149 0
3.48357e-18 -4.31464e-147 0
2.35451e-19 -3.14473e-145 0
1.49216e-20 -2.2513e-143 0
8.89889e-22 -1.58227e-141 0
5.01039e-23 -1.09117e-139 0
2.67117e-24 -7.37953e-138 0
1.35202e-25 -4.89126e-136 0
6.51299e-27 -3.1753e-134 0
2.99266e-28 -2.0175e-132 0
1.31432e-29 -1.25365e-130 0
5.52755e-31 -7.6122e-129 0
2.22999e-32 -4.51257e-127 0
8.64396e-34 -2.60908e-125 0
3.22409e-35 -1.4697e-123 0
1.15875e-36 -8.05618e-122 0
4.01811e-38 -4.29152e-120 0
1.34595e-39 -2.21837e-118 0
4.36011e-41 -1.11091e-116 0
1.36739e-42 -5.37955e-115 0
4.15569e-44 -2.51371e-113 0
1.22507e-45 -1.1307e-111 0
3.5061e-47 -4.88256e-110 0
9.74986e-49 -2.01756e-108 0
2.63649e-50 -7.9481e-107 0
6.93797e-52 -2.97192e-105 0
1.77797e-53 -1.04918e-103 0
4.44013e-55 -3.47459e-102 0
1.08124e-56 -1.0709e-100 0
2.56904e-58 -3.04108e-99 0
5.95926e-60 -7.85442e-98 0
1.35029e-61 -1.81349e-96 0
2.99025e-63 -3.65474e-95 0
6.47518e-65 -6.20873e-94 0
1.37173e-66 -8.41791e-93 0
2.84424e-68 -8.2744e-92 0
5.88951e-70 -4.80048e-91 0
1.22736e-67 -1.40856e-88 0
0 -2.34899e-169 0
1.36508e-07 -2.34442e-167 0
2.21002e-07 -3.17673e-165 0
1.25484e-07 -3.92579e-163 0
3.65354e-08 -4.11347e-161 0
6.05346e-09 -3.97564e-159 0
8.70184e-10 -3.73417e-157 0
1.11899e-10 -7.22404e-159 0
1.30916e-11 -3.11855e-157 0
1.39846e-12 -2.5844e-155 0
1.36897e-13 -2.07147e-153 0
1.23304e-14 -1.63092e-151 0
1.02621e-15 -1.26349e-149 0
7.92517e-17 -9.63016e-148 0
5.70249e-18 -7.21841e-146 0
3.83772e-19 -5.31881e-144 0
2.42431e-20 -3.85087e-142 0
1.44227e-21 -2.73821e-140 0
8.10533e-23 -1.91125e-138 0
4.31493e-24 -1.3088e-136 0
2.18158e-25 -8.78789e-135 0
1.05e-26 -5.78194e-133 0
4.82135e-28 -3.72517e-131 0
2.11632e-29 -2.34847e-129 0
8.89673e-31 -1.44758e-127 0
3.58806e-32 -8.71643e-126 0
1.39046e-33 -5.12228e-124 0
5.18524e-35 -2.93468e-122 0
1.86332e-36 -1.63732e-120 0
6.46058e-38 -8.88432e-119 0
2.16393e-39 -4.68185e-117 0
7.00954e-41 -2.39234e-115 0
2.19821e-42 -1.18321e-113 0
6.68057e-44 -5.65265e-112 0
1.96937e-45 -2.60249e-110 0
5.63632e-47 -1.15164e-108 0
1.56739e-48 -4.88304e-107 0
4.23853e-50 -1.97668e-105 0
1.11541e-51 -7.60664e-104 0
2.85852e-53 -2.76834e-102 0
7.13884e-55 -9.46878e-101 0
1.73849e-56 -3.02025e-99 0
4.13085e-58 -8.89609e-98 0
9.58252e-60 -2.38913e-96 0
2.17138e-61 -5.75153e-95 0
4.80878e-63 -1.2122e-93 0
1.04136e-64 -2.16067e-92 0
2.20616e-66 -3.08413e-91 0
4.57461e-68 -3.20098e-90 0
9.47298e-70 -1.95966e-89 0
1.97994e-67 -5.90286e-87 0
0 -7.90768e-171 0
1.76897e-07 -7.95988e-169 0
3.99292e-07 -8.56784e-167 0
2.69346e-07 -7.75628e-165 0
7.95718e-08 -4.26802e-163 0
4.01455e-09 -4.19131e-163 0
5.42955e-10 0 0
6.66999e-11 3.46321e-155 0
8.29927e-12 -3.80264e-156 0
9.28564e-13 -3.57369e-154 0
9.42167e-14 -2.93087e-152 0
8.73084e-15 -2.33344e-150 0
7.43535e-16 -1.8264e-148 0
5.85184e-17 -1.40688e-146 0
4.27774e-18 -1.06615e-144 0
2.91766e-19 -7.94518e-143 0
1.86435e-20 -5.82005e-141 0
1.12019e-21 -4.1888e-139 0
6.35005e-23 -2.96061e-137 0
3.40636e-24 -2.05389e-135 0
1.73389e-25 -1.39775e-133 0
8.39571e-27 -9.32572e-132 0
3.87603e-28 -6.09609e-130 0
1.7097e-29 -3.9015e-128 0
7.21926e-31 -2.44282e-126 0
2.9233e-32 -1.4951e-124 0
1.13703e-33 -8.9366e-123 0
4.25454e-35 -5.21152e-121 0
1.53364e-36 -2.96188e-119 0
5.33282e-38 -1.63852e-117 0
1.79096e-39 -8.811e-116 0
5.81577e-41 -4.59862e-114 0
1.82805e-42 -2.32548e-112 0
5.56757e-44 -1.13719e-110 0
1.64458e-45 -5.36567e-109 0
4.71563e-47 -2.43653e-107 0
1.31368e-48 -1.06166e-105 0
3.55837e-50 -4.42328e-104 0
9.3789e-52 -1.75489e-102 0
2.40714e-53 -6.59681e-101 0
6.01999e-55 -2.33537e-99 0
1.46797e-56 -7.72743e-98 0
3.49243e-58 -2.36707e-96 0
8.11121e-60 -6.62953e-95 0
1.84006e-61 -1.66956e-93 0
4.07943e-63 -3.69374e-92 0
8.84318e-65 -6.93749e-91 0
1.8753e-66 -1.04764e-89 0
3.89218e-68 -1.15458e-88 0
8.06713e-70 -7.50602e-88 0
1.68059e-67 -2.32294e-85 0
0 -1.71347e-172 0
1.70835e-07 -1.73978e-170 0
5.50279e-07 -1.55485e-168 0
4.46697e-07 -1.14279e-166 0
1.37706e-07 -4.42998e-165 0
0 -4.31724e-165 0
0 0 0
0 0 0
7.33082e-13 -3.24783e-153 0
1.48389e-13 -3.88356e-153 0
2.00827e-14 -3.56413e-151 0
2.21941e-15 -2.89368e-149 0
2.13107e-16 -2.28899e-147 0
1.8303e-17 -1.78259e-145 0
1.43002e-18 -1.3662e-143 0
1.02785e-19 -1.03008e-141 0
6.85236e-21 -7.6373e-140 0
4.26397e-22 -5.5659e-138 0
2.48929e-23 -3.98526e-136 0
1.36923e-24 -2.80212e-134 0
7.12201e-26 -1.93373e-132 0
3.51419e-27 -1.30898e-130 0
1.64952e-28 -8.68634e-129 0
7.38372e-30 -5.64692e-127 0
3.15898e-31 -3.59372e-125 0
1.29433e-32 -2.23714e-123 0
5.08828e-34 -1.36107e-121 0
1.92242e-35 -8.08529e-120 0
6.99113e-37 -4.68472e-118 0
2.45068e-38 -2.64448e-116 0
8.29156e-40 -1.45246e-114 0
2.71099e-41 -7.75078e-113 0
8.57545e-43 -4.01193e-111 0
2.62715e-44 -2.01058e-109 0
7.80271e-46 -9.73487e-108 0
2.24876e-47 -4.54271e-106 0
6.29451e-49 -2.03722e-104 0
1.71262e-50 -8.7508e-103 0
4.53292e-52 -3.58603e-101 0
1.16799e-53 -1.39526e-99 0
2.93186e-55 -5.12414e-98 0
7.17437e-57 -1.76337e-96 0
1.71251e-58 -5.63361e-95 0
3.98979e-60 -1.6508e-93 0
9.07793e-62 -4.36507e-92 0
2.01826e-63 -1.01802e-90 0
4.38682e-65 -2.02451e-89 0
9.3265e-67 -3.25271e-88 0
1.94041e-68 -3.83159e-87 0
4.03129e-70 -2.66518e-86 0
8.29267e-68 -8.48139e-84 0
0 -3.64804e-173 0
1.49566e-07 -3.68926e-171 0
6.23757e-07 -2.87267e-169 0
5.72605e-07 -1.88861e-167 0
1.87457e-07 -7.06506e-166 0
1.51664e-08 -6.87903e-166 0
0 0 0
0 0 0
0 0 0
1.1439e-14 2.9684e-151 0
2.44278e-15 -3.37885e-150 0
3.40005e-16 -3.02602e-148 0
3.80113e-17 -2.41995e-146 0
3.65046e-18 -1.90591e-144 0
3.11093e-19 -1.47783e-142 0
2.39823e-20 -1.12775e-140 0
1.69409e-21 -8.46649e-139 0
1.10685e-22 -6.25049e-137 0
6.73684e-24 -4.53583e-135 0
3.84175e-25 -3.23392e-133 0
2.06232e-26 -2.26418e-131 0
1.04632e-27 -1.55586e-129 0
5.03427e-29 -1.04871e-127 0
2.3039e-30 -6.92929e-126 0
1.0055e-31 -4.48515e-124 0
4.19473e-33 -2.84183e-122 0
1.67625e-34 -1.76115e-120 0
6.42847e-36 -1.06655e-118 0
2.37004e-37 -6.30566e-117 0
8.4133e-39 -3.6355e-115 0
2.87982e-40 -2.04153e-113 0
9.5177e-42 -1.11508e-111 0
3.04088e-43 -5.91497e-110 0
9.40296e-45 -3.04178e-108 0
2.81703e-46 -1.51343e-106 0
8.18486e-48 -7.26858e-105 0
2.3085e-49 -3.3606e-103 0
6.32594e-51 -1.49102e-101 0
1.68561e-52 -6.32418e-100 0
4.37082e-54 -2.55266e-98 0
1.10372e-55 -9.75016e-97 0
2.71612e-57 -3.49961e-95 0
6.51802e-59 -1.16986e-93 0
1.52627e-60 -3.5998e-92 0
3.48942e-62 -1.00364e-90 0
7.7934e-64 -2.47944e-89 0
1.70132e-65 -5.2505e-88 0
3.63205e-67 -9.03508e-87 0
7.5865e-69 -1.14661e-85 0
1.58219e-70 -8.61275e-85 0
3.19628e-68 -2.82089e-82 0
0 -1.80245e-171 0
1.49386e-07 -1.80605e-169 0
6.2325e-07 -1.56405e-167 0
5.72439e-07 -1.17742e-165 0
1.91048e-07 -6.33187e-164 0
3.12597e-08 -2.21663e-162 0
1.84145e-09 -2.15448e-162 0
0 0 0
0 0 0
0 0 0
1.65967e-16 -3.05373e-149 0
7.64463e-17 -2.56425e-147 0
1.33613e-17 -2.07402e-145 0
1.63697e-18 -1.65252e-143 0
1.62691e-19 -1.29683e-141 0
1.39392e-20 -1.002e-139 0
1.06321e-21 -7.61995e-138 0
7.36202e-23 -5.70117e-136 0
4.68878e-24 -4.19495e-134 0
2.77264e-25 -3.03424e-132 0
1.53317e-26 -2.15641e-130 0
7.97236e-28 -1.50505e-128 0
3.91618e-29 -1.03103e-126 0
1.82418e-30 -6.9285e-125 0
8.08362e-32 -4.56434e-123 0
3.41734e-33 -2.94568e-121 0
1.38158e-34 -1.86094e-119 0
5.35317e-36 -1.1499e-117 0
1.99174e-37 -6.94324e-116 0
7.12853e-39 -4.09262e-114 0
2.4581e-40 -2.35225e-112 0
8.17823e-42 -1.31659e-110 0
2.62879e-43 -7.1661e-109 0
8.17369e-45 -3.78674e-107 0
2.46116e-46 -1.93903e-105 0
7.18416e-48 -9.6006e-104 0
2.03495e-49 -4.58467e-102 0
5.59845e-51 -2.10531e-100 0
1.49725e-52 -9.26351e-99 0
3.89565e-54 -3.88877e-97 0
9.86861e-56 -1.54924e-95 0
2.43576e-57 -5.8185e-94 0
5.86148e-59 -2.04262e-92 0
1.37611e-60 -6.62804e-91 0
3.15384e-62 -1.9579e-89 0
7.06014e-64 -5.15271e-88 0
1.5446e-65 -1.16968e-86 0
3.30424e-67 -2.17302e-85 0
6.9152e-69 -2.99972e-84 0
1.44489e-70 -2.46151e-83 0
2.91869e-68 -8.30551e-81 0
0 -8.01154e-170 0
1.69496e-07 -7.96638e-168 0
5.47283e-07 -7.36165e-166 0
4.44965e-07 -5.9575e-164 0
1.42442e-07 -3.89182e-162 0
2.65205e-08 -2.06641e-160 0
3.37403e-09 -7.76155e-159 0
1.56844e-10 -7.55874e-159 0
0 0 0
0 0 0
0 -1.96993e-148 0
5.87294e-16 -1.65426e-146 0
8.8574e-17 -1.35332e-144 0
9.3759e-18 -1.09122e-142 0
8.2795e-19 -8.66975e-141 0
6.45113e-20 -6.78502e-139 0
4.55409e-21 -5.22875e-137 0
2.95756e-22 -3.96636e-135 0
1.78477e-23 -2.96053e-133 0
1.00802e-24 -2.17346e-131 0
5.35774e-26 -1.56875e-129 0
2.69166e-27 -1.11268e-127 0
1.28282e-28 -7.75152e-126 0
5.8177e-30 -5.3011e-124 0
2.51732e-31 -3.55675e-122 0
1.0417e-32 -2.33976e-120 0
4.13114e-34 -1.50806e-118 0
1.57301e-35 -9.51611e-117 0
5.76051e-37 -5.87393e-115 0
2.03203e-38 -3.5434e-113 0
6.91442e-40 -2.08679e-111 0
2.27248e-41 -1.19838e-109 0
7.22253e-43 -6.70187e-108 0
2.22233e-44 -3.6444e-106 0
6.6269e-46 -1.9237e-104 0
1.91699e-47 -9.8369e-103 0
5.38432e-49 -4.86158e-101 0
1.46966e-50 -2.31577e-99 0
3.90149e-52 -1.05969e-97 0
1.00809e-53 -4.6396e-96 0
2.5371e-55 -1.93401e-94 0
6.2236e-57 -7.62795e-93 0
1.48899e-58 -2.82392e-91 0
3.47658e-60 -9.70949e-90 0
7.92643e-62 -3.05602e-88 0
1.76567e-63 -8.62496e-87 0
3.84484e-65 -2.11559e-85 0
8.18848e-67 -4.28452e-84 0
1.70646e-68 -6.51099e-83 0
3.55093e-70 -5.92378e-82 0
7.32044e-68 -2.06124e-79 0
0 -2.60695e-168 0
1.7004e-07 -2.57372e-166 0
3.87741e-07 -2.44904e-164 0
2.62746e-07 -2.11396e-162 0
7.95943e-08 -1.63652e-160 0
1.54716e-08 -1.14926e-158 0
2.34158e-09 -7.06349e-157 0
2.64286e-10 -3.22668e-155 0
1.01709e-11 -3.15717e-155 0
9.09496e-13 0 0
8.29821e-14 -8.53197e-148 0
7.63048e-15 -7.24549e-146 0
6.45989e-16 -5.99747e-144 0
5.06137e-17 -4.89517e-142 0
3.68743e-18 -3.93866e-140 0
2.50869e-19 -3.12308e-138 0
1.60002e-20 -2.4397e-136 0
9.60042e-22 -1.87703e-134 0
5.43675e-23 -1.42178e-132 0
2.91437e-24 -1.05989e-130 0
1.48274e-25 -7.77288e-129 0
7.1774e-27 -5.60553e-127 0
3.31301e-28 -3.97343e-125 0
1.46126e-29 -2.76703e-123 0
6.17028e-31 -1.89205e-121 0
2.49873e-32 -1.26961e-119 0
9.72017e-34 -8.35514e-118 0
3.63768e-35 -5.38866e-116 0
1.31154e-36 -3.40347e-114 0
4.56151e-38 -2.10335e-112 0
1.53228e-39 -1.27068e-110 0
4.97698e-41 -7.49627e-109 0
1.56479e-42 -4.31336e-107 0
4.76702e-44 -2.41746e-105 0
1.40847e-45 -1.31765e-103 0
4.03969e-47 -6.97202e-102 0
1.12567e-48 -3.57368e-100 0
3.04991e-50 -1.77005e-98 0
8.0408e-52 -8.44639e-97 0
2.06424e-53 -3.86889e-95 0
5.16374e-55 -1.69344e-93 0
1.25948e-56 -7.04285e-92 0
2.99715e-58 -2.7626e-90 0
6.96259e-60 -1.0121e-88 0
1.57986e-61 -3.41661e-87 0
3.50338e-63 -1.0423e-85 0
7.59614e-65 -2.78934e-84 0
1.61121e-66 -6.23241e-83 0
3.34477e-68 -1.05862e-81 0
6.93403e-70 -1.089e-80 0
1.45123e-67 -3.91199e-78 0
0 -4.62983e-167 0
1.10778e-07 -4.53883e-165 0
1.86776e-07 -4.36542e-163 0
1.07902e-07 -4.10867e-161 0
3.18027e-08 -3.82216e-159 0
6.45267e-09 -3.51397e-157 0
1.04725e-09 -3.19231e-155 0
1.41368e-10 -2.86521e-153 0
1.41895e-11 -2.54024e-151 0
1.32898e-12 -2.22424e-149 0
1.22996e-13 -1.92281e-147 0
1.05994e-14 -1.63223e-145 0
8.51766e-16 -1.36709e-143 0
6.39604e-17 -1.12955e-141 0
4.49902e-18 -9.20449e-140 0
2.97222e-19 -7.39543e-138 0
1.84909e-20 -5.85701e-136 0
1.08614e-21 -4.57099e-134 0
6.03896e-23 -3.51424e-132 0
3.18584e-24 -2.66069e-130 0
1.59828e-25 -1.98311e-128 0
7.64133e-27 -1.45453e-126 0
3.48847e-28 -1.04942e-124 0
1.52355e-29 -7.44453e-123 0
6.37649e-31 -5.19017e-121 0
2.56162e-32 -3.55435e-119 0
9.89257e-34 -2.38963e-117 0
3.67773e-35 -1.57628e-115 0
1.31795e-36 -1.01947e-113 0
4.55835e-38 -6.45999e-112 0
1.52338e-39 -4.00728e-110 0
4.92466e-41 -2.43124e-108 0
1.54155e-42 -1.44117e-106 0
4.6771e-44 -8.33668e-105 0
1.37666e-45 -4.69976e-103 0
3.93447e-47 -2.57797e-101 0
1.09272e-48 -1.3734e-99 0
2.95144e-50 -7.09067e-98 0
7.7585e-52 -3.53837e-96 0
1.9863e-53 -1.7012e-94 0
4.95593e-55 -7.84886e-93 0
1.20584e-56 -3.45752e-91 0
2.8629e-58 -1.44467e-89 0
6.63619e-60 -5.67539e-88 0
1.50268e-61 -2.07075e-86 0
3.32568e-63 -6.89328e-85 0
7.1974e-65 -2.03662e-83 0
1.52392e-66 -5.09715e-82 0
3.15822e-68 -9.8721e-81 0
6.53653e-70 -1.17961e-79 0
1.37705e-67 -4.37979e-77 0
0 0 0
3.16069e-08 0 0
4.29066e-08 0 0
2.25661e-08 0 0
6.67766e-09 0 0
1.40827e-09 0 0
2.38244e-10 0 0
3.39256e-11 0 0
4.01862e-12 0 0
4.19489e-13 0 0
4.00139e-14 0 0
3.51461e-15 0 0
2.85868e-16 0 0
2.16311e-17 0 0
1.52885e-18 0 0
1.01295e-19 0 0
6.31234e-21 0 0
3.71093e-22 0 0
2.06385e-23 0 0
1.08868e-24 0 0
5.45986e-26 0 0
2.60904e-27 0 0
1.19037e-28 0 0
5.19532e-30 0 0
2.17286e-31 0 0
8.72268e-33 0 0
3.36612e-34 0 0
1.25052e-35 0 0
4.4782e-37 0 0
1.5478e-38 0 0
5.16922e-40 0 0
1.66999e-41 0 0
5.22429e-43 0 0
1.58411e-44 0 0
4.66003e-46 0 0
1.33109e-47 0 0
3.6949e-49 0 0
9.97487e-51 0 0
2.62084e-52 0 0
6.70666e-54 0 0
1.6726e-55 0 0
4.06793e-57 0 0
9.65406e-59 0 0
2.23693e-60 0 0
5.06334e-62 0 0
1.12019e-63 0 0
2.42347e-65 0 0
5.12953e-67 0 0
1.06272e-68 0 0
2.19881e-70 0 0
4.63919e-68 0 0
0 0 -3.87991e-171
6.22925e-08 0 -3.9143e-169
7.67476e-08 0 -4.07609e-167
3.85376e-08 0 -3.43067e-165
1.13358e-08 0 -2.22191e-163
2.37004e-09 0 -1.11224e-161
3.98826e-10 0 -3.6182e-160
5.71433e-11 0 -1.32416e-160
7.176e-12 0 -9.9456e-159
8.03777e-13 0 -7.9998e-157
8.12812e-14 0 -6.33145e-155
7.48963e-15 0 -4.93167e-153
6.33575e-16 0 -3.77942e-151
4.9515e-17 0 -2.84859e-149
3.59444e-18 0 -2.11071e-147
2.43521e-19 0 -1.53686e-145
1.54621e-20 0 -1.09911e-143
9.23519e-22 0 -7.71674e-142
5.20614e-23 0 -5.316e-140
2.77833e-24 0 -3.59125e-138
1.40744e-25 0 -2.37767e-136
6.78468e-27 0 -1.54177e-134
3.11933e-28 0 -9.78456e-133
1.37064e-29 0 -6.07273e-131
5.76682e-31 0 -3.68287e-129
2.32737e-32 0 -2.1805e-127
9.02423e-34 0 -1.2591e-125
3.36684e-35 0 -7.08321e-124
1.21034e-36 0 -3.87742e-122
4.19786e-38 0 -2.06264e-120
1.40641e-39 0 -1.0647e-118
4.5567e-41 0 -5.32407e-117
1.42924e-42 0 -2.5743e-115
4.34421e-44 0 -1.20106e-113
1.28078e-45 0 -5.39401e-112
3.6659e-47 0 -2.32546e-110
1.01951e-48 0 -9.59328e-109
2.75711e-50 0 -3.77279e-107
7.25589e-52 0 -1.40823e-105
1.85956e-53 0 -4.96253e-104
4.64413e-55 0 -1.64041e-102
1.13098e-56 0 -5.04627e-101
2.68733e-58 0 -1.43021e-99
6.23392e-60 0 -3.68647e-98
1.41258e-61 0 -8.49403e-97
3.12829e-63 0 -1.70817e-95
6.7743e-65 0 -2.89557e-94
1.43514e-66 0 -3.91719e-93
2.97579e-68 0 -3.84189e-92
6.16204e-70 0 -2.22432e-91
1.28322e-67 0 -6.51979e-89
0.0036 -2.15528e-170 -1.42628e-170
0.00395004 -4.04023e-166 -4.0613e-166
0.00215648 -9.36123e-164 -9.51041e-164
0.000685651 -1.38209e-161 -1.3116e-161
0.000147676 -1.24444e-159 -1.14426e-159
2.39368e-05 -8.43223e-158 -7.67041e-158
3.27159e-06 -4.09017e-156 -3.70592e-156
3.93171e-07 -3.18279e-157 -3.11354e-157
4.23991e-08 -1.99196e-155 -1.99251e-155
4.15205e-09 -1.63717e-153 -1.63723e-153
3.72349e-10 -1.32104e-151 -1.32105e-151
3.0782e-11 -1.04912e-149 -1.04912e-149
2.35889e-12 -8.20038e-148 -8.20038e-148
1.68371e-13 -6.30656e-146 -6.30656e-146
1.12413e-14 -4.77013e-144 -4.77013e-144
7.047e-16 -3.54704e-142 -3.54704e-142
4.16205e-17 -2.59183e-140 -2.59183e-140
2.32309e-18 -1.86013e-138 -1.86013e-138
1.22885e-19 -1.31056e-136 -1.31056e-136
6.17606e-21 -9.05965e-135 -9.05965e-135
2.95614e-22 -6.14121e-133 -6.14121e-133
1.35041e-23 -4.07953e-131 -4.07953e-131
5.89926e-25 -2.65392e-129 -2.65392e-129
2.46892e-26 -1.68953e-127 -1.68953e-127
9.9158e-28 -1.05172e-125 -1.05172e-125
3.82771e-29 -6.39602e-124 -6.39602e-124
1.42223e-30 -3.79652e-122 -3.79652e-122
5.09346e-32 -2.19722e-120 -2.19722e-120
1.76041e-33 -1.23844e-118 -1.23844e-118
5.87877e-35 -6.78944e-117 -6.78944e-117
1.89894e-36 -3.61522e-115 -3.61522e-115
5.93942e-38 -1.86675e-113 -1.86675e-113
1.80055e-39 -9.33069e-112 -9.33069e-112
5.29542e-41 -4.50541e-110 -4.50541e-110
1.51218e-42 -2.09673e-108 -2.09673e-108
4.19637e-44 -9.37952e-107 -9.37952e-107
1.13253e-45 -4.02076e-105 -4.02076e-105
2.97475e-47 -1.6457e-103 -1.6457e-103
7.60995e-49 -6.40388e-102 -6.40388e-102
1.89728e-50 -2.35695e-100 -2.35695e-100
4.61293e-52 -8.15353e-99 -8.15353e-99
1.0944e-53 -2.63061e-97 -2.63061e-97
2.53504e-55 -7.83819e-96 -7.83819e-96
5.73636e-57 -2.12959e-94 -2.12959e-94
1.2687e-58 -5.18697e-93 -5.18697e-93
2.74394e-60 -1.10613e-91 -1.10613e-91
5.80614e-62 -1.99497e-90 -1.99497e-90
1.20254e-63 -2.88126e-89 -2.88126e-89
2.43896e-65 -3.02509e-88 -3.02509e-88
4.94031e-67 -1.87166e-87 -1.87166e-87
4.9168e-67 -3.18314e-87 -3.18314e-87
0.01 -2.39019e-169 -3.10462e-170
0.0101588 -2.13466e-165 4.06056e-166
0.00618584 -7.9969e-163 -4.84597e-163
0.00209008 -2.85665e-160 -2.62932e-160
0.00043609 -3.9619e-158 -3.657e-158
5.85555e-05 -4.07798e-156 -3.71473e-156
7.05821e-06 -3.90771e-154 -3.53654e-154
7.78904e-07 -7.30136e-156 -7.00747e-156
7.941e-08 -3.13747e-154 -3.1424e-154
7.48578e-09 -2.6475e-152 -2.64807e-152
6.53721e-10 -2.16154e-150 -2.16158e-150
5.30271e-11 -1.73415e-148 -1.73415e-148
4.00764e-12 -1.36951e-146 -1.36951e-146
2.83115e-13 -1.06449e-144 -1.06449e-144
1.87547e-14 -8.14043e-143 -8.14043e-143
1.16861e-15 -6.12224e-141 -6.12224e-141
6.86942e-17 -4.52632e-139 -4.52632e-139
3.81989e-18 -3.28817e-137 -3.28817e-137
2.01455e-19 -2.34599e-135 -2.34599e-135
1.01003e-20 -1.64299e-133 -1.64299e-133
4.82485e-22 -1.12886e-131 -1.12886e-131
2.20046e-23 -7.6046e-130 -7.6046e-130
9.59955e-25 -5.01957e-128 -5.01957e-128
4.01296e-26 -3.24418e-126 -3.24418e-126
1.61015e-27 -2.05145e-124 -2.05145e-124
6.21047e-29 -1.26816e-122 -1.26816e-122
2.30598e-30 -7.65678e-121 -7.65678e-121
8.25352e-32 -4.51074e-119 -4.51074e-119
2.85113e-33 -2.59e-117 -2.59e-117
9.51697e-35 -1.44768e-115 -1.44768e-115
3.07297e-36 -7.8664e-114 -7.8664e-114
9.60829e-38 -4.14904e-112 -4.14904e-112
2.91194e-39 -2.12052e-110 -2.12052e-110
8.56182e-41 -1.04813e-108 -1.04813e-108
2.4444e-42 -4.99919e-107 -4.99919e-107
6.78201e-44 -2.295e-105 -2.295e-105
1.83003e-45 -1.01105e-103 -1.01105e-103
4.80611e-47 -4.25946e-102 -4.25946e-102
1.22932e-48 -1.70892e-100 -1.70892e-100
3.06453e-50 -6.497e-99 -6.497e-99
7.45011e-52 -2.3264e-97 -2.3264e-97
1.76735e-53 -7.78669e-96 -7.78669e-96
4.09347e-55 -2.41302e-94 -2.41302e-94
9.26211e-57 -6.83757e-93 -6.83757e-93
2.04835e-58 -1.74232e-91 -1.74232e-91
4.42988e-60 -3.90056e-90 -3.90056e-90
9.37305e-62 -7.41336e-89 -7.41336e-89
1.9412e-63 -1.13284e-87 -1.13284e-87
3.93693e-65 -1.2631e-86 -1.2631e-86
7.97423e-67 -8.30018e-86 -8.30018e-86
7.9364e-67 -1.4247e-85 -1.4247e-85
0.0148 -7.17814e-171 -9.65615e-170
0.0165944 -9.70946e-167 1.92963e-165
0.0120978 -5.98647e-165 -4.08505e-163
0.00467674 -4.8418e-162 -2.70382e-160
0.000977827 -4.04781e-160 -4.5363e-158
3.94113e-05 -3.99946e-160 -3.64907e-156
4.48178e-06 0 -3.49986e-154
4.73096e-07 3.69318e-152 3.30295e-152
5.07845e-08 -3.89515e-153 -3.93812e-153
4.98499e-09 -3.7287e-151 -3.7338e-151
4.49637e-10 -3.11604e-149 -3.11646e-149
3.74435e-11 -2.52897e-147 -2.52897e-147
2.89186e-12 -2.01863e-145 -2.01863e-145
2.08026e-13 -1.58642e-143 -1.58642e-143
1.39934e-14 -1.22707e-141 -1.22707e-141
8.83452e-16 -9.33783e-140 -9.33783e-140
5.25239e-17 -6.98828e-138 -6.98828e-138
2.94973e-18 -5.14109e-136 -5.14109e-136
1.56922e-19 -3.71621e-134 -3.71621e-134
7.92835e-21 -2.63809e-132 -2.63809e-132
3.81336e-22 -1.8382e-130 -1.8382e-130
1.74987e-23 -1.25651e-128 -1.25651e-128
7.67625e-25 -8.42044e-127 -8.42044e-127
3.22508e-26 -5.5286e-125 -5.5286e-125
1.29994e-27 -3.55379e-123 -3.55379e-123
5.03487e-29 -2.23471e-121 -2.23471e-121
1.87662e-30 -1.3735e-119 -1.3735e-119
6.74039e-32 -8.24337e-118 -8.24337e-118
2.33599e-33 -4.82606e-116 -4.82606e-116
7.82084e-35 -2.75289e-114 -2.75289e-114
2.53234e-36 -1.52804e-112 -1.52804e-112
7.93839e-38 -8.24131e-111 -8.24131e-111
2.41166e-39 -4.31189e-109 -4.31189e-109
7.1069e-41 -2.18445e-107 -2.18445e-107
2.03331e-42 -1.0693e-105 -1.0693e-105
5.65262e-44 -5.04513e-104 -5.04513e-104
1.52813e-45 -2.28786e-102 -2.28786e-102
4.02028e-47 -9.93839e-101 -9.93839e-101
1.03002e-48 -4.1191e-99 -4.1191e-99
2.57172e-50 -1.62108e-97 -1.62108e-97
6.2613e-52 -6.02252e-96 -6.02252e-96
1.48741e-53 -2.09676e-94 -2.09676e-94
3.44968e-55 -6.77772e-93 -6.77772e-93
7.81529e-57 -2.00966e-91 -2.00966e-91
1.73046e-58 -5.37756e-90 -5.37756e-90
3.74665e-60 -1.26925e-88 -1.26925e-88
7.93607e-62 -2.55463e-87 -2.55463e-87
1.6453e-63 -4.15399e-86 -4.15399e-86
3.34012e-65 -4.95146e-85 -4.95146e-85
6.77194e-67 -3.48216e-84 -3.48216e-84
6.7397e-67 -6.03577e-84 -6.03577e-84
0.018 -9.77614e-173 -9.68953e-168
0.0211697 -3.06892e-168 1.0871e-163
0.01795 5.30214e-167 -1.20876e-161
0.00802871 -6.08999e-164 1.3195e-159
0.0017421 -4.13372e-162 -9.07568e-157
0 -4.07276e-162 -9.089e-157
0 0 0
0 0 3.30362e-152
4.03595e-09 -3.52912e-150 -3.15677e-150
7.249e-10 -4.12845e-150 -4.17308e-150
8.82022e-11 -3.86225e-148 -3.8662e-148
8.84235e-12 -3.19779e-146 -3.19779e-146
7.75976e-13 -2.58073e-144 -2.58073e-144
6.1307e-14 -2.05136e-142 -2.05136e-142
4.43143e-15 -1.60545e-140 -1.60545e-140
2.96171e-16 -1.23667e-138 -1.23667e-138
1.84423e-17 -9.37232e-137 -9.37232e-137
1.07621e-18 -6.98548e-135 -6.98548e-135
5.91337e-20 -5.11815e-133 -5.11815e-133
3.07133e-21 -3.68463e-131 -3.68463e-131
1.51293e-22 -2.60509e-129 -2.60509e-129
7.08874e-24 -1.80786e-127 -1.80786e-127
3.16728e-25 -1.23075e-125 -1.23075e-125
1.35256e-26 -8.21414e-124 -8.21414e-124
5.53179e-28 -5.37091e-122 -5.37091e-122
2.1708e-29 -3.43799e-120 -3.43799e-120
8.18751e-31 -2.15267e-118 -2.15267e-118
2.97258e-32 -1.31729e-116 -1.31729e-116
1.04036e-33 -7.87017e-115 -7.87017e-115
3.51457e-35 -4.5858e-113 -4.5858e-113
1.14745e-36 -2.60282e-111 -2.60282e-111
3.62459e-38 -1.43706e-109 -1.43706e-109
1.10895e-39 -7.70625e-108 -7.70625e-108
3.28945e-41 -4.00667e-106 -4.00667e-106
9.46885e-43 -2.0157e-104 -2.0157e-104
2.64738e-44 -9.78957e-103 -9.78957e-103
7.19512e-46 -4.57747e-101 -4.57747e-101
1.9024e-47 -2.05414e-99 -2.05414e-99
4.89697e-49 -8.8132e-98 -8.8132e-98
1.22806e-50 -3.59872e-96 -3.59872e-96
3.00236e-52 -1.39071e-94 -1.39071e-94
7.16035e-54 -5.05076e-93 -5.05076e-93
1.66683e-55 -1.70855e-91 -1.70855e-91
3.7895e-57 -5.32066e-90 -5.32066e-90
8.41865e-59 -1.5014e-88 -1.5014e-88
1.82851e-60 -3.75438e-87 -3.75438e-87
3.88476e-62 -8.04771e-86 -8.04771e-86
8.07693e-64 -1.40181e-84 -1.40181e-84
1.64417e-65 -1.80049e-83 -1.80049e-83
3.3423e-67 -1.36771e-82 -1.36771e-82
3.32619e-67 -2.3954e-82 -2.3954e-82
0.0196 -2.44342e-173 1.87263e-167
0.0233015 -5.87585e-169 -1.83461e-163
0.0214108 -4.18695e-168 1.74784e-161
0.0105073 -1.06004e-164 -1.4055e-159
0.00239725 -6.61661e-163 -1.01118e-157
0.000152485 -6.51064e-163 1.17204e-154
0 0 1.17303e-154
0 0 0
0 0 -3.15313e-150
5.09779e-11 3.2898e-148 2.89594e-148
9.8431e-12 -3.73332e-147 -3.77028e-147
1.25081e-12 -3.41104e-145 -3.41104e-145
1.28536e-13 -2.78428e-143 -2.78428e-143
1.14128e-14 -2.23925e-141 -2.23925e-141
9.03858e-16 -1.77389e-139 -1.77389e-139
6.50504e-17 -1.38369e-137 -1.38369e-137
4.30745e-18 -1.06239e-135 -1.06239e-135
2.6478e-19 -8.02584e-134 -8.02584e-134
1.52124e-20 -5.96328e-132 -5.96328e-132
8.21313e-22 -4.3559e-130 -4.3559e-130
4.18551e-23 -3.12655e-128 -3.12655e-128
2.02087e-24 -2.20408e-126 -2.20408e-126
9.27399e-26 -1.52521e-124 -1.52521e-124
4.05644e-27 -1.03543e-122 -1.03543e-122
1.69527e-28 -6.89158e-121 -6.89158e-121
6.78413e-30 -4.49393e-119 -4.49393e-119
2.60474e-31 -2.86889e-117 -2.86889e-117
9.61213e-33 -1.79152e-115 -1.79152e-115
3.41476e-34 -1.09332e-113 -1.09332e-113
1.16957e-35 -6.51401e-112 -6.51401e-112
3.86729e-37 -3.78473e-110 -3.78473e-110
1.23608e-38 -2.14167e-108 -2.14167e-108
3.82341e-40 -1.17862e-106 -1.17862e-106
1.14574e-41 -6.29782e-105 -6.29782e-105
3.3296e-43 -3.26127e-103 -3.26127e-103
9.39238e-45 -1.63314e-101 -1.63314e-101
2.57408e-46 -7.88855e-100 -7.88855e-100
6.85945e-48 -3.6645e-98 -3.6645e-98
1.77876e-49 -1.63128e-96 -1.63128e-96
4.4919e-51 -6.92887e-95 -6.92887e-95
1.10542e-52 -2.79326e-93 -2.79326e-93
2.65273e-54 -1.06167e-91 -1.06167e-91
6.2116e-56 -3.77219e-90 -3.77219e-90
1.42009e-57 -1.23897e-88 -1.23897e-88
3.17159e-59 -3.70487e-87 -3.70487e-87
6.92339e-61 -9.87089e-86 -9.87089e-86
1.47797e-62 -2.26856e-84 -2.26856e-84
3.08697e-64 -4.26691e-83 -4.26691e-83
6.31137e-66 -5.96264e-82 -5.96264e-82
1.28844e-67 -4.94945e-81 -4.94945e-81
1.28211e-67 -8.76431e-81 -8.76431e-81
0.0196 -1.59129e-171 1.84619e-167
0.0232992 -2.3189e-167 -1.8052e-163
0.0214043 -2.70611e-165 1.73099e-161
0.0105038 -7.93004e-163 -1.40692e-159
0.00242558 -6.03601e-161 -8.44469e-158
0.000307199 -2.25848e-159 -2.43862e-157
1.48463e-05 -2.19891e-159 -1.15841e-152
0 0 -1.1584e-152
0 0 0
0 0 2.93419e-148
6.16926e-13 -3.44289e-146 -3.41673e-146
2.71358e-13 -2.9495e-144 -2.94953e-144
4.41064e-14 -2.43608e-142 -2.43608e-142
5.02694e-15 -1.98303e-140 -1.98303e-140
4.66145e-16 -1.5907e-138 -1.5907e-138
3.73911e-17 -1.25698e-136 -1.25698e-136
2.67904e-18 -9.78162e-135 -9.78162e-135
1.7481e-19 -7.49335e-133 -7.49335e-133
1.05225e-20 -5.64886e-131 -5.64886e-131
5.89692e-22 -4.1888e-129 -4.1888e-129
3.09804e-23 -3.05404e-127 -3.05404e-127
1.5341e-24 -2.18834e-125 -2.18834e-125
7.1916e-26 -1.54026e-123 -1.54026e-123
3.20318e-27 -1.06432e-121 -1.06432e-121
1.35976e-28 -7.21609e-120 -7.21609e-120
5.51594e-30 -4.79736e-118 -4.79736e-118
2.14321e-31 -3.12516e-116 -3.12516e-116
7.99261e-33 -1.99332e-114 -1.99332e-114
2.8661e-34 -1.24381e-112 -1.24381e-112
9.89898e-36 -7.58566e-111 -7.58566e-111
3.29791e-37 -4.51693e-109 -4.51693e-109
1.06128e-38 -2.62298e-107 -2.62298e-107
3.30305e-40 -1.48345e-105 -1.48345e-105
9.95391e-42 -8.15879e-104 -8.15879e-104
2.9076e-43 -4.35614e-102 -4.35614e-102
8.24081e-45 -2.25338e-100 -2.25338e-100
2.26833e-46 -1.1267e-98 -1.1267e-98
6.06903e-48 -5.4303e-97 -5.4303e-97
1.57967e-49 -2.51448e-95 -2.51448e-95
4.00296e-51 -1.11414e-93 -1.11414e-93
9.88273e-53 -4.70056e-92 -4.70056e-92
2.37876e-54 -1.87661e-90 -1.87661e-90
5.58578e-56 -7.03292e-89 -7.03292e-89
1.28039e-57 -2.44815e-87 -2.44815e-87
2.86667e-59 -7.80176e-86 -7.80176e-86
6.27238e-61 -2.22959e-84 -2.22959e-84
1.34194e-62 -5.53798e-83 -5.53798e-83
2.80866e-64 -1.13575e-81 -1.13575e-81
5.75364e-66 -1.74758e-80 -1.74758e-80
1.1768e-67 -1.60887e-79 -1.60887e-79
1.17102e-67 -2.88244e-79 -2.88244e-79
0.018 -6.6589e-170 -1.76161e-167
0.0211454 -1.59193e-165 2.2764e-163
0.0179061 -3.18572e-163 -2.86855e-161
0.00800557 -4.87427e-161 4.50393e-159
0.00177839 -3.854e-159 1.73729e-157
0.000253269 -2.14419e-157 1.76536e-156
2.68144e-05 -8.23079e-156 1.09428e-156
1.0751e-06 -8.02018e-156 1.09537e-150
0 0 1.09537e-150
0 0 0
0 -2.26547e-145 -2.26109e-145
2.34069e-12 -1.94223e-143 -1.94218e-143
3.23244e-13 -1.6233e-141 -1.6233e-141
3.15134e-14 -1.33793e-139 -1.33793e-139
2.57651e-15 -1.08714e-137 -1.08714e-137
1.86757e-16 -8.7062e-136 -8.7062e-136
1.23176e-17 -6.86957e-134 -6.86957e-134
7.50293e-19 -5.33884e-132 -5.33884e-132
4.26168e-20 -4.08536e-130 -4.08536e-130
2.27277e-21 -3.07695e-128 -3.07695e-128
1.14396e-22 -2.28005e-126 -2.28005e-126
5.4569e-24 -1.66158e-124 -1.66158e-124
2.47534e-25 -1.19028e-122 -1.19028e-122
1.07085e-26 -8.37765e-121 -8.37765e-121
4.42898e-28 -5.79035e-119 -5.79035e-119
1.75514e-29 -3.92779e-117 -3.92779e-117
6.67722e-31 -2.61323e-115 -2.61323e-115
2.44292e-32 -1.7041e-113 -1.7041e-113
8.60876e-34 -1.08835e-111 -1.08835e-111
2.92626e-35 -6.80196e-110 -6.80196e-110
9.60729e-37 -4.15605e-108 -4.15605e-108
3.05024e-38 -2.48e-106 -2.48e-106
9.37567e-40 -1.44354e-104 -1.44354e-104
2.79294e-41 -8.18511e-103 -8.18511e-103
8.07119e-43 -4.51401e-101 -4.51401e-101
2.26479e-44 -2.41691e-99 -2.41691e-99
6.17596e-46 -1.25372e-97 -1.25372e-97
1.63803e-47 -6.28496e-96 -6.28496e-96
4.22869e-49 -3.03571e-94 -3.03571e-94
1.06334e-50 -1.40764e-92 -1.40764e-92
2.60627e-52 -6.23788e-91 -6.23788e-91
6.2305e-54 -2.62674e-89 -2.62674e-89
1.45362e-55 -1.04335e-87 -1.04335e-87
3.31173e-57 -3.87095e-86 -3.87095e-86
7.37188e-59 -1.32346e-84 -1.32346e-84
1.60417e-60 -4.08938e-83 -4.08938e-83
3.41418e-62 -1.10851e-81 -1.10851e-81
7.11051e-64 -2.50887e-80 -2.50887e-80
1.44975e-65 -4.3162e-79 -4.3162e-79
2.95166e-67 -4.49451e-78 -4.49451e-78
2.93746e-67 -8.15318e-78 -8.15318e-78
0.0148 -4.65062e-168 -8.50119e-168
0.0164212 -1.26312e-163 1.45686e-163
0.0118978 -1.81833e-161 -3.79759e-161
0.00459124 -1.99928e-159 -6.95249e-159
0.000973728 -1.68167e-157 -2.92504e-157
0.00014611 -1.21716e-155 -1.36641e-155
1.82745e-05 -7.63601e-154 -7.77238e-154
1.79611e-06 -3.55692e-152 -3.56429e-152
6.10828e-08 -3.48176e-152 -1.0222e-148
4.91585e-09 0 -9.23238e-147
4.03005e-10 -1.00125e-144 -1.01038e-144
3.33046e-11 -8.68478e-143 -8.68478e-143
2.55653e-12 -7.34825e-141 -7.34825e-141
1.8301e-13 -6.13395e-139 -6.13395e-139
1.22628e-14 -5.05034e-137 -5.05034e-137
7.71785e-16 -4.10025e-135 -4.10025e-135
4.57705e-17 -3.28163e-133 -3.28163e-133
2.5653e-18 -2.58839e-131 -2.58839e-131
1.3625e-19 -2.0114e-129 -2.0114e-129
6.87494e-21 -1.5394e-127 -1.5394e-127
3.30322e-22 -1.15994e-125 -1.15994e-125
1.51449e-23 -8.60175e-124 -8.60175e-124
6.63915e-25 -6.27524e-122 -6.27524e-122
2.78782e-26 -4.50171e-120 -4.50171e-120