# vtk DataFile Version 2.0
Tobias Weinzierl: CPU, Manycore and Cluster Computing
ASCII

DATASET STRUCTURED_POINTS
DIMENSIONS  51 11 6

ORIGIN 0 0 0 

SPACING 0.1 0.1 0.1 

POINT_DATA 3366

VECTORS velocity float
0 0 0
4.58203e-14 0 0
-1.86314e-10 0 0
-2.05227e-10 0 0
-1.86703e-09 0 0
1.61538e-09 0 0
2.37745e-09 0 0
2.45804e-09 0 0
2.75021e-09 0 0
3.35233e-09 0 0
4.00237e-09 0 0
4.37117e-09 0 0
4.27731e-09 0 0
3.71141e-09 0 0
2.69708e-09 0 0
1.37234e-09 0 0
4.35829e-11 0 0
-1.00301e-09 0 0
-1.71846e-09 0 0
-2.26795e-09 0 0
-2.84696e-09 0 0
-3.54571e-09 0 0
-4.33613e-09 0 0
-5.13069e-09 0 0
-5.84427e-09 0 0
-6.42639e-09 0 0
-6.86446e-09 0 0
-7.1722e-09 0 0
-7.37564e-09 0 0
-7.50266e-09 0 0
-7.57768e-09 0 0
-7.61887e-09 0 0
-7.63695e-09 0 0
-7.63969e-09 0 0
-7.63474e-09 0 0
-7.61622e-09 0 0
-7.55772e-09 0 0
-7.437e-09 0 0
-7.2641e-09 0 0
-7.08003e-09 0 0
-6.93267e-09 0 0
-6.85527e-09 0 0
-6.85723e-09 0 0
-6.92205e-09 0 0
-7.01165e-09 0 0
-7.08136e-09 0 0
-7.10203e-09 0 0
-7.07789e-09 0 0
-7.04533e-09 0 0
-7.04225e-09 0 0
0.00140607 0 0
0 3.90237e-07 0
2.41431e-14 -7.97554e-11 0
-2.94577e-10 -6.09723e-10 0
2.53613e-10 -1.84543e-10 0
-8.01699e-10 -1.33414e-09 0
5.09736e-09 -1.38687e-09 0
5.94844e-09 9.74121e-10 0
5.89641e-09 6.87532e-10 0
7.28796e-09 -7.8605e-10 0
9.68128e-09 -2.14826e-09 0
1.1914e-08 -2.95627e-09 0
1.31763e-08 -3.03138e-09 0
1.30162e-08 -2.19226e-09 0
1.14206e-08 -5.70691e-10 0
8.80962e-09 1.12121e-09 0
5.84206e-09 2.08553e-09 0
3.10305e-09 2.10706e-09 0
8.36209e-10 1.58133e-09 0
-1.11928e-09 1.04449e-09 0
-3.10538e-09 7.7709e-10 0
-5.35913e-09 7.59424e-10 0
-7.88395e-09 8.386e-10 0
-1.04955e-08 8.84179e-10 0
-1.2948e-08 8.44921e-10 0
-1.50452e-08 7.32578e-10 0
-1.66924e-08 5.84452e-10 0
-1.78905e-08 4.35733e-10 0
-1.87016e-08 3.08326e-10 0
-1.92123e-08 2.10878e-10 0
-1.9507e-08 1.43286e-10 0
-1.96553e-08 1.00613e-10 0
-1.97067e-08 7.49853e-11 0
-1.96867e-08 6.00723e-11 0
-1.96034e-08 5.38687e-11 0
-1.9464e-08 4.63841e-11 0
-1.92503e-08 1.36099e-11 0
-1.88916e-08 -5.4466e-11 0
-1.8318e-08 -1.29355e-10 0
-1.75363e-08 -1.64215e-10 0
-1.66383e-08 -1.32353e-10 0
-1.57457e-08 -4.19814e-11 0
-1.49571e-08 7.50699e-11 0
-1.43246e-08 1.78961e-10 0
-1.38453e-08 2.33788e-10 0
-1.34624e-08 2.21356e-10 0
-1.30944e-08 1.53415e-10 0
-1.26863e-08 7.11074e-11 0
-1.2257e-08 2.68885e-11 0
-1.19018e-08 5.55762e-11 0
-1.17263e-08 1.27662e-10 0
0.00401728 -1.04245e-05 0
0 -1.93328e-08 0
4.34565e-13 -1.7974e-10 0
4.93827e-10 -1.80417e-09 0
2.78034e-09 -4.06408e-09 0
5.25138e-09 -7.17687e-09 0
9.34576e-09 -5.13782e-09 0
7.20593e-09 7.4864e-11 0
5.92253e-09 -4.15607e-10 0
7.36245e-09 -3.26912e-09 0
1.13617e-08 -5.99936e-09 0
1.50067e-08 -8.33568e-09 0
1.66043e-08 -9.88159e-09 0
1.60027e-08 -9.4823e-09 0
1.34426e-08 -6.69775e-09 0
9.89656e-09 -2.5788e-09 0
6.31026e-09 1.42466e-09 0
3.17476e-09 4.43668e-09 0
5.38702e-10 6.20498e-09 0
-1.79877e-09 6.8643e-09 0
-4.08248e-09 6.73634e-09 0
-6.47274e-09 6.15371e-09 0
-8.98672e-09 5.3479e-09 0
-1.15003e-08 4.44743e-09 0
-1.38155e-08 3.53168e-09 0
-1.57559e-08 2.66721e-09 0
-1.72305e-08 1.90981e-09 0
-1.8243e-08 1.29376e-09 0
-1.8862e-08 8.27195e-10 0
-1.91822e-08 4.96451e-10 0
-1.92929e-08 2.75371e-10 0
-1.92619e-08 1.33876e-10 0
-1.91338e-08 3.89603e-11 0
-1.89223e-08 -4.29234e-11 0
-1.86084e-08 -1.34143e-10 0
-1.8174e-08 -2.5894e-10 0
-1.75906e-08 -4.65341e-10 0
-1.67608e-08 -7.79966e-10 0
-1.5572e-08 -1.14711e-09 0
-1.40107e-08 -1.45528e-09 0
-1.21898e-08 -1.61782e-09 0
-1.02789e-08 -1.61701e-09 0
-8.43344e-09 -1.49228e-09 0
-6.76644e-09 -1.31246e-09 0
-5.33313e-09 -1.1523e-09 0
-4.11586e-09 -1.06178e-09 0
-3.0458e-09 -1.0331e-09 0
-2.06512e-09 -9.93832e-10 0
-1.19434e-09 -8.41711e-10 0
-5.46828e-10 -4.99706e-10 0
-2.07052e-10 2.54076e-11 0
0.00574257 -2.69645e-05 0
0 -6.4528e-07 0
1.10593e-12 -1.08598e-09 0
1.28425e-09 -4.03579e-09 0
4.33866e-09 -7.82658e-09 0
6.0593e-09 -1.06692e-08 0
5.86377e-09 -5.79446e-09 0
3.63397e-09 -3.66971e-12 0
2.48418e-09 -1.21116e-09 0
1.72001e-09 -4.51407e-09 0
3.56456e-09 -9.03185e-09 0
6.70304e-09 -1.37681e-08 0
8.13647e-09 -1.72231e-08 0
7.80882e-09 -1.72936e-08 0
5.47644e-09 -1.34597e-08 0
1.88221e-09 -6.98802e-09 0
-2.12037e-09 5.418e-10 0
-5.80229e-09 7.33669e-09 0
-8.56878e-09 1.18077e-08 0
-1.00822e-08 1.3375e-08 0
-1.041e-08 1.26154e-08 0
-9.98469e-09 1.06154e-08 0
-9.33661e-09 8.28366e-09 0
-8.81744e-09 6.11152e-09 0
-8.51646e-09 4.27737e-09 0
-8.35365e-09 2.81326e-09 0
-8.21337e-09 1.7005e-09 0
-8.02241e-09 9.00488e-10 0
-7.76187e-09 3.61682e-10 0
-7.44642e-09 2.40194e-11 0
-7.0984e-09 -1.75418e-10 0
-6.72814e-09 -2.94833e-10 0
-6.33396e-09 -3.88315e-10 0
-5.89902e-09 -5.12677e-10 0
-5.36814e-09 -7.11136e-10 0
-4.68864e-09 -1.01592e-09 0
-3.82575e-09 -1.48804e-09 0
-2.66213e-09 -2.16543e-09 0
-1.04721e-09 -2.96026e-09 0
1.04111e-09 -3.68316e-09 0
3.4545e-09 -4.16414e-09 0
5.97134e-09 -4.33232e-09 0
8.38752e-09 -4.21332e-09 0
1.05443e-08 -3.8958e-09 0
1.23473e-08 -3.49817e-09 0
1.37993e-08 -3.11888e-09 0
1.49847e-08 -2.77738e-09 0
1.59926e-08 -2.39576e-09 0
1.68346e-08 -1.84554e-09 0
1.74153e-08 -1.05719e-09 0
1.774e-08 -1.24902e-10 0
0.00645429 -4.54549e-05 0
0 -1.26688e-06 0
2.46474e-13 -2.10172e-09 0
2.92077e-10 -5.93822e-09 0
1.39057e-09 -7.89282e-09 0
1.42395e-09 -6.38056e-09 0
-4.86191e-13 -2.32554e-09 0
-3.22814e-11 -3.23208e-11 0
3.10755e-11 -3.16154e-11 0
-1.10467e-09 -2.53659e-09 0
-4.56796e-09 -9.10497e-09 0
-6.2236e-09 -1.66144e-08 0
-5.32931e-09 -2.20973e-08 0
-5.44891e-09 -2.29527e-08 0
-7.25422e-09 -1.80561e-08 0
-1.01168e-08 -8.96357e-09 0
-1.32792e-08 1.78856e-09 0
-1.59996e-08 1.10163e-08 0
-1.75189e-08 1.62516e-08 0
-1.72263e-08 1.70015e-08 0
-1.50389e-08 1.45723e-08 0
-1.15432e-08 1.08308e-08 0
-7.65677e-09 7.15527e-09 0
-4.13536e-09 4.16939e-09 0
-1.32741e-09 1.98448e-09 0
7.63721e-10 4.9974e-10 0
2.29413e-09 -4.31488e-10 0
3.43484e-09 -9.48746e-10 0
4.31412e-09 -1.17618e-09 0
5.01525e-09 -1.22228e-09 0
5.5924e-09 -1.18113e-09 0
6.09307e-09 -1.1304e-09 0
6.56295e-09 -1.13204e-09 0
7.03799e-09 -1.25036e-09 0
7.58998e-09 -1.5416e-09 0
8.30243e-09 -2.04041e-09 0
9.21561e-09 -2.81619e-09 0
1.04815e-08 -3.91768e-09 0
1.23084e-08 -5.2161e-09 0
1.47142e-08 -6.42323e-09 0
1.74837e-08 -7.25899e-09 0
2.03176e-08 -7.57626e-09 0
2.29549e-08 -7.379e-09 0
2.52048e-08 -6.78759e-09 0
2.6969e-08 -5.98917e-09 0
2.82859e-08 -5.15866e-09 0
2.93011e-08 -4.36651e-09 0
3.0156e-08 -3.55248e-09 0
3.08934e-08 -2.59164e-09 0
3.14227e-08 -1.42151e-09 0
3.17898e-08 -2.61655e-10 0
0.00667715 -6.16593e-05 0
0 -1.14839e-06 0
-9.32493e-13 -2.04676e-09 0
-1.09334e-09 -4.73295e-09 0
-1.33565e-09 -6.04642e-09 0
-2.06703e-09 -6.23987e-09 0
-1.46163e-09 -2.88004e-09 0
-3.15863e-11 3.10693e-11 0
8.19479e-15 -8.19479e-15 0
3.14283e-11 -3.07219e-11 0
-3.09971e-09 -4.36766e-09 0
-1.07143e-08 -1.50293e-08 0
-1.38771e-08 -2.37686e-08 0
-1.61187e-08 -2.47187e-08 0
-1.82216e-08 -1.87743e-08 0
-1.97445e-08 -8.29841e-09 0
-2.04778e-08 3.42327e-09 0
-2.04033e-08 1.27243e-08 0
-1.9395e-08 1.71485e-08 0
-1.70755e-08 1.65652e-08 0
-1.32457e-08 1.27489e-08 0
-8.31664e-09 7.9281e-09 0
-3.16145e-09 3.63794e-09 0
1.39655e-09 4.85219e-10 0
4.93317e-09 -1.52355e-09 0
7.4276e-09 -2.61383e-09 0
9.08041e-09 -3.04451e-09 0
1.01405e-08 -3.04392e-09 0
1.08179e-08 -2.799e-09 0
1.12637e-08 -2.45551e-09 0
1.15767e-08 -2.12391e-09 0
1.18264e-08 -1.88701e-09 0
1.20718e-08 -1.80254e-09 0
1.23435e-08 -1.92785e-09 0
1.26992e-08 -2.32637e-09 0
1.32403e-08 -3.03916e-09 0
1.40121e-08 -4.15176e-09 0
1.52351e-08 -5.72992e-09 0
1.72341e-08 -7.5888e-09 0
2.00148e-08 -9.31381e-09 0
2.32441e-08 -1.04969e-08 0
2.64915e-08 -1.09088e-08 0
2.93986e-08 -1.05401e-08 0
3.17358e-08 -9.56652e-09 0
3.34375e-08 -8.27026e-09 0
3.46343e-08 -6.9211e-09 0
3.55696e-08 -5.65039e-09 0
3.64296e-08 -4.41979e-09 0
3.72463e-08 -3.11185e-09 0
3.7902e-08 -1.66157e-09 0
3.84131e-08 -3.85872e-10 0
0.00665443 -7.22972e-05 0
0 -7.9097e-07 0
-4.35516e-13 -1.1905e-09 0
-1.07065e-09 -3.06287e-09 0
-1.08417e-09 -4.02924e-09 0
-2.52779e-09 -4.40026e-09 0
-3.35097e-09 -3.57851e-09 0
-1.52296e-09 -1.33495e-09 0
-3.09843e-11 3.1154e-11 0
2.76612e-13 -2.76612e-13 0
3.26007e-11 -3.02555e-11 0
-4.88282e-09 -8.17773e-09 0
-1.34446e-08 -2.0086e-08 0
-1.97611e-08 -2.22441e-08 0
-2.33455e-08 -1.59847e-08 0
-2.44132e-08 -5.53342e-09 0
-2.30883e-08 5.07419e-09 0
-2.00131e-08 1.24784e-08 0
-1.60734e-08 1.49872e-08 0
-1.17353e-08 1.30258e-08 0
-7.10079e-09 8.53655e-09 0
-2.39904e-09 3.64816e-09 0
1.87077e-09 -3.01176e-10 0
5.21718e-09 -2.88871e-09 0
7.43169e-09 -4.24303e-09 0
8.61776e-09 -4.68194e-09 0
9.05053e-09 -4.52713e-09 0
9.02608e-09 -4.04583e-09 0
8.77946e-09 -3.44181e-09 0
8.46634e-09 -2.85925e-09 0
8.17229e-09 -2.3937e-09 0
7.93744e-09 -2.11006e-09 0
7.79094e-09 -2.05244e-09 0
7.73289e-09 -2.26587e-09 0
7.7807e-09 -2.8183e-09 0
8.03631e-09 -3.76483e-09 0
8.54341e-09 -5.21832e-09 0
9.63343e-09 -7.26718e-09 0
1.18598e-08 -9.64568e-09 0
1.52212e-08 -1.17835e-08 0
1.92117e-08 -1.31638e-08 0
2.31901e-08 -1.35223e-08 0
2.66283e-08 -1.288e-08 0
2.92441e-08 -1.14948e-08 0
3.10509e-08 -9.74355e-09 0
3.23305e-08 -7.97016e-09 0
3.34372e-08 -6.34276e-09 0
3.45656e-08 -4.83032e-09 0
3.56855e-08 -3.31877e-09 0
3.66331e-08 -1.74816e-09 0
3.7341e-08 -4.68383e-10 0
0.00647921 -7.72029e-05 0
0 -5.53984e-07 0
3.96265e-13 -6.73027e-10 0
-4.01742e-10 -1.89001e-09 0
-4.75774e-10 -2.99003e-09 0
-1.60979e-09 -3.31839e-09 0
-3.77716e-09 -2.18239e-09 0
-4.37999e-09 -4.91756e-10 0
-2.76021e-09 1.45307e-10 0
-3.21929e-11 3.01143e-11 0
3.27979e-11 2.78208e-11 0
2.45183e-12 -4.5853e-09 0
-7.5674e-09 -1.31772e-08 0
-1.77422e-08 -1.55187e-08 0
-2.53048e-08 -9.15685e-09 0
-2.78644e-08 1.68884e-10 0
-2.50126e-08 7.67602e-09 0
-1.86205e-08 1.1184e-08 0
-1.14877e-08 1.05698e-08 0
-5.56206e-09 7.11834e-09 0
-1.39863e-09 2.74593e-09 0
1.22564e-09 -9.8319e-10 0
2.63098e-09 -3.38754e-09 0
3.03566e-09 -4.51813e-09 0
2.64215e-09 -4.73755e-09 0
1.70293e-09 -4.41982e-09 0
4.89905e-10 -3.84571e-09 0
-7.6793e-10 -3.20181e-09 0
-1.91983e-09 -2.606e-09 0
-2.89217e-09 -2.13043e-09 0
-3.67151e-09 -1.81714e-09 0
-4.28177e-09 -1.69578e-09 0
-4.74837e-09 -1.79612e-09 0
-5.11296e-09 -2.15824e-09 0
-5.40616e-09 -2.85598e-09 0
-5.54301e-09 -3.96342e-09 0
-5.49351e-09 -5.60803e-09 0
-4.79414e-09 -7.86102e-09 0
-2.52986e-09 -1.03315e-08 0
1.25988e-09 -1.23241e-08 0
5.92962e-09 -1.33467e-08 0
1.05857e-08 -1.32549e-08 0
1.45162e-08 -1.22116e-08 0
1.74362e-08 -1.05695e-08 0
1.9505e-08 -8.72368e-09 0
2.1161e-08 -6.98389e-09 0
2.27975e-08 -5.46782e-09 0
2.45241e-08 -4.10593e-09 0
2.61898e-08 -2.7725e-09 0
2.75696e-08 -1.4285e-09 0
2.84901e-08 -3.89702e-10 0
0.00613066 -7.86205e-05 0
0 -4.69407e-07 0
4.54274e-13 -3.4469e-10 0
1.00695e-10 -1.03731e-09 0
-1.63036e-10 -1.71534e-09 0
-1.82848e-09 -1.98981e-09 0
-4.77709e-09 -7.23293e-10 0
-6.61097e-09 1.24588e-09 0
-6.50252e-09 -3.74283e-10 0
-4.33185e-09 -1.37641e-09 0
-3.36428e-09 3.78e-14 0
-2.00196e-09 -3.77263e-09 0
-7.31958e-09 -8.25808e-09 0
-1.86041e-08 -6.86394e-09 0
-2.78361e-08 -1.36946e-09 0
-2.94318e-08 4.52993e-09 0
-2.33482e-08 7.74693e-09 0
-1.38032e-08 7.51528e-09 0
-5.5894e-09 4.7302e-09 0
-1.17505e-09 1.04612e-09 0
-3.74752e-10 -1.96969e-09 0
-1.76358e-09 -3.56225e-09 0
-4.02624e-09 -3.87057e-09 0
-6.42868e-09 -3.45008e-09 0
-8.68499e-09 -2.79877e-09 0
-1.07083e-08 -2.18568e-09 0
-1.24693e-08 -1.69893e-09 0
-1.39573e-08 -1.34226e-09 0
-1.51803e-08 -1.09945e-09 0
-1.61677e-08 -9.60327e-10 0
-1.69682e-08 -9.2496e-10 0
-1.76435e-08 -1.00472e-09 0
-1.8251e-08 -1.2261e-09 0
-1.88592e-08 -1.62978e-09 0
-1.95338e-08 -2.2863e-09 0
-2.0232e-08 -3.278e-09 0
-2.09541e-08 -4.6791e-09 0
-2.11123e-08 -6.41546e-09 0
-1.94014e-08 -7.96924e-09 0
-1.61299e-08 -8.79599e-09 0
-1.18549e-08 -8.73478e-09 0
-7.6311e-09 -7.91253e-09 0
-4.17192e-09 -6.6728e-09 0
-1.56225e-09 -5.35175e-09 0
5.64714e-10 -4.17371e-09 0
2.67709e-09 -3.24179e-09 0
5.00739e-09 -2.52298e-09 0
7.44996e-09 -1.88712e-09 0
9.70885e-09 -1.21345e-09 0
1.15126e-08 -5.07641e-10 0
1.25972e-08 -1.48065e-11 0
0.00542062 -7.38548e-05 0
0 -4.83622e-07 0
7.35739e-13 -2.84626e-11 0
3.39964e-10 -1.47725e-10 0
-8.27164e-11 -3.13051e-10 0
-2.13016e-09 -3.84605e-10 0
-5.63124e-09 -2.78487e-10 0
-8.0777e-09 6.20482e-10 0
-8.04647e-09 4.87217e-10 0
-9.39093e-09 -5.85297e-10 0
-8.72425e-09 -1.02168e-09 0
-7.2781e-09 -1.52225e-09 0
-1.03349e-08 -7.14229e-10 0
-1.56507e-08 1.23119e-09 0
-1.93334e-08 2.67142e-09 0
-1.79319e-08 3.16292e-09 0
-1.19517e-08 2.59827e-09 0
-5.049e-09 1.21595e-09 0
-7.74143e-10 -3.62705e-10 0
-3.04655e-10 -1.48047e-09 0
-2.61044e-09 -1.85514e-09 0
-5.97333e-09 -1.64517e-09 0
-9.16292e-09 -1.19426e-09 0
-1.16974e-08 -7.70714e-10 0
-1.35763e-08 -4.82598e-10 0
-1.49654e-08 -3.25388e-10 0
-1.60246e-08 -2.5408e-10 0
-1.68632e-08 -2.29681e-10 0
-1.75505e-08 -2.32027e-10 0
-1.81358e-08 -2.55163e-10 0
-1.86646e-08 -3.03296e-10 0
-1.9186e-08 -3.86858e-10 0
-1.97517e-08 -5.23072e-10 0
-2.04291e-08 -7.34882e-10 0
-2.12927e-08 -1.0602e-09 0
-2.23598e-08 -1.54447e-09 0
-2.36099e-08 -2.13673e-09 0
-2.4349e-08 -2.63257e-09 0
-2.33254e-08 -2.7129e-09 0
-2.13952e-08 -2.33032e-09 0
-1.89234e-08 -1.69965e-09 0
-1.68222e-08 -9.99777e-10 0
-1.54617e-08 -4.11957e-10 0
-1.453e-08 -2.58811e-11 0
-1.34887e-08 1.71197e-10 0
-1.1998e-08 2.35291e-10 0
-1.00699e-08 2.37026e-10 0
-7.96807e-09 2.44731e-10 0
-6.01189e-09 2.98158e-10 0
-4.44548e-09 3.66365e-10 0
-3.55085e-09 3.51005e-10 0
0.00382123 -4.77881e-05 0
0 0 0
5.83965e-13 0 0
2.04926e-10 0 0
-2.03502e-11 0 0
-1.00141e-09 0 0
-2.7415e-09 0 0
-4.32405e-09 0 0
-4.30423e-09 0 0
-5.06013e-09 0 0
-5.35976e-09 0 0
-5.27371e-09 0 0
-5.34855e-09 0 0
-5.15253e-09 0 0
-4.68094e-09 0 0
-3.4807e-09 0 0
-1.6873e-09 0 0
-1.74534e-10 0 0
2.56637e-10 0 0
-4.89839e-10 0 0
-1.90521e-09 0 0
-3.38264e-09 0 0
-4.56929e-09 0 0
-5.39485e-09 0 0
-5.93848e-09 0 0
-6.30673e-09 0 0
-6.57857e-09 0 0
-6.79976e-09 0 0
-6.99496e-09 0 0
-7.17905e-09 0 0
-7.36584e-09 0 0
-7.57216e-09 0 0
-7.81921e-09 0 0
-8.1367e-09 0 0
-8.56003e-09 0 0
-9.11321e-09 0 0
-9.76556e-09 0 0
-1.01459e-08 0 0
-9.74413e-09 0 0
-9.14648e-09 0 0
-8.50412e-09 0 0
-8.18423e-09 0 0
-8.23912e-09 0 0
-8.40136e-09 0 0
-8.37375e-09 0 0
-8.03169e-09 0 0
-7.43093e-09 0 0
-6.71259e-09 0 0
-6.01374e-09 0 0
-5.43658e-09 0 0
-5.11276e-09 0 0
0.00135225 0 0
0 0 5.41331e-07
1.22397e-13 0 2.66371e-10
-7.30655e-10 0 8.15296e-10
-4.60415e-10 0 1.86556e-09
-6.45239e-09 0 -4.86175e-10
2.69197e-09 0 -2.85732e-09
5.42217e-09 0 -1.81649e-09
6.32697e-09 0 -1.06001e-09
7.15793e-09 0 -1.07962e-10
8.1802e-09 0 8.96367e-10
9.57983e-09 0 1.9377e-09
1.17239e-08 0 2.75669e-09
1.43195e-08 0 2.85227e-09
1.63419e-08 0 2.15116e-09
1.65628e-08 0 1.21811e-09
1.452e-08 0 5.68207e-10
1.08423e-08 0 2.68519e-10
6.63177e-09 0 1.80945e-10
2.62451e-09 0 2.20676e-10
-1.04801e-09 0 3.51629e-10
-4.54251e-09 0 5.18539e-10
-7.95076e-09 0 6.50776e-10
-1.11911e-08 0 7.01005e-10
-1.40905e-08 0 6.63412e-10
-1.65017e-08 0 5.63301e-10
-1.83658e-08 0 4.35902e-10
-1.97121e-08 0 3.10246e-10
-2.06247e-08 0 2.0301e-10
-2.12067e-08 0 1.19723e-10
-2.15544e-08 0 5.8896e-11
-2.1746e-08 0 1.57288e-11
-2.18375e-08 0 -1.55932e-11
-2.18596e-08 0 -3.91414e-11
-2.1828e-08 0 -5.59703e-11
-2.17548e-08 0 -6.97584e-11
-2.16195e-08 0 -9.05537e-11
-2.13432e-08 0 -1.24675e-10
-2.0844e-08 0 -1.64193e-10
-2.01159e-08 0 -1.92701e-10
-1.92426e-08 0 -1.99022e-10
-1.83468e-08 0 -1.82726e-10
-1.75338e-08 0 -1.50472e-10
-1.68629e-08 0 -1.12146e-10
-1.63353e-08 0 -7.9343e-11
-1.5897e-08 0 -6.20257e-11
-1.54674e-08 0 -6.30159e-11
-1.49909e-08 0 -7.45652e-11
-1.44855e-08 0 -8.3566e-11
-1.40547e-08 0 -9.12051e-11
-1.38328e-08 0 -1.32769e-10
0.00396825 0 1.09321e-05
0.0036 -3.09581e-07 -6.26826e-08
0.00359979 -0.00138967 -2.16864e-05
0.00670024 -0.00393768 0.00011361
0.013612 -0.0058786 -0.000492448
0.0235044 -0.0144888 -0.0042668
0.0464028 -0.0134588 -0.00488859
0.0499403 -0.00194777 -0.0016465
0.0496836 0.0026241 -0.000163913
0.0447051 0.00494696 0.000573039
0.0391088 0.00510875 0.000569052
0.0340189 0.0044356 0.000311502
0.0297512 0.00354922 4.55592e-05
0.0263689 0.00268178 -0.000147318
0.0237967 0.00193327 -0.000250351
0.0218783 0.00134697 -0.000274786
0.0204427 0.000923178 -0.000244173
0.0193512 0.000634985 -0.000184757
0.0185096 0.000446389 -0.000119098
0.0178588 0.000323457 -6.25897e-05
0.017361 0.00024007 -2.23174e-05
0.0169879 0.000179544 1.50393e-06
0.0167156 0.000133078 1.25033e-05
0.0165224 9.68106e-05 1.53088e-05
0.0163891 6.9158e-05 1.3856e-05
0.0162987 4.92013e-05 1.081e-05
0.0162371 3.60333e-05 7.65504e-06
0.016193 2.86848e-05 5.03963e-06
0.0161574 2.62649e-05 3.13079e-06
0.016123 2.81117e-05 1.8766e-06
0.0160839 3.38774e-05 1.16487e-06
0.0160343 4.35409e-05 9.02596e-07
0.0159687 5.73797e-05 1.0572e-06
0.0158809 7.58757e-05 1.66938e-06
0.0157636 9.94745e-05 2.82111e-06
0.0156092 0.000128297 4.63319e-06
0.0154095 0.000161708 7.2481e-06
0.0151579 0.000197376 1.05804e-05
0.0148527 0.000230638 1.40614e-05
0.0144997 0.000255461 1.68131e-05
0.0141135 0.000266696 1.81355e-05
0.0137145 0.000262021 1.78507e-05
0.0133244 0.000242423 1.62633e-05
0.0129626 0.000211331 1.38823e-05
0.0126434 0.000173222 1.11854e-05
0.0123756 0.000132431 8.53151e-06
0.0121632 9.23879e-05 6.15281e-06
0.0120061 5.52944e-05 4.1372e-06
0.011901 2.22099e-05 2.32498e-06
0.0118423 -3.62747e-06 2.7319e-06
0.011824 -9.37286e-06 1.60083e-05
0.0118241 -4.75051e-06 2.79823e-05
0.01 -1.37999e-07 -1.47103e-06
0.0100008 -0.00298474 -0.000598397
0.0147869 -0.00996943 -0.000793546
0.0241944 -0.0177669 -0.00122966
0.0386325 -0.0326474 -0.0033347
0.0593519 -0.0249627 -0.000812558
0.0565732 -0.00277494 0.00318991
0.0560076 0.00505687 0.00339
0.0502347 0.0100179 0.00300577
0.0447839 0.0101463 0.0021308
0.0403062 0.00904173 0.00120847
0.0366216 0.00760693 0.000480014
0.0336727 0.00614339 -3.33717e-05
0.0314083 0.0048225 -0.000341433
0.0296742 0.00372664 -0.000465039
0.0283198 0.00285643 -0.000452625
0.0272435 0.00217332 -0.00036297
0.0263885 0.00163675 -0.00024777
0.025723 0.00121594 -0.000142343
0.0252216 0.000888793 -6.36489e-05
0.0248577 0.000638049 -1.42281e-05
0.0246034 0.000449275 1.13344e-05
0.0244322 0.000310335 2.08651e-05
0.0243208 0.000211195 2.13675e-05
0.0242498 0.000143598 1.78139e-05
0.0242039 0.000100769 1.3148e-05
0.024171 7.72872e-05 8.79834e-06
0.0241417 6.90706e-05 5.26503e-06
0.0241087 7.33782e-05 2.58174e-06
0.0240654 8.87586e-05 6.12096e-07
0.0240056 0.00011491 -7.95648e-07
0.0239225 0.000152484 -1.72403e-06
0.0238081 0.000202855 -2.1228e-06
0.0236527 0.000267557 -1.83628e-06
0.0234448 0.000347443 -5.96081e-07
0.0231718 0.000441506 1.96753e-06
0.022822 0.000544459 5.72061e-06
0.0223896 0.000644849 9.39407e-06
0.0218805 0.00072711 1.10947e-05
0.0213136 0.000776942 9.55011e-06
0.020717 0.000786258 4.88868e-06
0.0201214 0.000754901 -1.58728e-06
0.0195547 0.000689098 -8.24594e-06
0.019039 0.000598502 -1.38086e-05
0.0185896 0.000493448 -1.75666e-05
0.0182154 0.000383053 -1.93349e-05
0.0179204 0.000274447 -1.92577e-05
0.0177041 0.000172706 -1.8022e-05
0.0175618 8.1262e-05 -1.42364e-05
0.0174941 1.41581e-05 1.24209e-05
0.017494 -1.01536e-05 3.60581e-05
0.0148 -9.68993e-07 -1.76777e-06
0.0148024 -0.0053007 -0.00112457
0.0204077 -0.0164601 -0.00244958
0.0276172 -0.0289317 -0.00394338
0.0322939 -0.0463702 -0.00577929
0.0307442 -0.0286178 -0.00142319
0.0269321 -1.25011e-05 0.00330922
0.0263679 0.0070467 0.00352581
0.0298518 0.0143522 0.00343668
0.0302011 0.0137269 0.00248272
0.0294189 0.0119081 0.00153828
0.0286043 0.0100428 0.000717458
0.0279965 0.0081769 0.000121922
0.0276956 0.00647333 -0.000238828
0.0275742 0.00506349 -0.000385524
0.027526 0.00392588 -0.000383114
0.0275047 0.00299981 -0.00030187
0.0275003 0.00224297 -0.000196297
0.027514 0.00163413 -0.000100122
0.027545 0.00115921 -2.86839e-05
0.0275887 0.000801493 1.54898e-05
0.0276389 0.000540829 3.68482e-05
0.0276899 0.000356903 4.23683e-05
0.0277374 0.000232035 3.8786e-05
0.0277779 0.000152067 3.12409e-05
0.0278087 0.00010613 2.296e-05
0.0278276 8.61752e-05 1.55637e-05
0.0278327 8.66238e-05 9.60244e-06
0.027822 0.000104128 5.05552e-06
0.0277926 0.000137374 1.69354e-06
0.0277409 0.000186854 -7.12603e-07
0.0276614 0.000254545 -2.28454e-06
0.0275463 0.000343587 -2.903e-06
0.0273851 0.000457539 -2.19151e-06
0.0271638 0.000599079 5.28207e-07
0.0268655 0.000768092 6.25914e-06
0.0264715 0.000956856 1.48517e-05
0.0259699 0.0011456 2.3364e-05
0.0253661 0.00130608 2.73972e-05
0.0246846 0.00141188 2.40957e-05
0.0239623 0.00144744 1.38522e-05
0.0232388 0.00141112 -3.04004e-07
0.0225479 0.00131223 -1.47196e-05
0.0219157 0.00116598 -2.66673e-05
0.0213597 0.000988998 -3.47423e-05
0.0208909 0.000796375 -3.86691e-05
0.0205151 0.000599929 -3.88127e-05
0.0202344 0.000408012 -3.60831e-05
0.0200466 0.000225579 -3.06918e-05
0.019954 6.19704e-05 4.25202e-06
0.0199538 -1.31818e-05 3.57241e-05
0.018 -1.95444e-06 -1.71274e-06
0.018003 -0.00701845 -0.00187352
0.020799 -0.0190686 -0.00492691
0.0207645 -0.0251104 -0.0063511
0.0161147 -0.0271241 -0.00763958
-1.62534e-06 -0.0140736 -0.00434288
9.44112e-05 2.25779e-05 9.38079e-07
-2.97171e-05 3.10745e-05 0.000655802
0.0065529 0.0040408 0.0014475
0.0133537 0.0091331 0.00142304
0.0167423 0.00986915 0.00102057
0.0185335 0.00885936 0.000493256
0.0202475 0.00732402 1.41932e-05
0.0219481 0.00577015 -0.000258468
0.0234668 0.00448979 -0.000339959
0.0247398 0.00345159 -0.000306556
0.0257794 0.00258734 -0.000224311
0.0266232 0.00186747 -0.000134619
0.0273058 0.00128848 -5.80966e-05
0.0278529 0.000847575 -2.2407e-06
0.028284 0.000530705 3.23842e-05
0.0286164 0.00031493 4.87456e-05
0.0288673 0.000175839 5.16074e-05
0.0290526 9.26728e-05 4.61926e-05
0.0291857 4.98056e-05 3.70194e-05
0.0292775 3.61978e-05 2.72319e-05
0.0293363 4.44689e-05 1.85464e-05
0.0293677 7.02267e-05 1.16046e-05
0.0293754 0.000111652 6.4245e-06
0.0293606 0.000169235 2.79063e-06
0.0293224 0.000245574 5.28878e-07
0.0292568 0.000345062 -3.60092e-07
0.0291569 0.000473607 5.1577e-07
0.0290112 0.000637937 4.06316e-06
0.0288029 0.000844145 1.19516e-05
0.0285089 0.00109557 2.70432e-05
0.0280988 0.00138404 4.99e-05
0.027549 0.00167967 7.40221e-05
0.0268638 0.00193667 8.89374e-05
0.0260777 0.0021122 8.76383e-05
0.0252431 0.00218168 7.05417e-05
0.0244124 0.00214272 4.40221e-05
0.0236268 0.0020094 1.57055e-05
0.0229146 0.00180373 -8.8852e-06
0.0222932 0.00154919 -2.70239e-05
0.0217725 0.00126679 -3.82333e-05
0.0213576 0.000972907 -4.33984e-05
0.0210505 0.000678839 -4.40558e-05
0.0208484 0.00039227 -4.14245e-05
0.0207523 0.000119888 -5.76455e-06
0.0207521 -1.18908e-05 2.7841e-05
0.0196 -2.84343e-06 -2.58268e-06
0.019601 -0.00593447 -0.00274381
0.0190523 -0.0132463 -0.00648727
0.015925 -0.0162991 -0.00669992
0.010852 -0.0152887 -0.0066966
0.00170089 -0.00630422 -0.00504838
6.93023e-05 -6.33226e-05 -0.00130576
3.36055e-05 -3.36055e-05 -4.27213e-08
-2.91072e-05 3.03269e-05 0.000264686
0.00386239 0.00268835 0.000567786
0.00880169 0.00624469 0.00050156
0.0116964 0.0064552 0.000152906
0.014937 0.00502079 -0.00023184
0.0180838 0.00369064 -0.000403573
0.0207777 0.00273437 -0.000405445
0.0229582 0.00200557 -0.000326677
0.0246877 0.00139814 -0.000228073
0.0260502 0.000886949 -0.000139347
0.0271146 0.000483842 -6.96264e-05
0.0279325 0.000197223 -1.90903e-05
0.0285458 1.70702e-05 1.40788e-05
0.0289927 -7.97889e-05 3.20649e-05
0.0293091 -0.000118726 3.79416e-05
0.0295269 -0.0001203 3.56642e-05
0.0296723 -9.85305e-05 2.91894e-05
0.0297658 -6.19078e-05 2.15764e-05
0.0298221 -1.48377e-05 1.46538e-05
0.0298514 4.13469e-05 9.21959e-06
0.0298603 0.000107809 5.44752e-06
0.0298519 0.0001879 3.28434e-06
0.0298265 0.000287059 2.80198e-06
0.0297812 0.000412681 4.38696e-06
0.0297088 0.000574061 9.07255e-06
0.0295969 0.000782038 1.8867e-05
0.0294245 0.00104775 3.75402e-05
0.0291598 0.00138161 7.28085e-05
0.0287538 0.00177893 0.000128982
0.0281603 0.00219735 0.000192854
0.027382 0.00256573 0.000239533
0.0264721 0.0028192 0.000251543
0.0255096 0.00292358 0.00022851
0.0245669 0.00287845 0.000183308
0.0236938 0.00270575 0.00013117
0.0229187 0.00243628 8.2835e-05
0.0222555 0.002101 4.34836e-05
0.02171 0.00172678 1.39998e-05
0.0212833 0.00133427 -7.28393e-06
0.0209748 0.000937955 -2.29682e-05
0.020779 0.000548862 -3.42629e-05
0.0206928 0.00017478 -1.11493e-05
0.0206926 -7.86612e-06 1.6475e-05
0.0196 -1.37126e-06 -3.6091e-06
0.0195999 -0.00370252 -0.00312845
0.0187506 -0.00813856 -0.00652877
0.0174938 -0.00818784 -0.00605869
0.0131535 -0.00436811 -0.00554518
0.00905218 0.00251345 -0.0053401
0.00613527 0.00313113 -0.0031298
6.94834e-05 -5.71618e-05 -0.000680291
2.80546e-05 -2.80546e-05 -1.28466e-07
-2.85652e-05 2.96493e-05 9.77348e-05
0.0026403 0.00183128 0.000371123
0.00685956 0.00279365 0.000272433
0.012082 0.00127032 -0.000166951
0.0166914 0.000372066 -0.000371995
0.0202812 4.51755e-05 -0.00038579
0.0229674 -0.000104051 -0.000312685
0.0249634 -0.000244793 -0.000222614
0.0264424 -0.000388646 -0.000146445
0.0275238 -0.000496662 -8.96106e-05
0.0282921 -0.000541824 -4.84012e-05
0.0288159 -0.000525099 -1.93323e-05
0.0291555 -0.000465135 -7.28628e-07
0.0293639 -0.000383276 8.91523e-06
0.0294838 -0.000295109 1.19189e-05
0.0295478 -0.000208976 1.1018e-05
0.0295781 -0.000127653 8.55678e-06
0.0295897 -5.03189e-05 6.06839e-06
0.0295914 2.61789e-05 4.35114e-06
0.0295882 0.000106718 3.77499e-06
0.029582 0.00019771 4.60811e-06
0.0295725 0.000307257 7.40249e-06
0.0295565 0.00044543 1.32831e-05
0.0295269 0.000624673 2.44849e-05
0.02947 0.000860146 4.50951e-05
0.0293605 0.00116894 8.28683e-05
0.0291558 0.00157174 0.000156263
0.0287804 0.00207282 0.000281333
0.0281482 0.00261513 0.000432937
0.027259 0.00309277 0.000553122
0.0261991 0.00341486 0.000600955
0.0250907 0.00354059 0.00057509
0.0240332 0.00347703 0.000501459
0.0230833 0.00325818 0.000409195
0.0222654 0.00292506 0.000317965
0.0215853 0.00251583 0.000237029
0.0210401 0.00206216 0.000168117
0.0206246 0.00158793 0.000108782
0.0203336 0.00111014 5.54574e-05
0.0201586 0.000643568 8.37889e-06
0.0200906 0.000202584 -2.97444e-06
0.0200904 -9.84114e-06 7.15887e-06
0.018 -8.71495e-07 -3.60413e-06
0.0180009 -0.00201831 -0.00305171
0.0183111 -0.00390888 -0.00616752
0.0183592 -0.00272433 -0.0052909
0.0173334 0.000561411 -0.00419046
0.0170462 0.00702161 -0.00396574
0.0177786 0.012553 -0.00301846
0.010913 0.0069257 -0.00151372
7.09584e-05 -4.33651e-05 -0.000441767
-2.15544e-05 -5.11544e-05 5.62028e-07
7.98272e-06 -0.000761915 0.000755114
0.00820133 -0.00300452 0.00109752
0.0154206 -0.0045688 0.000448334
0.0203327 -0.00414665 0.000111227
0.0234682 -0.00316974 -2.36435e-05
0.0254708 -0.00235093 -6.77187e-05
0.0267663 -0.0018156 -7.86008e-05
0.0275955 -0.00147566 -7.9762e-05
0.0280973 -0.00122525 -7.61322e-05
0.0283649 -0.00100412 -6.70117e-05
0.0284719 -0.000796144 -5.33074e-05
0.0284792 -0.00060663 -3.82403e-05
0.0284339 -0.00044332 -2.5012e-05
0.0283689 -0.000308574 -1.51509e-05
0.028304 -0.000199384 -8.54071e-06
0.0282496 -0.000109816 -4.25185e-06
0.0282101 -3.2923e-05 -1.2442e-06
0.0281865 3.84172e-05 1.36186e-06
0.0281783 0.00011147 4.32699e-06
0.0281843 0.000194014 8.47717e-06
0.0282031 0.000294983 1.50944e-05
0.0282321 0.000425304 2.63955e-05
0.0282654 0.000598862 4.64504e-05
0.0282905 0.000833813 8.278e-05
0.0282794 0.00115222 0.000149921
0.0281802 0.00158353 0.000285383
0.0278878 0.00214233 0.000529339
0.0272534 0.002758 0.000833727
0.0262704 0.00329068 0.00107643
0.0250745 0.00363004 0.00117736
0.0238495 0.00373775 0.00114012
0.0227209 0.00363588 0.00101743
0.0217436 0.003373 0.000861307
0.0209292 0.0029983 0.000703517
0.0202693 0.0025533 0.000557563
0.0197503 0.00207042 0.000425357
0.0193603 0.00157311 0.000303322
0.0190906 0.00107822 0.000187302
0.0189325 0.000602583 8.07124e-05
0.0188758 0.000170656 1.42138e-05
0.0188756 -3.06371e-05 -2.62388e-06
0.0148 -4.88351e-07 -3.19296e-06
0.0148015 -0.00104236 -0.00283261
0.016228 -0.00166755 -0.0054324
0.017782 -6.95415e-05 -0.00429296
0.0190865 0.00312397 -0.00305969
0.0208042 0.00731494 -0.00283476
0.024612 0.0129721 -0.00240985
0.0279041 0.0195001 -0.00152703
0.0229532 0.0112751 -0.000354569
0.023413 4.83717e-11 0.000620089
0.0265638 -0.00673855 0.00156175
0.0299346 -0.0131652 0.00212056
0.0306638 -0.0110775 0.00164453
0.030018 -0.00770275 0.0011318
0.0290136 -0.00502009 0.000667457
0.0280765 -0.00327546 0.000315144
0.0273049 -0.00221406 8.95942e-05
0.0266806 -0.0015538 -3.31391e-05
0.0261679 -0.00110868 -8.55875e-05
0.0257429 -0.000784611 -9.49908e-05
0.0253938 -0.000542292 -8.1942e-05
0.0251143 -0.000364098 -6.09601e-05
0.024898 -0.000236687 -4.06527e-05
0.0247375 -0.000146656 -2.46576e-05
0.0246243 -8.15977e-05 -1.34174e-05
0.0245506 -3.13832e-05 -5.90961e-06
0.0245096 1.17456e-05 -7.44616e-07
0.0244966 5.38877e-05 3.3786e-06
0.0245085 0.000100446 7.65421e-06
0.0245446 0.00015705 1.33932e-05
0.0246051 0.000230444 2.25068e-05
0.0246909 0.000329532 3.82732e-05
0.0248009 0.000466564 6.67732e-05
0.024928 0.000659085 0.000119843
0.0250483 0.000929312 0.000221414
0.0251094 0.00130191 0.000431106
0.0249833 0.00178689 0.000812085
0.0244397 0.00231385 0.00127113
0.0234755 0.00275481 0.00161302
0.0222641 0.00300862 0.00172818
0.021062 0.00304605 0.00163796
0.0199988 0.00290765 0.00144088
0.0191071 0.00264857 0.00121459
0.0183759 0.00231426 0.000996834
0.0177828 0.00193812 0.000798143
0.017308 0.00154371 0.000615721
0.0169401 0.00114676 0.000442786
0.0166743 0.000758832 0.000274738
0.0165082 0.000392894 0.000118918
0.01644 7.5508e-05 7.98132e-06
0.0164399 -6.63235e-05 -3.02193e-05
0.01 -9.35011e-07 -2.89361e-06
0.0100008 -0.000638491 -0.00230691
0.0113174 -0.000724122 -0.00414699
0.0131676 0.000533766 -0.00290572
0.0155788 0.00249831 -0.00179784
0.0194503 0.00554488 -0.00180317
0.0253539 0.00835926 -0.0023584
0.0344742 0.0101198 -0.00209449
0.0460823 0.00481376 -0.000516708
0.0458395 -0.00403193 0.000977911
0.0453464 -0.0082354 0.00161722
0.0380105 -0.00840658 0.0018023
0.0310167 -0.00574597 0.00155892
0.0259045 -0.00330381 0.00113062
0.0225392 -0.00171524 0.000686387
0.0204079 -0.000842733 0.000335184
0.0190546 -0.000412245 0.000112003
0.018173 -0.000211412 -3.64974e-06
0.0175815 -0.000116977 -4.88327e-05
0.0171773 -6.94009e-05 -5.52736e-05