# vtk DataFile Version 2.0
Tobias Weinzierl: CPU, Manycore and Cluster Computing
ASCII

DATASET STRUCTURED_POINTS
DIMENSIONS  51 11 6

ORIGIN 0 0 0 

SPACING 0.1 0.1 0.1 

POINT_DATA 3366

VECTORS velocity float
0 0 0
1.05507e-08 0 0
1.95623e-08 0 0
1.63578e-08 0 0
7.49312e-09 0 0
2.15328e-09 0 0
4.7123e-10 0 0
8.64002e-11 0 0
1.3913e-11 0 0
2.0166e-12 0 0
2.66793e-13 0 0
3.25009e-14 0 0
3.66832e-15 0 0
3.85464e-16 0 0
3.78624e-17 0 0
3.48891e-18 0 0
3.02572e-19 0 0
2.4769e-20 0 0
1.91916e-21 0 0
1.41101e-22 0 0
9.86672e-24 0 0
6.57627e-25 0 0
4.18618e-26 0 0
2.54975e-27 0 0
1.48857e-28 0 0
8.34319e-30 0 0
4.49614e-31 0 0
2.33293e-32 0 0
1.16704e-33 0 0
5.6355e-35 0 0
2.62989e-36 0 0
1.18734e-37 0 0
5.1914e-39 0 0
2.20033e-40 0 0
9.04854e-42 0 0
3.61351e-43 0 0
1.40246e-44 0 0
5.29421e-46 0 0
1.94525e-47 0 0
6.96167e-49 0 0
2.42831e-50 0 0
8.26074e-52 0 0
2.74232e-53 0 0
8.88895e-55 0 0
2.81483e-56 0 0
8.71265e-58 0 0
2.63731e-59 0 0
7.81073e-61 0 0
2.26439e-62 0 0
6.60719e-64 0 0
1.97092e-61 0 0
0 -2.75453e-156 0
3.66311e-08 -1.94062e-154 0
8.48871e-08 -1.56591e-152 0
8.22489e-08 -1.16644e-150 0
3.97828e-08 -7.24138e-149 0
1.06845e-08 -3.54292e-147 0
2.17148e-09 -1.21561e-145 0
3.74613e-10 -2.45634e-146 0
5.76151e-11 -1.26102e-144 0
8.07414e-12 -7.29867e-143 0
1.04232e-12 -4.14634e-141 0
1.24732e-13 -2.31781e-139 0
1.3896e-14 -1.27494e-137 0
1.44623e-15 -6.89851e-136 0
1.41043e-16 -3.67024e-134 0
1.29269e-17 -1.9192e-132 0
1.11648e-18 -9.85905e-131 0
9.11083e-20 -4.97306e-129 0
7.04194e-21 -2.46184e-127 0
5.16738e-22 -1.19537e-125 0
3.60784e-23 -5.68965e-124 0
2.40172e-24 -2.65297e-122 0
1.52733e-25 -1.21098e-120 0
9.29533e-27 -5.4072e-119 0
5.42318e-28 -2.35983e-117 0
3.03799e-29 -1.00571e-115 0
1.63645e-30 -4.18145e-114 0
8.48807e-32 -1.69423e-112 0
4.24489e-33 -6.68185e-111 0
2.0493e-34 -2.5617e-109 0
9.5614e-36 -9.53307e-108 0
4.31604e-37 -3.43796e-106 0
1.88684e-38 -1.19932e-104 0
7.99632e-40 -4.03857e-103 0
3.28806e-41 -1.30964e-101 0
1.31298e-42 -4.07866e-100 0
5.09558e-44 -1.21606e-98 0
1.92346e-45 -3.45825e-97 0
7.06707e-47 -9.33945e-96 0
2.5291e-48 -2.38273e-94 0
8.82158e-50 -5.70632e-93 0
3.00093e-51 -1.27278e-91 0
9.9621e-53 -2.61799e-90 0
3.2291e-54 -4.90306e-89 0
1.02255e-55 -8.22043e-88 0
3.16506e-57 -1.20535e-86 0
9.58065e-59 -1.4943e-85 0
2.83746e-60 -1.48621e-84 0
8.2261e-62 -1.08356e-83 0
2.4003e-63 -4.81826e-83 0
7.17608e-61 -1.92634e-80 0
0 -2.56375e-155 0
4.75929e-08 -1.7841e-153 0
1.66118e-07 -1.7968e-151 0
2.16385e-07 -1.81988e-149 0
1.19992e-07 -1.61549e-147 0
2.64263e-08 -1.20672e-145 0
4.63998e-09 -8.16043e-144 0
7.19032e-10 -3.2563e-145 0
1.02904e-10 -1.40584e-143 0
1.37396e-11 -8.3523e-142 0
1.71706e-12 -4.79952e-140 0
2.01062e-13 -2.70944e-138 0
2.20767e-14 -1.50527e-136 0
2.27544e-15 -8.22881e-135 0
2.20483e-16 -4.42466e-133 0
2.01212e-17 -2.33917e-131 0
1.73299e-18 -1.21533e-129 0
1.41166e-19 -6.2025e-128 0
1.08992e-20 -3.10789e-126 0
7.9931e-22 -1.52812e-124 0
5.57935e-23 -7.36866e-123 0
3.71408e-24 -3.4825e-121 0
2.36226e-25 -1.61203e-119 0
1.43806e-26 -7.30334e-118 0
8.39296e-28 -3.23586e-116 0
4.70349e-29 -1.4009e-114 0
2.53469e-30 -5.92057e-113 0
1.31531e-31 -2.44012e-111 0
6.58089e-33 -9.79615e-110 0
3.17852e-34 -3.82602e-108 0
1.48369e-35 -1.4517e-106 0
6.70046e-37 -5.34269e-105 0
2.93056e-38 -1.90382e-103 0
1.2425e-39 -6.55549e-102 0
5.1113e-41 -2.1762e-100 0
2.04187e-42 -6.94644e-99 0
7.92758e-44 -2.12552e-97 0
2.99363e-45 -6.21229e-96 0
1.10032e-46 -1.72693e-94 0
3.93917e-48 -4.54277e-93 0
1.37448e-49 -1.12382e-91 0
4.6773e-51 -2.5946e-90 0
1.55322e-52 -5.53647e-89 0
5.03619e-54 -1.07831e-87 0
1.59528e-55 -1.88516e-86 0
4.9393e-57 -2.89078e-85 0
1.49556e-58 -3.75961e-84 0
4.43054e-60 -3.93489e-83 0
1.2848e-61 -3.02588e-82 0
3.74993e-63 -1.4161e-81 0
1.12223e-60 -5.8239e-79 0
0 -1.15617e-156 0
2.71913e-08 -8.12528e-155 0
1.87438e-07 -6.40503e-153 0
3.82813e-07 -4.66321e-151 0
2.66947e-07 -2.29864e-149 0
1.78951e-08 -2.25264e-149 0
2.93973e-09 0 0
4.30819e-10 5.42715e-142 0
6.61435e-11 -1.23188e-142 0
9.30449e-12 -8.30316e-141 0
1.21091e-12 -4.88283e-139 0
1.46459e-13 -2.78766e-137 0
1.65111e-14 -1.56483e-135 0
1.73932e-15 -8.64626e-134 0
1.71643e-16 -4.70069e-132 0
1.59088e-17 -2.51359e-130 0
1.3885e-18 -1.32143e-128 0
1.14411e-19 -6.82681e-127 0
8.92254e-21 -3.4642e-125 0
6.60144e-22 -1.72575e-123 0
4.64407e-23 -8.43536e-122 0
3.11309e-24 -4.04317e-120 0
1.99242e-25 -1.89913e-118 0
1.21976e-26 -8.73574e-117 0
7.15532e-28 -3.93215e-115 0
4.02857e-29 -1.73058e-113 0
2.18021e-30 -7.44029e-112 0
1.13577e-31 -3.12176e-110 0
5.70304e-33 -1.27687e-108 0
2.76366e-34 -5.08516e-107 0
1.294e-35 -1.96921e-105 0
5.86047e-37 -7.40376e-104 0
2.56998e-38 -2.69805e-102 0
1.09232e-39 -9.51141e-101 0
4.50393e-41 -3.23656e-99 0
1.80315e-42 -1.06038e-97 0
7.01502e-44 -3.33506e-96 0
2.65412e-45 -1.00347e-94 0
9.77299e-47 -2.87659e-93 0
3.50473e-48 -7.81782e-92 0
1.22487e-49 -2.00223e-90 0
4.17456e-51 -4.79645e-89 0
1.38829e-52 -1.06463e-87 0
4.50761e-54 -2.16283e-86 0
1.42972e-55 -3.95612e-85 0
4.43221e-57 -6.36852e-84 0
1.34361e-58 -8.72662e-83 0
3.98493e-60 -9.65893e-82 0
1.15683e-61 -7.87858e-81 0
3.38001e-63 -3.90468e-80 0
1.0075e-60 -1.6536e-77 0
0 -3.37017e-158 0
5.13839e-09 -2.39191e-156 0
1.3732e-07 -1.5692e-154 0
4.9237e-07 -8.9698e-153 0
4.45397e-07 -3.28337e-151 0
0 -3.19522e-151 0
0 0 0
0 0 0
6.94163e-12 -3.69091e-140 0
1.79276e-12 -6.49001e-140 0
3.13122e-13 -4.27299e-138 0
4.53089e-14 -2.4881e-136 0
5.76766e-15 -1.41162e-134 0
6.63343e-16 -7.88595e-133 0
6.99553e-17 -4.33633e-131 0
6.82956e-18 -2.34617e-129 0
6.21489e-19 -1.24851e-127 0
5.29968e-20 -6.53182e-126 0
4.2533e-21 -3.35805e-124 0
3.22443e-22 -1.69566e-122 0
2.31639e-23 -8.40548e-121 0
1.58131e-24 -4.08802e-119 0
1.02838e-25 -1.94952e-117 0
6.38554e-27 -9.11e-116 0
3.79349e-28 -4.16846e-114 0
2.16016e-29 -1.86622e-112 0
1.18109e-30 -8.16782e-111 0
6.21027e-32 -3.49141e-109 0
3.14489e-33 -1.45612e-107 0
1.53587e-34 -5.91834e-106 0
7.24274e-36 -2.34126e-104 0
3.30188e-37 -9.00174e-103 0
1.45681e-38 -3.35836e-101 0
6.22702e-40 -1.21354e-99 0
2.58112e-41 -4.23837e-98 0
1.03844e-42 -1.42727e-96 0
4.05857e-44 -4.62118e-95 0
1.54218e-45 -1.43384e-93 0
5.70162e-47 -4.24657e-92 0
2.05248e-48 -1.19483e-90 0
7.19901e-50 -3.17528e-89 0
2.46187e-51 -7.91285e-88 0
8.21347e-53 -1.83221e-86 0
2.67493e-54 -3.89515e-85 0
8.50878e-56 -7.48194e-84 0
2.645e-57 -1.26974e-82 0
8.03912e-59 -1.8421e-81 0
2.39019e-60 -2.16838e-80 0
6.95517e-62 -1.88843e-79 0
2.03685e-63 -9.9847e-79 0
6.00225e-61 -4.35876e-76 0
0 -6.67045e-159 0
-1.39204e-09 -4.73174e-157 0
8.63245e-08 -2.60155e-155 0
5.20086e-07 -1.29079e-153 0
5.84401e-07 -4.36056e-152 0
9.53008e-08 -4.23404e-152 0
0 0 0
0 0 0
0 0 0
1.70356e-13 2.40902e-138 0
4.78816e-14 -2.9175e-137 0
8.83105e-15 -1.875e-135 0
1.32076e-15 -1.07552e-133 0
1.71027e-16 -6.07667e-132 0
1.97757e-17 -3.38075e-130 0
2.07878e-18 -1.85143e-128 0
2.01025e-19 -9.97661e-127 0
1.80375e-20 -5.2877e-125 0
1.51164e-21 -2.75531e-123 0
1.18945e-22 -1.41089e-121 0
8.82605e-24 -7.09619e-120 0
6.19882e-25 -3.50373e-118 0
4.13386e-26 -1.69732e-116 0
2.62494e-27 -8.06224e-115 0
1.59099e-28 -3.75243e-113 0
9.22494e-30 -1.71008e-111 0
5.12705e-31 -7.62467e-110 0
2.7363e-32 -3.32308e-108 0
1.40465e-33 -1.41434e-106 0
6.94606e-35 -5.87211e-105 0
3.31341e-36 -2.37539e-103 0
1.52665e-37 -9.34955e-102 0
6.80221e-39 -3.5752e-100 0
2.93419e-40 -1.3259e-98 0
1.22661e-41 -4.75951e-97 0
4.9742e-43 -1.6499e-95 0
1.95856e-44 -5.50854e-94 0
7.49407e-46 -1.76577e-92 0
2.7888e-47 -5.41406e-91 0
1.0101e-48 -1.58066e-89 0
3.56349e-50 -4.36985e-88 0
1.2253e-51 -1.13607e-86 0
4.10914e-53 -2.75304e-85 0
1.34482e-54 -6.14725e-84 0
4.29769e-56 -1.2452e-82 0
1.34186e-57 -2.23863e-81 0
4.09556e-59 -3.458e-80 0
1.22256e-60 -4.35791e-79 0
3.57106e-62 -4.08416e-78 0
1.0497e-63 -2.32469e-77 0
3.04348e-61 -1.04729e-74 0
0 -2.4192e-157 0
-1.53024e-09 -1.69893e-155 0
8.60631e-08 -1.02885e-153 0
5.19462e-07 -5.95562e-152 0
6.0181e-07 -2.72649e-150 0
2.01803e-07 -7.51045e-149 0
1.66232e-08 -7.24366e-149 0
0 0 0
0 0 0
0 0 0
4.13337e-15 -1.88778e-136 0
2.30881e-15 -1.14708e-134 0
5.22219e-16 -6.65544e-133 0
8.44498e-17 -3.80418e-131 0
1.12111e-17 -2.14203e-129 0
1.29397e-18 -1.18774e-127 0
1.33806e-19 -6.48334e-126 0
1.26235e-20 -3.48251e-124 0
1.09972e-21 -1.84004e-122 0
8.9236e-23 -9.55906e-121 0
6.78877e-24 -4.88044e-119 0
4.86715e-25 -2.44761e-117 0
3.30231e-26 -1.20513e-115 0
2.12787e-27 -5.82211e-114 0
1.30606e-28 -2.75812e-112 0
7.65599e-30 -1.28037e-110 0
4.29593e-31 -5.81996e-109 0
2.31215e-32 -2.5883e-107 0
1.19584e-33 -1.12518e-105 0
5.9532e-35 -4.7765e-104 0
2.85694e-36 -1.97783e-102 0
1.32351e-37 -7.97834e-101 0
5.92626e-39 -3.13087e-99 0
2.56787e-40 -1.19329e-97 0
1.0779e-41 -4.40905e-96 0
4.38772e-43 -1.57593e-94 0
1.73367e-44 -5.43543e-93 0
6.65498e-46 -1.80366e-91 0
2.48396e-47 -5.73806e-90 0
9.02191e-49 -1.74267e-88 0
3.19104e-50 -5.02601e-87 0
1.09989e-51 -1.36752e-85 0
3.69692e-53 -3.4809e-84 0
1.21248e-54 -8.19771e-83 0
3.88251e-56 -1.75962e-81 0
1.21451e-57 -3.3702e-80 0
3.71344e-59 -5.58003e-79 0
1.11035e-60 -7.58879e-78 0
3.24844e-62 -7.72713e-77 0
9.56338e-64 -4.78888e-76 0
2.77372e-61 -2.22916e-73 0
0 -8.37402e-156 0
4.35136e-09 -5.83354e-154 0
1.34846e-07 -3.82869e-152 0
4.87929e-07 -2.3935e-150 0
4.6934e-07 -1.2519e-148 0
1.70052e-07 -5.02104e-147 0
2.91575e-08 -1.3732e-145 0
1.48054e-09 -1.32421e-145 0
0 0 0
0 0 0
0 -8.85962e-136 0
1.26361e-14 -5.36067e-134 0
2.4781e-15 -3.14528e-132 0
3.46002e-16 -1.81924e-130 0
4.07558e-17 -1.03702e-128 0
4.27321e-18 -5.82391e-127 0
4.08733e-19 -3.22129e-125 0
3.61616e-20 -1.75421e-123 0
2.9857e-21 -9.40174e-122 0
2.31516e-22 -4.9572e-120 0
1.69415e-23 -2.5703e-118 0
1.17447e-24 -1.30993e-116 0
7.73838e-26 -6.55876e-115 0
4.85937e-27 -3.22456e-113 0
2.91526e-28 -1.55577e-111 0
1.67445e-29 -7.36159e-110 0
9.22565e-31 -3.41394e-108 0
4.88434e-32 -1.55049e-106 0
2.48878e-33 -6.89047e-105 0
1.22227e-34 -2.99363e-103 0
5.79342e-36 -1.27019e-101 0
2.65353e-37 -5.25729e-100 0
1.1758e-38 -2.11987e-98 0
5.04583e-40 -8.31506e-97 0
2.09921e-41 -3.16732e-95 0
8.47446e-43 -1.16932e-93 0
3.32265e-44 -4.17433e-92 0
1.2663e-45 -1.43704e-90 0
4.69471e-47 -4.7551e-89 0
1.69443e-48 -1.5064e-87 0
5.95777e-50 -4.54656e-86 0
2.04212e-51 -1.29933e-84 0
6.82797e-53 -3.48828e-83 0
2.22831e-54 -8.70603e-82 0
7.10198e-56 -1.99133e-80 0
2.21179e-57 -4.09023e-79 0
6.73432e-59 -7.31672e-78 0
2.00561e-60 -1.08424e-76 0
5.84543e-62 -1.21384e-75 0
1.71454e-63 -8.31099e-75 0
5.06996e-61 -4.00254e-72 0
0 -2.17113e-154 0
2.32052e-08 -1.50155e-152 0
1.75284e-07 -1.03334e-150 0
3.6716e-07 -6.71588e-149 0
2.69654e-07 -3.91716e-147 0
8.98913e-08 -2.01546e-145 0
1.81082e-08 -8.94661e-144 0
2.3779e-09 -2.94571e-142 0
9.67634e-11 -2.85823e-142 0
1.00601e-11 0 0
1.11194e-12 -2.79691e-135 0
1.29675e-13 -1.71088e-133 0
1.42054e-14 -1.01548e-131 0
1.46353e-15 -5.94432e-130 0
1.41974e-16 -3.43078e-128 0
1.29867e-17 -1.95173e-126 0
1.12202e-18 -1.0941e-124 0
9.17322e-20 -6.04168e-123 0
7.11064e-21 -3.28535e-121 0
5.23621e-22 -1.75861e-119 0
3.67023e-23 -9.26305e-118 0
2.45334e-24 -4.79905e-116 0
1.56674e-25 -2.44445e-114 0
9.57548e-27 -1.22355e-112 0
5.60995e-28 -6.01523e-111 0
3.15546e-29 -2.90287e-109 0
1.7065e-30 -1.37429e-107 0
8.88546e-32 -6.3784e-106 0
4.46014e-33 -2.90003e-104 0
2.16092e-34 -1.2906e-102 0
1.01169e-35 -5.61668e-101 0
4.58188e-37 -2.38789e-99 0
2.00941e-38 -9.90579e-98 0
8.54165e-40 -4.00427e-96 0
3.52254e-41 -1.5749e-94 0
1.41054e-42 -6.01597e-93 0
5.4889e-44 -2.2273e-91 0
2.07725e-45 -7.97268e-90 0
7.65097e-47 -2.75104e-88 0
2.74455e-48 -9.11784e-87 0
9.59485e-50 -2.8897e-85 0
3.27111e-51 -8.7083e-84 0
1.08818e-52 -2.47724e-82 0
3.53433e-54 -6.58793e-81 0
1.12138e-55 -1.61617e-79 0
3.47746e-57 -3.58804e-78 0
1.05452e-58 -7.00112e-77 0
3.12855e-60 -1.144e-75 0
9.08517e-62 -1.4296e-74 0
2.65535e-63 -1.10244e-73 0
7.96844e-61 -5.50084e-71 0
0 -3.12586e-153 0
3.15919e-08 -2.1481e-151 0
1.27556e-07 -1.48962e-149 0
1.78622e-07 -1.00698e-147 0
1.04689e-07 -6.72937e-146 0
3.2776e-08 -4.44538e-144 0
7.00739e-09 -2.90262e-142 0
1.15246e-09 -1.8731e-140 0
1.33156e-10 -1.19441e-138 0
1.46485e-11 -7.52481e-137 0
1.65083e-12 -4.68167e-135 0
1.77648e-13 -2.848e-133 0
1.82194e-14 -1.70953e-131 0
1.77771e-15 -1.01248e-129 0
1.64833e-16 -5.91501e-128 0
1.45181e-17 -3.40783e-126 0
1.21494e-18 -1.93568e-124 0
9.66701e-20 -1.08368e-122 0
7.32105e-21 -5.97788e-121 0
5.28381e-22 -3.24812e-119 0
3.6393e-23 -1.73783e-117 0
2.39558e-24 -9.15193e-116 0
1.50924e-25 -4.74218e-114 0
9.11361e-27 -2.41668e-112 0
5.28219e-28 -1.2107e-110 0
2.94252e-29 -5.95962e-109 0
1.57751e-30 -2.88088e-107 0
8.14914e-32 -1.36679e-105 0
4.06118e-33 -6.36011e-104 0
1.95472e-34 -2.90068e-102 0
9.09645e-36 -1.29556e-100 0
4.0969e-37 -5.66172e-99 0
1.78753e-38 -2.4184e-97 0
7.56251e-40 -1.00854e-95 0
3.10504e-41 -4.10078e-94 0
1.23827e-42 -1.62321e-92 0
4.80016e-44 -6.24358e-91 0
1.81012e-45 -2.32866e-89 0
6.64478e-47 -8.39981e-88 0
2.37612e-48 -2.92113e-86 0
8.28235e-50 -9.75529e-85 0
2.8158e-51 -3.11293e-83 0
9.3426e-53 -9.43013e-82 0
3.02689e-54 -2.68846e-80 0
9.58122e-56 -7.12651e-79 0
2.96459e-57 -1.72586e-77 0
8.97102e-59 -3.71614e-76 0
2.65618e-60 -6.7964e-75 0
7.69871e-62 -9.66895e-74 0
2.24593e-63 -8.62341e-73 0
6.78956e-61 -4.46479e-70 0
0 0 0
1.34166e-08 0 0
3.67035e-08 0 0
3.99642e-08 0 0
2.08139e-08 0 0
6.43521e-09 0 0
1.43356e-09 0 0
2.55093e-10 0 0
3.63922e-11 0 0
4.58843e-12 0 0
5.38896e-13 0 0
5.94511e-14 0 0
6.18502e-15 0 0
6.08052e-16 0 0
5.65655e-17 0 0
4.98539e-18 0 0
4.16805e-19 0 0
3.31017e-20 0 0
2.50084e-21 0 0
1.80013e-22 0 0
1.23645e-23 0 0
8.1166e-25 0 0
5.09986e-26 0 0
3.07163e-27 0 0
1.77592e-28 0 0
9.86992e-30 0 0
5.27968e-31 0 0
2.72172e-32 0 0
1.35373e-33 0 0
6.50373e-35 0 0
3.02131e-36 0 0
1.35853e-37 0 0
5.9183e-39 0 0
2.50021e-40 0 0
1.02514e-41 0 0
4.0829e-43 0 0
1.58079e-44 0 0
5.9542e-46 0 0
2.18333e-47 0 0
7.7993e-49 0 0
2.71588e-50 0 0
9.22464e-52 0 0
3.05793e-53 0 0
9.89888e-55 0 0
3.13082e-56 0 0
9.67978e-58 0 0
2.92699e-59 0 0
8.66026e-61 0 0
2.50841e-62 0 0
7.31288e-64 0 0
2.2165e-61 0 0
0 0 -5.8217e-157
3.56326e-08 0 -4.0843e-155
7.80781e-08 0 -3.25699e-153
7.19923e-08 0 -2.27609e-151
3.40151e-08 0 -1.23681e-149
9.59855e-09 0 -4.81024e-148
2.03768e-09 0 -1.15256e-146
3.63477e-10 0 -1.15074e-146
5.72704e-11 0 -6.47136e-145
8.16503e-12 0 -3.72989e-143
1.06694e-12 0 -2.11552e-141
1.28779e-13 0 -1.18104e-139
1.44342e-14 0 -6.48809e-138
1.50873e-15 0 -3.50596e-136
1.47593e-16 0 -1.86277e-134
1.3557e-17 0 -9.72713e-133
1.17276e-18 0 -4.98982e-131
9.581e-20 0 -2.51331e-129
7.41137e-21 0 -1.24234e-127
5.4416e-22 0 -6.02317e-126
3.80083e-23 0 -2.86245e-124
2.53087e-24 0 -1.33259e-122
1.60974e-25 0 -6.07293e-121
9.79792e-27 0 -2.70715e-119
5.71667e-28 0 -1.17946e-117
3.20241e-29 0 -5.01789e-116
1.72498e-30 0 -2.08257e-114
8.9468e-32 0 -8.42271e-113
4.474e-33 0 -3.3156e-111
2.15973e-34 0 -1.2687e-109
1.00758e-35 0 -4.71203e-108
4.54778e-37 0 -1.69589e-106
1.98795e-38 0 -5.9038e-105
8.42393e-40 0 -1.98381e-103
3.46353e-41 0 -6.41911e-102
1.3829e-42 0 -1.99465e-100
5.36636e-44 0 -5.9334e-99
2.02545e-45 0 -1.68336e-97
7.44103e-47 0 -4.53509e-96
2.66265e-48 0 -1.15413e-94
9.28647e-50 0 -2.75689e-93
3.15875e-51 0 -6.13295e-92
1.0485e-52 0 -1.25808e-90
3.39827e-54 0 -2.34962e-89
1.07601e-55 0 -3.92812e-88
3.33026e-57 0 -5.74291e-87
1.00798e-58 0 -7.09838e-86
2.98503e-60 0 -7.03862e-85
8.65319e-62 0 -5.11635e-84
2.5247e-63 0 -2.26894e-83
7.54817e-61 0 -9.05712e-81
0.0036 -3.00397e-156 -1.27194e-156
0.00464659 -3.99126e-152 -3.01675e-152
0.0036651 -5.41594e-150 -5.20718e-150
0.001878 -7.37961e-148 -7.11547e-148
0.000614944 -6.85056e-146 -6.15913e-146
0.00013095 -3.90048e-144 -3.38552e-144
2.24364e-05 -1.37682e-142 -1.20209e-142
3.37112e-06 -2.65186e-143 -2.61366e-143
4.59687e-07 -1.37505e-141 -1.37556e-141
5.77417e-08 -8.0976e-140 -8.09801e-140
6.7334e-09 -4.68201e-138 -4.68203e-138
7.32499e-10 -2.66471e-136 -2.66471e-136
7.46046e-11 -1.49288e-134 -1.49288e-134
7.13539e-12 -8.23032e-133 -8.23032e-133
6.42609e-13 -4.46327e-131 -4.46327e-131
5.46338e-14 -2.37988e-129 -2.37988e-129
4.39552e-15 -1.24718e-127 -1.24718e-127
3.35421e-16 -6.4206e-126 -6.4206e-126
2.43302e-17 -3.24544e-124 -3.24544e-124
1.681e-18 -1.60987e-122 -1.60987e-122
1.1084e-19 -7.83202e-121 -7.83202e-121
6.98759e-21 -3.7347e-119 -3.7347e-119
4.21889e-22 -1.74439e-117 -1.74439e-117
2.44349e-23 -7.9749e-116 -7.9749e-116
1.35962e-24 -3.56578e-114 -3.56578e-114
7.27839e-26 -1.55798e-112 -1.55798e-112
3.75355e-27 -6.64559e-111 -6.64559e-111
1.86716e-28 -2.76455e-109 -2.76455e-109
8.96942e-30 -1.12031e-107 -1.12031e-107
4.16555e-31 -4.41703e-106 -4.41703e-106
1.87223e-32 -1.69195e-104 -1.69195e-104
8.15184e-34 -6.2867e-103 -6.2867e-103
3.44163e-35 -2.26188e-101 -2.26188e-101
1.41016e-36 -7.86423e-100 -7.86423e-100
5.61218e-38 -2.63624e-98 -2.63624e-98
2.17119e-39 -8.49783e-97 -8.49783e-97
8.17135e-41 -2.62602e-95 -2.62602e-95
2.99384e-42 -7.75166e-94 -7.75166e-94
1.06856e-43 -2.17647e-92 -2.17647e-92
3.71779e-45 -5.78306e-91 -5.78306e-91
1.26169e-46 -1.44516e-89 -1.44516e-89
4.1789e-48 -3.37046e-88 -3.37046e-88
1.35162e-49 -7.26556e-87 -7.26556e-87
4.27131e-51 -1.42958e-85 -1.42958e-85
1.3195e-52 -2.52497e-84 -2.52497e-84
3.98666e-54 -3.91168e-83 -3.91168e-83
1.1786e-55 -5.13941e-82 -5.13941e-82
3.411e-57 -5.43341e-81 -5.43341e-81
9.66823e-59 -4.2191e-80 -4.2191e-80
2.75792e-60 -1.99167e-79 -1.99167e-79
2.74875e-60 -3.23226e-79 -3.23226e-79
0.01 -2.58059e-155 -2.07072e-157
0.0109816 -2.48499e-151 -4.23184e-152
0.00947439 -2.70461e-149 3.32729e-151
0.00563106 -6.43561e-147 -4.58794e-147
0.00198989 -1.37244e-144 -1.20356e-144
0.000343482 -1.35434e-142 -1.16061e-142
4.99748e-05 -9.41203e-141 -8.20294e-141
6.68419e-06 -3.614e-142 -3.5251e-142
8.43614e-07 -1.55918e-140 -1.56247e-140
1.00603e-07 -9.42803e-139 -9.43078e-139
1.13258e-08 -5.51593e-137 -5.51608e-137
1.20277e-09 -3.17148e-135 -3.17148e-135
1.20483e-10 -1.79524e-133 -1.79524e-133
1.13908e-11 -1.00033e-131 -1.00033e-131
1.01756e-12 -5.48484e-130 -5.48484e-130
8.60183e-14 -2.95808e-128 -2.95808e-128
6.8926e-15 -1.56855e-126 -1.56855e-126
5.24471e-16 -8.17399e-125 -8.17399e-125
3.79667e-17 -4.18418e-123 -4.18418e-123
2.61949e-18 -2.10282e-121 -2.10282e-121
1.72558e-19 -1.03698e-119 -1.03698e-119
1.08716e-20 -5.01488e-118 -5.01488e-118
6.56147e-22 -2.37679e-116 -2.37679e-116
3.79951e-23 -1.10322e-114 -1.10322e-114
2.11401e-24 -5.01124e-113 -5.01124e-113
1.13173e-25 -2.22579e-111 -2.22579e-111
5.83711e-27 -9.65809e-110 -9.65809e-110
2.90409e-28 -4.09011e-108 -4.09011e-108
1.39535e-29 -1.68866e-106 -1.68866e-106
6.4818e-31 -6.78877e-105 -6.78877e-105
2.91404e-32 -2.65396e-103 -2.65396e-103
1.26914e-33 -1.00739e-101 -1.00739e-101
5.35971e-35 -3.70653e-100 -3.70653e-100
2.1967e-36 -1.31935e-98 -1.31935e-98
8.74502e-38 -4.53339e-97 -4.53339e-97
3.38418e-39 -1.49986e-95 -1.49986e-95
1.27401e-40 -4.76396e-94 -4.76396e-94
4.6691e-42 -1.44766e-92 -1.44766e-92
1.66696e-43 -4.19148e-91 -4.19148e-91
5.80137e-45 -1.1506e-89 -1.1506e-89
1.96932e-46 -2.9766e-88 -2.9766e-88
6.52439e-48 -7.20305e-87 -7.20305e-87
2.11078e-49 -1.61511e-85 -1.61511e-85
6.67207e-51 -3.31473e-84 -3.31473e-84
2.06165e-52 -6.12529e-83 -6.12529e-83
6.23045e-54 -9.96159e-82 -9.96159e-82
1.84238e-55 -1.37896e-80 -1.37896e-80
5.33324e-57 -1.54172e-79 -1.54172e-79
1.512e-58 -1.26988e-78 -1.26988e-78
4.31402e-60 -6.34886e-78 -6.34886e-78
4.29969e-60 -1.04204e-77 -1.04204e-77
0.0148 -1.25884e-156 1.56028e-155
0.0166408 -9.23256e-153 -2.46633e-151
0.0160958 -1.02053e-150 2.13368e-149
0.0117696 -7.89453e-149 -5.04373e-147
0.0048829 -1.93867e-146 -1.09121e-144
0.000238078 -1.93088e-146 -1.12692e-142
3.22854e-05 0 -8.08444e-141
4.07357e-06 6.37549e-139 5.46378e-139
5.44853e-07 -1.3903e-139 -1.41115e-139
6.80281e-08 -9.54061e-138 -9.55836e-138
7.94803e-09 -5.71431e-136 -5.71535e-136
8.70157e-10 -3.32399e-134 -3.32399e-134
8.93969e-11 -1.90189e-132 -1.90189e-132
8.63328e-12 -1.07158e-130 -1.07158e-130
7.85253e-13 -5.9432e-129 -5.9432e-129
6.74133e-14 -3.24349e-127 -3.24349e-127
5.47435e-15 -1.74111e-125 -1.74111e-125
4.21426e-16 -9.18919e-124 -9.18919e-124
3.08204e-17 -4.76612e-122 -4.76612e-122
2.14574e-18 -2.42817e-120 -2.42817e-120
1.4249e-19 -1.21449e-118 -1.21449e-118
9.04211e-21 -5.96019e-117 -5.96019e-117
5.49276e-22 -2.86826e-115 -2.86826e-115
3.19935e-23 -1.35264e-113 -1.35264e-113
1.78959e-24 -6.24651e-112 -6.24651e-112
9.62719e-26 -2.82261e-110 -2.82261e-110
4.98757e-27 -1.24695e-108 -1.24695e-108
2.4916e-28 -5.38055e-107 -5.38055e-107
1.20169e-29 -2.26534e-105 -2.26534e-105
5.60169e-31 -9.29548e-104 -9.29548e-104
2.52654e-32 -3.71267e-102 -3.71267e-102
1.10369e-33 -1.4413e-100 -1.4413e-100
4.67412e-35 -5.42968e-99 -5.42968e-99
1.92074e-36 -1.98129e-97 -1.98129e-97
7.66525e-38 -6.98818e-96 -6.98818e-96
2.97318e-39 -2.37667e-94 -2.37667e-94
1.12172e-40 -7.77212e-93 -7.77212e-93
4.11937e-42 -2.43577e-91 -2.43577e-91
1.47353e-43 -7.28695e-90 -7.28695e-90
5.13755e-45 -2.07113e-88 -2.07113e-88
1.747e-46 -5.56034e-87 -5.56034e-87
5.79728e-48 -1.39987e-85 -1.39987e-85
1.87846e-49 -3.2748e-84 -3.2748e-84
5.94646e-51 -7.03399e-83 -7.03399e-83
1.84002e-52 -1.36511e-81 -1.36511e-81
5.56809e-54 -2.34072e-80 -2.34072e-80
1.64861e-55 -3.43091e-79 -3.43091e-79
4.77813e-57 -4.07996e-78 -4.07996e-78
1.3562e-58 -3.58855e-77 -3.58855e-77
3.8739e-60 -1.91438e-76 -1.91438e-76
3.86098e-60 -3.18018e-76 -3.18018e-76
0.018 -4.60936e-158 5.77108e-154
0.0203137 -1.14839e-154 -6.4884e-150
0.0207729 -3.56946e-152 5.50973e-148
0.0180693 -8.87704e-152 -5.5824e-146
0.00899502 -2.73217e-148 5.0831e-144
0 -2.73164e-148 5.13948e-144
0 0 0
0 0 5.46706e-139
5.21688e-08 -4.41458e-137 -3.79281e-137
1.20781e-08 -7.59345e-137 -7.70475e-137
1.91183e-09 -5.09373e-135 -5.10081e-135
2.52348e-10 -3.02319e-133 -3.0232e-133
2.94606e-11 -1.74902e-131 -1.74902e-131
3.1228e-12 -9.96771e-130 -9.96771e-130
3.04916e-13 -5.59402e-128 -5.59402e-128
2.76798e-14 -3.09048e-126 -3.09048e-126
2.35147e-15 -1.68011e-124 -1.68011e-124
1.87884e-16 -8.98429e-123 -8.98429e-123
1.41767e-17 -4.72364e-121 -4.72364e-121
1.01361e-18 -2.44072e-119 -2.44072e-119
6.88722e-20 -1.23878e-117 -1.23878e-117
4.45878e-21 -6.17266e-116 -6.17266e-116
2.75663e-22 -3.0179e-114 -3.0179e-114
1.63089e-23 -1.44685e-112 -1.44685e-112
9.2506e-25 -6.79733e-111 -6.79733e-111
5.03911e-26 -3.12699e-109 -3.12699e-109
2.64033e-27 -1.40748e-107 -1.40748e-107
1.33264e-28 -6.19302e-106 -6.19302e-106
6.48787e-30 -2.66124e-104 -2.66124e-104
3.05045e-31 -1.11562e-102 -1.11562e-102
1.38678e-32 -4.55703e-101 -4.55703e-101
6.10238e-34 -1.81129e-99 -1.81129e-99
2.60187e-35 -6.99481e-98 -6.99481e-98
1.07592e-36 -2.61994e-96 -2.61994e-96
4.31894e-38 -9.49887e-95 -9.49887e-95
1.68438e-39 -3.32601e-93 -3.32601e-93
6.38735e-41 -1.12172e-91 -1.12172e-91
2.35693e-42 -3.63235e-90 -3.63235e-90
8.46892e-44 -1.12514e-88 -1.12514e-88
2.96526e-45 -3.31872e-87 -3.31872e-87
1.01235e-46 -9.26986e-86 -9.26986e-86
3.37212e-48 -2.43501e-84 -2.43501e-84
1.09655e-49 -5.96238e-83 -5.96238e-83
3.483e-51 -1.34527e-81 -1.34527e-81
1.08121e-52 -2.75359e-80 -2.75359e-80
3.28183e-54 -5.00234e-79 -5.00234e-79
9.74513e-56 -7.80792e-78 -7.80792e-78
2.83221e-57 -9.94185e-77 -9.94185e-77
8.05997e-59 -9.41146e-76 -9.41146e-76
2.30822e-60 -5.40612e-75 -5.40612e-75
2.30043e-60 -9.0971e-75 -9.0971e-75
0.0196 -7.60467e-159 -1.0569e-153
0.0220925 -5.02561e-155 1.03068e-149
0.0227889 -5.52681e-153 -6.73988e-148
0.0216708 -1.49368e-151 5.48669e-146
0.0123125 -3.49445e-149 -3.51128e-144
0.00148053 -3.48006e-149 1.20303e-141
0 0 1.2066e-141
0 0 0
0 0 -3.78013e-137
1.05834e-09 2.93841e-135 2.4401e-135
2.70432e-10 -3.54381e-134 -3.59116e-134
4.56997e-11 -2.3223e-132 -2.32231e-132
6.2952e-12 -1.35894e-130 -1.35894e-130
7.54362e-13 -7.83624e-129 -7.83624e-129
8.10709e-14 -4.45164e-127 -4.45164e-127
7.95262e-15 -2.49055e-125 -2.49055e-125
7.20336e-16 -1.37175e-123 -1.37175e-123
6.07485e-17 -7.43536e-122 -7.43536e-122
4.80005e-18 -3.96457e-120 -3.96457e-120
3.57144e-19 -2.07861e-118 -2.07861e-118
2.51257e-20 -1.07111e-116 -1.07111e-116
1.67718e-21 -5.42203e-115 -5.42203e-115
1.06543e-22 -2.6948e-113 -2.6948e-113
6.45795e-24 -1.31424e-111 -1.31424e-111
3.74358e-25 -6.28548e-110 -6.28548e-110
2.0797e-26 -2.9459e-108 -2.9459e-108
1.10929e-27 -1.35204e-106 -1.35204e-106
5.6905e-29 -6.07156e-105 -6.07156e-105
2.81183e-30 -2.66534e-103 -2.66534e-103
1.34021e-31 -1.14264e-101 -1.14264e-101
6.16983e-33 -4.77846e-100 -4.77846e-100
2.74669e-34 -1.94687e-98 -1.94687e-98
1.18378e-35 -7.71692e-97 -7.71692e-97
4.94437e-37 -2.971e-95 -2.971e-95
2.00334e-38 -1.10894e-93 -1.10894e-93
7.8813e-40 -4.00436e-92 -4.00436e-92
3.01311e-41 -1.39536e-90 -1.39536e-90
1.12036e-42 -4.67828e-89 -4.67828e-89
4.05469e-44 -1.50384e-87 -1.50384e-87
1.42931e-45 -4.61503e-86 -4.61503e-86
4.91093e-47 -1.34501e-84 -1.34501e-84
1.64569e-48 -3.69828e-83 -3.69828e-83
5.38203e-50 -9.51339e-82 -9.51339e-82
1.71875e-51 -2.26426e-80 -2.26426e-80
5.36278e-53 -4.91193e-79 -4.91193e-79
1.63572e-54 -9.50793e-78 -9.50793e-78
4.87962e-56 -1.59094e-76 -1.59094e-76
1.42441e-57 -2.18643e-75 -2.18643e-75
4.07065e-59 -2.24918e-74 -2.24918e-74
1.17055e-60 -1.40705e-73 -1.40705e-73
1.16653e-60 -2.40058e-73 -2.40058e-73
0.0196 -2.17831e-157 -1.02978e-153
0.0220896 -3.00277e-153 1.00057e-149
0.0227824 -2.17442e-151 -6.61181e-148
0.0216429 -1.93582e-149 5.49302e-146
0.012449 -2.2073e-147 -3.64157e-144
0.00297813 -8.23022e-146 -3.39801e-143
0.000185314 -8.0114e-146 -1.35905e-139
0 0 -1.35875e-139
0 0 0
0 0 2.50846e-135
2.1674e-11 -2.33835e-133 -2.31737e-133
1.14596e-11 -1.44861e-131 -1.44865e-131
2.41636e-12 -8.5781e-130 -8.5781e-130
3.64286e-13 -5.00659e-128 -5.00659e-128
4.51787e-14 -2.87996e-126 -2.87996e-126
4.88426e-15 -1.63226e-124 -1.63226e-124
4.74407e-16 -9.11195e-123 -9.11195e-123
4.2156e-17 -5.00837e-121 -5.00837e-121
3.46839e-18 -2.70948e-119 -2.70948e-119
2.66473e-19 -1.44214e-117 -1.44214e-117
1.92404e-20 -7.54873e-116 -7.54873e-116
1.31214e-21 -3.8841e-114 -3.8841e-114
8.48631e-23 -1.96355e-112 -1.96355e-112
5.22269e-24 -9.74762e-111 -9.74762e-111
3.06728e-25 -4.74909e-109 -4.74909e-109
1.72336e-26 -2.26937e-107 -2.26937e-107
9.28341e-28 -1.06288e-105 -1.06288e-105
4.80386e-29 -4.87552e-104 -4.87552e-104
2.3921e-30 -2.18854e-102 -2.18854e-102
1.14803e-31 -9.60472e-101 -9.60472e-101
5.31784e-33 -4.11685e-99 -4.11685e-99
2.38063e-34 -1.72145e-97 -1.72145e-97
1.03121e-35 -7.013e-96 -7.013e-96
4.32698e-37 -2.7794e-94 -2.7794e-94
1.76057e-38 -1.06978e-92 -1.06978e-92
6.95299e-40 -3.99094e-91 -3.99094e-91
2.66766e-41 -1.43977e-89 -1.43977e-89
9.9517e-43 -5.00912e-88 -5.00912e-88
3.61256e-44 -1.67518e-86 -1.67518e-86
1.27705e-45 -5.36378e-85 -5.36378e-85
4.39931e-47 -1.6363e-83 -1.6363e-83
1.47785e-48 -4.72675e-82 -4.72675e-82
4.84423e-50 -1.28272e-80 -1.28272e-80
1.55033e-51 -3.23614e-79 -3.23614e-79
4.84702e-53 -7.48243e-78 -7.48243e-78
1.48121e-54 -1.55359e-76 -1.55359e-76
4.42659e-56 -2.80919e-75 -2.80919e-75
1.29435e-57 -4.20755e-74 -4.20755e-74
3.70486e-59 -4.75995e-73 -4.75995e-73
1.06701e-60 -3.29072e-72 -3.29072e-72
1.06335e-60 -5.69801e-72 -5.69801e-72
0.018 -7.17343e-156 7.77562e-154
0.0202866 -1.53607e-151 -9.40561e-150
0.020702 -1.33016e-149 8.54787e-148
0.0179572 -1.42405e-147 -9.24966e-146
0.00917578 -1.18443e-145 1.07579e-143
0.0023262 -5.59815e-144 4.1259e-142
0.000314096 -1.5983e-142 2.48363e-141
1.31586e-05 -1.54349e-142 9.65891e-138
0 0 9.65683e-138
0 0 0
0 -1.11833e-132 -1.11462e-132
6.96156e-11 -6.90382e-131 -6.90345e-131
1.25919e-11 -4.13616e-129 -4.13616e-129
1.6269e-12 -2.44406e-127 -2.44406e-127
1.77933e-13 -1.42402e-125 -1.42402e-125
1.73815e-14 -8.17876e-124 -8.17876e-124
1.55416e-15 -4.6291e-122 -4.6291e-122
1.28953e-16 -2.5811e-120 -2.5811e-120
1.0016e-17 -1.41731e-118 -1.41731e-118
7.32745e-19 -7.66161e-117 -7.66161e-117
5.07258e-20 -4.0757e-115 -4.0757e-115
3.33521e-21 -2.13271e-113 -2.13271e-113
2.08911e-22 -1.09728e-111 -1.09728e-111
1.24989e-23 -5.54815e-110 -5.54815e-110
7.15871e-25 -2.75549e-108 -2.75549e-108
3.93293e-26 -1.34346e-106 -1.34346e-106
2.07631e-27 -6.42623e-105 -6.42623e-105
1.05503e-28 -3.0137e-103 -3.0137e-103
5.16739e-30 -1.38462e-101 -1.38462e-101
2.44287e-31 -6.22716e-100 -6.22716e-100
1.11607e-32 -2.73889e-98 -2.73889e-98
4.93344e-34 -1.17688e-96 -1.17688e-96
2.11221e-35 -4.93469e-95 -4.93469e-95
8.76783e-37 -2.01638e-93 -2.01638e-93
3.532e-38 -8.01685e-92 -8.01685e-92
1.38199e-39 -3.09588e-90 -3.09588e-90
5.25664e-41 -1.1588e-88 -1.1588e-88
1.94521e-42 -4.19375e-87 -4.19375e-87
7.00813e-44 -1.46314e-85 -1.46314e-85
2.45991e-45 -4.90329e-84 -4.90329e-84
8.41789e-47 -1.57134e-82 -1.57134e-82
2.81015e-48 -4.78835e-81 -4.78835e-81
9.1571e-50 -1.37741e-79 -1.37741e-79
2.91431e-51 -3.7042e-78 -3.7042e-78
9.06352e-53 -9.18929e-77 -9.18929e-77
2.75594e-54 -2.06297e-75 -2.06297e-75
8.19722e-56 -4.07028e-74 -4.07028e-74
2.38613e-57 -6.72453e-73 -6.72453e-73
6.8008e-59 -8.49441e-72 -8.49441e-72
1.9505e-60 -6.61661e-71 -6.61661e-71
1.94394e-60 -1.16405e-70 -1.16405e-70
0.0148 -3.31636e-154 2.04209e-154
0.0164283 -7.77331e-150 -3.43255e-150
0.0157129 -7.00287e-148 3.06255e-148
0.0114413 -6.03544e-146 -1.42121e-145
0.00485702 -4.21128e-144 -1.75061e-143
0.00115312 -2.32329e-142 -5.10017e-142
0.00018424 -1.06086e-140 -1.311e-140
2.08755e-05 -3.5633e-139 -3.67646e-139
7.56608e-07 -3.4595e-139 -6.53749e-136
7.21242e-08 0 -4.27817e-134
7.29015e-09 -3.59856e-132 -3.64063e-132
7.74507e-10 -2.24694e-130 -2.24694e-130
7.76922e-11 -1.36247e-128 -1.36247e-128
7.36247e-12 -8.15203e-127 -8.15203e-127
6.59721e-13 -4.81174e-125 -4.81174e-125
5.59677e-14 -2.80108e-123 -2.80108e-123
4.50207e-15 -1.60775e-121 -1.60775e-121
3.43958e-16 -9.09612e-120 -9.09612e-120
2.50016e-17 -5.07118e-118 -5.07118e-118
1.73204e-18 -2.78506e-116 -2.78506e-116
1.14558e-19 -1.50622e-114 -1.50622e-114
7.24584e-21 -8.01871e-113 -8.01871e-113
4.38984e-22 -4.20065e-111 -4.20065e-111
2.55135e-23 -2.16441e-109 -2.16441e-109
1.42457e-24 -1.09641e-107 -1.09641e-107
7.65227e-26 -5.4576e-106 -5.4576e-106
3.95965e-27 -2.66803e-104 -2.66803e-104
1.97615e-28 -1.28021e-102 -1.28021e-102