# vtk DataFile Version 2.0
Tobias Weinzierl: CPU, Manycore and Cluster Computing
ASCII

DATASET STRUCTURED_POINTS
DIMENSIONS  51 11 6

ORIGIN 0 0 0 

SPACING 0.1 0.1 0.1 

POINT_DATA 3366

VECTORS velocity float
0 0 0
9.11419e-12 0 0
8.58433e-09 0 0
-1.89115e-08 0 0
-9.25015e-08 0 0
-3.69702e-08 0 0
-2.53245e-08 0 0
-2.07172e-08 0 0
-1.00135e-08 0 0
-7.36501e-10 0 0
-3.39302e-09 0 0
-1.88278e-08 0 0
-3.74967e-08 0 0
-4.97229e-08 0 0
-5.32368e-08 0 0
-5.19208e-08 0 0
-5.01165e-08 0 0
-4.9693e-08 0 0
-5.05667e-08 0 0
-5.20344e-08 0 0
-5.35196e-08 0 0
-5.47378e-08 0 0
-5.56195e-08 0 0
-5.62027e-08 0 0
-5.65597e-08 0 0
-5.67605e-08 0 0
-5.68597e-08 0 0
-5.68935e-08 0 0
-5.68812e-08 0 0
-5.68276e-08 0 0
-5.67231e-08 0 0
-5.65423e-08 0 0
-5.62314e-08 0 0
-5.56949e-08 0 0
-5.48149e-08 0 0
-5.35224e-08 0 0
-5.18399e-08 0 0
-4.98412e-08 0 0
-4.75898e-08 0 0
-4.51163e-08 0 0
-4.24306e-08 0 0
-3.95416e-08 0 0
-3.64765e-08 0 0
-3.33022e-08 0 0
-3.01358e-08 0 0
-2.7132e-08 0 0
-2.44525e-08 0 0
-2.22413e-08 0 0
-2.06211e-08 0 0
-1.97596e-08 0 0
0.00153362 0 0
0 4.01127e-07 0
1.53231e-11 -1.12422e-08 0
1.74076e-08 -1.32365e-08 0
-2.41044e-08 1.08306e-08 0
-1.3049e-07 -1.24185e-08 0
-4.11235e-08 -7.3688e-09 0
-3.80138e-08 5.25312e-08 0
-4.84482e-08 5.8363e-08 0
-3.93599e-08 3.70104e-08 0
-2.32699e-08 2.39103e-08 0
-2.08913e-08 2.45408e-08 0
-4.00718e-08 2.90597e-08 0
-6.87502e-08 2.58452e-08 0
-8.89389e-08 1.49803e-08 0
-9.53881e-08 4.51668e-09 0
-9.5455e-08 -3.99981e-10 0
-9.67063e-08 -6.99725e-10 0
-1.01224e-07 6.10131e-10 0
-1.07644e-07 1.65143e-09 0
-1.14105e-07 1.97544e-09 0
-1.19495e-07 1.78946e-09 0
-1.23478e-07 1.39165e-09 0
-1.2617e-07 9.78338e-10 0
-1.27857e-07 6.38056e-10 0
-1.28832e-07 3.92338e-10 0
-1.29334e-07 2.30953e-10 0
-1.29529e-07 1.32472e-10 0
-1.29518e-07 7.36697e-11 0
-1.2935e-07 3.23683e-11 0
-1.29028e-07 -1.30895e-11 0
-1.28514e-07 -8.73344e-11 0
-1.27732e-07 -2.27819e-10 0
-1.26548e-07 -4.95067e-10 0
-1.24727e-07 -9.49779e-10 0
-1.21951e-07 -1.58655e-09 0
-1.17996e-07 -2.30922e-09 0
-1.12894e-07 -3.00843e-09 0
-1.06841e-07 -3.64211e-09 0
-1.00031e-07 -4.22627e-09 0
-9.25978e-08 -4.78152e-09 0
-8.46425e-08 -5.30227e-09 0
-7.62709e-08 -5.75336e-09 0
-6.76159e-08 -6.07313e-09 0
-5.88753e-08 -6.18371e-09 0
-5.03471e-08 -6.01881e-09 0
-4.24067e-08 -5.55296e-09 0
-3.54398e-08 -4.80479e-09 0
-2.97835e-08 -3.80932e-09 0
-2.56907e-08 -2.56126e-09 0
-2.34435e-08 -1.13992e-09 0
0.00419175 -1.02873e-05 0
0 -2.12387e-08 0
1.39446e-11 -9.80439e-09 0
3.05412e-08 -3.12068e-08 0
2.65034e-08 -6.4797e-08 0
-1.67738e-08 -1.35953e-07 0
5.84058e-08 -9.5207e-08 0
7.9866e-09 2.55628e-08 0
-4.579e-08 4.84909e-08 0
-7.05286e-08 3.52056e-08 0
-5.68618e-08 2.56368e-08 0
-4.30122e-08 1.63858e-08 0
-4.95206e-08 9.41378e-09 0
-7.10625e-08 1.0035e-08 0
-8.75044e-08 1.66234e-08 0
-9.05895e-08 2.31823e-08 0
-8.77283e-08 2.59516e-08 0
-8.71546e-08 2.4826e-08 0
-9.10698e-08 2.12996e-08 0
-9.7694e-08 1.68317e-08 0
-1.04631e-07 1.24262e-08 0
-1.10415e-07 8.6445e-09 0
-1.1459e-07 5.69528e-09 0
-1.17291e-07 3.55635e-09 0
-1.18868e-07 2.09228e-09 0
-1.19671e-07 1.13589e-09 0
-1.19971e-07 5.30966e-10 0
-1.19948e-07 1.47755e-10 0
-1.197e-07 -1.16873e-10 0
-1.19259e-07 -3.46688e-10 0
-1.18607e-07 -6.15601e-10 0
-1.1768e-07 -9.95619e-10 0
-1.16374e-07 -1.57076e-09 0
-1.14552e-07 -2.46693e-09 0
-1.11967e-07 -3.83617e-09 0
-1.08175e-07 -5.70841e-09 0
-1.02764e-07 -7.86701e-09 0
-9.57208e-08 -9.99181e-09 0
-8.73572e-08 -1.18899e-08 0
-7.80026e-08 -1.35182e-08 0
-6.79018e-08 -1.48726e-08 0
-5.72698e-08 -1.59235e-08 0
-4.63287e-08 -1.66179e-08 0
-3.5286e-08 -1.68816e-08 0
-2.43669e-08 -1.66128e-08 0
-1.38959e-08 -1.57136e-08 0
-4.2988e-09 -1.41508e-08 0
3.99042e-09 -1.19702e-08 0
1.06136e-08 -9.26077e-09 0
1.53577e-08 -6.13166e-09 0
1.80931e-08 -2.85424e-09 0
0.00566165 -2.49011e-05 0
0 -6.47172e-07 0
1.60557e-11 -1.74529e-08 0
4.08929e-08 -6.03223e-08 0
5.10825e-08 -1.18516e-07 0
-3.26285e-09 -1.61739e-07 0
6.25591e-08 -8.61385e-08 0
2.06837e-08 -6.30376e-11 0
-1.80591e-08 -9.26524e-09 0
-7.34547e-08 -3.53282e-08 0
-7.56737e-08 -5.83717e-08 0
-6.81561e-08 -6.21144e-08 0
-8.25168e-08 -4.35844e-08 0
-1.07017e-07 -7.04468e-09 0
-1.21607e-07 2.61e-08 0
-1.17912e-07 4.20326e-08 0
-1.03422e-07 4.32672e-08 0
-8.85798e-08 3.75078e-08 0
-7.90452e-08 2.98752e-08 0
-7.50802e-08 2.24061e-08 0
-7.44853e-08 1.58446e-08 0
-7.51427e-08 1.05294e-08 0
-7.58751e-08 6.54162e-09 0
-7.62783e-08 3.75159e-09 0
-7.63356e-08 1.91466e-09 0
-7.61495e-08 7.62497e-10 0
-7.58194e-08 5.61427e-11 0
-7.54044e-08 -3.96343e-10 0
-7.49212e-08 -7.4336e-10 0
-7.43533e-08 -1.10318e-09 0
-7.36578e-08 -1.58059e-09 0
-7.27614e-08 -2.27683e-09 0
-7.15637e-08 -3.29465e-09 0
-6.998e-08 -4.78709e-09 0
-6.7869e-08 -7.01012e-09 0
-6.47291e-08 -1.01214e-08 0
-5.98241e-08 -1.38246e-08 0
-5.29633e-08 -1.74914e-08 0
-4.45821e-08 -2.06562e-08 0
-3.51403e-08 -2.31662e-08 0
-2.49472e-08 -2.50016e-08 0
-1.42803e-08 -2.61539e-08 0
-3.44252e-09 -2.66255e-08 0
7.34907e-09 -2.64195e-08 0
1.7942e-08 -2.54789e-08 0
2.80743e-08 -2.36967e-08 0
3.73297e-08 -2.10229e-08 0
4.52805e-08 -1.75314e-08 0
5.1609e-08 -1.33765e-08 0
5.6169e-08 -8.78199e-09 0
5.89527e-08 -4.32713e-09 0
0.006066 -3.93831e-05 0
0 -1.24542e-06 0
-4.32347e-12 -3.07928e-08 0
1.86399e-08 -8.27127e-08 0
6.87423e-09 -1.05356e-07 0
-5.20481e-08 -8.13021e-08 0
-2.59734e-11 -2.79029e-08 0
-2.57339e-10 -3.33069e-10 0
2.86476e-10 -3.19471e-10 0
-3.22726e-08 -3.51601e-08 0
-9.0247e-08 -8.72043e-08 0
-1.08638e-07 -9.37833e-08 0
-1.22899e-07 -5.78926e-08 0
-1.41836e-07 -5.57362e-09 0
-1.5182e-07 3.36453e-08 0
-1.4682e-07 4.58133e-08 0
-1.28265e-07 4.03444e-08 0
-1.04175e-07 3.01464e-08 0
-8.3359e-08 2.13229e-08 0
-6.94399e-08 1.45723e-08 0
-6.14221e-08 9.33636e-09 0
-5.69753e-08 5.35143e-09 0
-5.43345e-08 2.52827e-09 0
-5.25738e-08 7.09375e-10 0
-5.1293e-08 -3.49166e-10 0
-5.03241e-08 -9.07183e-10 0
-4.95792e-08 -1.18813e-09 0
-4.89931e-08 -1.36387e-09 0
-4.85074e-08 -1.56247e-09 0
-4.80667e-08 -1.88524e-09 0
-4.76214e-08 -2.42873e-09 0
-4.71131e-08 -3.30135e-09 0
-4.64449e-08 -4.60984e-09 0
-4.55576e-08 -6.49042e-09 0
-4.44925e-08 -9.28585e-09 0
-4.28317e-08 -1.34293e-08 0
-3.93254e-08 -1.87134e-08 0
-3.32536e-08 -2.41251e-08 0
-2.515e-08 -2.87217e-08 0
-1.56563e-08 -3.21268e-08 0
-5.18508e-09 -3.42974e-08 0
5.87883e-09 -3.529e-08 0
1.70804e-08 -3.52319e-08 0
2.81616e-08 -3.42933e-08 0
3.90441e-08 -3.25358e-08 0
4.95019e-08 -2.98657e-08 0
5.90708e-08 -2.62099e-08 0
6.72832e-08 -2.16558e-08 0
7.3838e-08 -1.64031e-08 0
7.86203e-08 -1.07371e-08 0
8.16279e-08 -5.49793e-09 0
0.00608657 -5.10714e-05 0
0 -1.11583e-06 0
-2.199e-11 -3.1811e-08 0
-1.76957e-09 -6.6391e-08 0
-2.11413e-08 -8.29293e-08 0
-7.50721e-08 -9.63633e-08 0
-4.96147e-08 -4.80227e-08 0
-2.71216e-10 2.59002e-10 0
2.74751e-11 -2.74751e-11 0
2.65206e-10 -3.07748e-10 0
-4.89017e-08 -4.55196e-08 0
-1.17954e-07 -9.60567e-08 0
-1.20764e-07 -6.81745e-08 0
-1.27296e-07 -2.78599e-09 0
-1.38826e-07 4.29028e-08 0
-1.48891e-07 5.17747e-08 0
-1.43083e-07 3.7368e-08 0
-1.2058e-07 1.97298e-08 0
-9.39086e-08 7.9809e-09 0
-7.29597e-08 1.71137e-09 0
-5.96805e-08 -1.52724e-09 0
-5.20201e-08 -3.16146e-09 0
-4.76428e-08 -3.79743e-09 0
-4.50554e-08 -3.79148e-09 0
-4.34701e-08 -3.43845e-09 0
-4.24823e-08 -2.97147e-09 0
-4.18689e-08 -2.54974e-09 0
-4.14958e-08 -2.2716e-09 0
-4.12774e-08 -2.19973e-09 0
-4.11566e-08 -2.38488e-09 0
-4.11014e-08 -2.88935e-09 0
-4.10963e-08 -3.81714e-09 0
-4.1068e-08 -5.29728e-09 0
-4.09206e-08 -7.4326e-09 0
-4.0876e-08 -1.05506e-08 0
-4.09141e-08 -1.54328e-08 0
-3.92761e-08 -2.22757e-08 0
-3.41023e-08 -2.97334e-08 0
-2.59056e-08 -3.61058e-08 0
-1.56346e-08 -4.05586e-08 0
-4.00299e-09 -4.29916e-08 0
8.37344e-09 -4.3607e-08 0
2.08482e-08 -4.27299e-08 0
3.31247e-08 -4.07906e-08 0
4.51997e-08 -3.80624e-08 0
5.68404e-08 -3.44967e-08 0
6.74641e-08 -2.99781e-08 0
7.6528e-08 -2.4581e-08 0
8.37528e-08 -1.85133e-08 0
8.90595e-08 -1.20721e-08 0
9.237e-08 -6.26735e-09 0
0.00597101 -5.83561e-05 0
0 -7.78289e-07 0
-1.27391e-11 -2.35667e-08 0
-3.05125e-09 -5.80989e-08 0
-2.18889e-08 -6.99334e-08 0
-9.43963e-08 -6.25566e-08 0
-1.16134e-07 -3.30259e-08 0
-3.89113e-08 -5.86648e-09 0
-2.64445e-10 2.53559e-10 0
1.16473e-11 -1.16473e-11 0
2.3369e-10 -2.96724e-10 0
-5.19584e-08 -5.18112e-08 0
-7.05119e-08 -6.72447e-08 0
-7.2354e-08 8.41269e-09 0
-8.39113e-08 6.28227e-08 0
-1.12295e-07 6.81035e-08 0
-1.31313e-07 4.09655e-08 0
-1.23549e-07 1.16258e-08 0
-9.99247e-08 -5.55473e-09 0
-7.72482e-08 -1.20561e-08 0
-6.23052e-08 -1.30249e-08 0
-5.4256e-08 -1.17402e-08 0
-5.04132e-08 -9.70636e-09 0
-4.87384e-08 -7.60727e-09 0
-4.80966e-08 -5.76897e-09 0
-4.79308e-08 -4.32364e-09 0
-4.79833e-08 -3.2943e-09 0
-4.81418e-08 -2.65677e-09 0
-4.83644e-08 -2.38246e-09 0
-4.86423e-08 -2.46288e-09 0
-4.89889e-08 -2.92181e-09 0
-4.94537e-08 -3.84526e-09 0
-5.00415e-08 -5.40369e-09 0
-5.06092e-08 -7.72871e-09 0
-5.14185e-08 -1.10196e-08 0
-5.31383e-08 -1.62156e-08 0
-5.38986e-08 -2.41554e-08 0
-4.98527e-08 -3.34334e-08 0
-4.11393e-08 -4.15133e-08 0
-2.92634e-08 -4.69649e-08 0
-1.54894e-08 -4.96466e-08 0
-8.82755e-10 -4.99642e-08 0
1.3788e-08 -4.83529e-08 0
2.82251e-08 -4.54707e-08 0
4.24041e-08 -4.18731e-08 0
5.59947e-08 -3.75937e-08 0
6.82388e-08 -3.24583e-08 0
7.85258e-08 -2.65086e-08 0
8.66479e-08 -1.9937e-08 0
9.26081e-08 -1.29975e-08 0
9.622e-08 -6.73177e-09 0
0.00579088 -6.13232e-05 0
0 -5.46739e-07 0
-2.96539e-12 -1.85574e-08 0
-4.24463e-09 -4.49343e-08 0
-3.15452e-08 -5.28126e-08 0
-9.63468e-08 -3.83983e-08 0
-1.3292e-07 -1.15142e-08 0
-9.74739e-08 -5.52069e-09 0
-4.58041e-08 -5.97167e-09 0
-2.8194e-10 2.25179e-10 0
2.28399e-10 2.11377e-10 0
3.61377e-12 -2.6514e-08 0
-5.52675e-08 -2.7543e-08 0
-6.36051e-08 3.15586e-08 0
-4.1288e-08 7.76271e-08 0
-4.47919e-08 7.69655e-08 0
-7.53241e-08 4.27873e-08 0
-9.53346e-08 7.22544e-09 0
-9.32515e-08 -1.29821e-08 0
-8.24404e-08 -1.9305e-08 0
-7.40009e-08 -1.84305e-08 0
-7.0238e-08 -1.50347e-08 0
-6.96009e-08 -1.13249e-08 0
-7.03433e-08 -8.14886e-09 0
-7.14535e-08 -5.7307e-09 0
-7.25081e-08 -4.03042e-09 0
-7.33923e-08 -2.92299e-09 0
-7.41221e-08 -2.28498e-09 0
-7.47596e-08 -2.03076e-09 0
-7.53785e-08 -2.12547e-09 0
-7.60558e-08 -2.58363e-09 0
-7.69014e-08 -3.47187e-09 0
-7.80264e-08 -4.96649e-09 0
-7.93346e-08 -7.31268e-09 0
-8.10036e-08 -1.06677e-08 0
-8.43563e-08 -1.57374e-08 0
-8.80841e-08 -2.36586e-08 0
-8.5469e-08 -3.30393e-08 0
-7.54774e-08 -4.09205e-08 0
-6.14267e-08 -4.62601e-08 0
-4.45165e-08 -4.94125e-08 0
-2.61242e-08 -5.05095e-08 0
-7.41497e-09 -4.94091e-08 0
1.09936e-08 -4.66538e-08 0
2.87595e-08 -4.30309e-08 0
4.52853e-08 -3.86742e-08 0
5.96582e-08 -3.34055e-08 0
7.13292e-08 -2.73056e-08 0
8.0294e-08 -2.06032e-08 0
8.67446e-08 -1.35248e-08 0
9.04826e-08 -7.00413e-09 0
0.00553652 -6.19043e-05 0
0 -4.71041e-07 0
5.07268e-12 -1.12816e-08 0
-7.70927e-09 -3.0133e-08 0
-4.6988e-08 -3.84461e-08 0
-1.11645e-07 -2.78378e-08 0
-1.47711e-07 6.4428e-10 0
-1.2523e-07 8.08861e-09 0
-9.9438e-08 -3.19565e-08 0
-5.90693e-08 -3.11581e-08 0
-4.80663e-08 -2.96133e-14 0
-6.1841e-08 1.32319e-08 0
-1.3076e-07 3.45245e-08 0
-1.40163e-07 4.43747e-08 0
-6.88725e-08 4.39662e-08 0
-1.93776e-08 3.45408e-08 0
-4.05817e-08 1.85307e-08 0
-8.28243e-08 3.0849e-09 0
-1.04565e-07 -6.64324e-09 0
-1.08621e-07 -1.01012e-08 0
-1.08211e-07 -9.71164e-09 0
-1.08854e-07 -7.88437e-09 0
-1.10757e-07 -5.90422e-09 0
-1.13006e-07 -4.24699e-09 0
-1.1502e-07 -3.01416e-09 0
-1.16621e-07 -2.16818e-09 0
-1.17847e-07 -1.63846e-09 0
-1.18809e-07 -1.36501e-09 0
-1.19634e-07 -1.31412e-09 0
-1.20444e-07 -1.48527e-09 0
-1.21366e-07 -1.91661e-09 0
-1.22556e-07 -2.67658e-09 0
-1.24202e-07 -3.88651e-09 0
-1.26371e-07 -5.81978e-09 0
-1.29304e-07 -8.7678e-09 0
-1.34635e-07 -1.30174e-08 0
-1.4195e-07 -1.91372e-08 0
-1.41695e-07 -2.55155e-08 0
-1.30262e-07 -2.93725e-08 0
-1.15708e-07 -3.2175e-08 0
-9.72857e-08 -3.61419e-08 0
-7.4651e-08 -3.98312e-08 0
-4.97898e-08 -4.11791e-08 0
-2.53944e-08 -4.00955e-08 0
-2.81557e-09 -3.75637e-08 0
1.71066e-08 -3.39699e-08 0
3.35464e-08 -2.93481e-08 0
4.62947e-08 -2.39377e-08 0
5.57215e-08 -1.80365e-08 0
6.22837e-08 -1.18989e-08 0
6.58818e-08 -6.27269e-09 0
0.00505315 -5.97944e-05 0
0 -4.90826e-07 0
1.51533e-11 -4.05787e-09 0
-1.19049e-08 -1.2978e-08 0
-5.6937e-08 -1.79425e-08 0
-1.15259e-07 -1.34857e-08 0
-1.49308e-07 -6.03592e-09 0
-1.33848e-07 -3.73626e-09 0
-1.13872e-07 -1.98514e-08 0
-1.30929e-07 -2.27263e-08 0
-1.17742e-07 6.9871e-09 0
-1.0927e-07 4.04116e-08 0
-1.13113e-07 5.55137e-08 0
-9.70974e-08 3.76685e-08 0
-4.5302e-08 2.71005e-09 0
-2.10278e-08 -2.46783e-08 0
-5.35813e-08 -3.04302e-08 0
-9.92744e-08 -1.89548e-08 0
-1.22747e-07 -5.25379e-09 0
-1.27126e-07 1.81916e-09 0
-1.25524e-07 3.08442e-09 0
-1.24257e-07 2.07735e-09 0
-1.24312e-07 8.89367e-10 0
-1.25129e-07 1.23243e-10 0
-1.2616e-07 -2.4953e-10 0
-1.27134e-07 -3.91666e-10 0
-1.2798e-07 -4.37064e-10 0
-1.28724e-07 -4.68046e-10 0
-1.29439e-07 -5.33811e-10 0
-1.30223e-07 -6.69611e-10 0
-1.31198e-07 -9.12739e-10 0
-1.32532e-07 -1.31175e-09 0
-1.34435e-07 -1.92619e-09 0
-1.3713e-07 -2.89011e-09 0
-1.41099e-07 -4.4445e-09 0
-1.47733e-07 -6.51229e-09 0
-1.56511e-07 -8.69884e-09 0
-1.58007e-07 -1.05114e-08 0
-1.47687e-07 -1.09763e-08 0
-1.37776e-07 -1.17892e-08 0
-1.25851e-07 -1.53802e-08 0
-1.08272e-07 -1.99537e-08 0
-8.54018e-08 -2.24658e-08 0
-6.17209e-08 -2.21696e-08 0
-4.03044e-08 -2.0239e-08 0
-2.20386e-08 -1.769e-08 0
-7.28235e-09 -1.4853e-08 0
4.04617e-09 -1.18308e-08 0
1.23974e-08 -8.70643e-09 0
1.81873e-08 -5.63629e-09 0
2.12661e-08 -3.05057e-09 0
0.0037635 -4.2923e-05 0
0 0 0
1.05078e-11 0 0
-6.62353e-09 0 0
-2.82347e-08 0 0
-5.30652e-08 0 0
-6.79725e-08 0 0
-6.71871e-08 0 0
-6.02328e-08 0 0
-7.1888e-08 0 0
-6.96814e-08 0 0
-4.74249e-08 0 0
-1.92143e-08 0 0
-8.5412e-10 0 0
5.86915e-09 0 0
-5.69164e-09 0 0
-3.10567e-08 0 0
-5.26558e-08 0 0
-6.15653e-08 0 0
-6.168e-08 0 0
-5.91923e-08 0 0
-5.71329e-08 0 0
-5.60765e-08 0 0
-5.57469e-08 0 0
-5.57957e-08 0 0
-5.59995e-08 0 0
-5.62526e-08 0 0
-5.65224e-08 0 0
-5.68167e-08 0 0
-5.7168e-08 0 0
-5.76293e-08 0 0
-5.82789e-08 0 0
-5.92207e-08 0 0
-6.05925e-08 0 0
-6.26981e-08 0 0
-6.60886e-08 0 0
-7.02304e-08 0 0
-7.1074e-08 0 0
-6.67427e-08 0 0
-6.37888e-08 0 0
-6.09368e-08 0 0
-5.55904e-08 0 0
-4.68904e-08 0 0
-3.70991e-08 0 0
-2.8242e-08 0 0
-2.07571e-08 0 0
-1.46622e-08 0 0
-9.89751e-09 0 0
-6.30994e-09 0 0
-3.77902e-09 0 0
-2.43539e-09 0 0
0.00140291 0 0
0 0 5.48156e-07
2.03854e-11 0 2.65761e-09
2.33361e-08 0 3.21568e-08
-1.17801e-08 0 9.0255e-08
-2.41415e-07 0 3.04769e-08
-9.82288e-08 0 -5.98085e-08
-4.65134e-08 0 -6.87845e-08
-1.06516e-08 0 -7.36743e-08
2.48956e-08 0 -5.69914e-08
5.5266e-08 0 -3.0531e-08
6.32886e-08 0 -6.44969e-09
3.98961e-08 0 5.04365e-09
-2.81722e-09 0 5.04962e-09
-4.373e-08 0 7.59655e-10
-7.05611e-08 0 -2.31898e-09
-8.50572e-08 0 -2.72055e-09
-9.42555e-08 0 -1.5283e-09
-1.02513e-07 0 -1.60148e-10
-1.10604e-07 0 6.89803e-10
-1.17854e-07 0 9.77315e-10
-1.23663e-07 0 9.13782e-10
-1.279e-07 0 7.08085e-10
-1.30762e-07 0 4.86431e-10
-1.32569e-07 0 3.01936e-10
-1.33634e-07 0 1.65294e-10
-1.34206e-07 0 6.89328e-11
-1.3446e-07 0 3.41627e-13
-1.34507e-07 0 -5.22841e-11
-1.34401e-07 0 -9.84049e-11
-1.34153e-07 0 -1.45133e-10
-1.33731e-07 0 -1.98105e-10
-1.33061e-07 0 -2.64001e-10
-1.32e-07 0 -3.52397e-10
-1.30298e-07 0 -4.66829e-10
-1.27631e-07 0 -5.86052e-10
-1.2378e-07 0 -6.6591e-10
-1.18756e-07 0 -6.72827e-10
-1.12729e-07 0 -6.08012e-10
-1.05882e-07 0 -4.98655e-10
-9.83532e-08 0 -3.77743e-10
-9.02522e-08 0 -2.72551e-10
-8.16968e-08 0 -2.00773e-10
-7.28357e-08 0 -1.66299e-10
-6.38796e-08 0 -1.56998e-10
-5.51303e-08 0 -1.51407e-10
-4.69624e-08 0 -1.30447e-10
-3.9764e-08 0 -8.58926e-11
-3.38842e-08 0 -2.20806e-11
-2.96107e-08 0 7.95299e-11
-2.72893e-08 0 2.78682e-10
0.00417527 0 1.08339e-05
0.0036 -2.92064e-07 -4.87877e-08
0.00359982 -0.00130397 1.2774e-05
0.00674996 -0.00381463 4.0613e-05
0.0136233 -0.00637727 -0.00102724
0.024002 -0.0143399 -0.00472908
0.0461055 -0.0124985 -0.004954
0.0494495 -0.00151881 -0.00168491
0.0491286 0.00288477 -0.000167391
0.0439933 0.00515458 0.000574806
0.0382734 0.00531827 0.000546949
0.0331421 0.00461719 0.000239526
0.0289036 0.00360581 -9.08617e-05
0.025588 0.0025591 -0.000311404
0.0231062 0.00167742 -0.000368707
0.021314 0.0010565 -0.000300473
0.0200535 0.000670247 -0.000188988
0.0191865 0.000437803 -9.51048e-05
0.018604 0.00029146 -3.7201e-05
0.0182226 0.00019357 -8.70958e-06
0.0179796 0.000126363 2.38621e-06
0.0178287 8.07235e-05 5.17873e-06
0.017737 5.07201e-05 4.78075e-06
0.0176817 3.18939e-05 3.56165e-06
0.0176477 2.08728e-05 2.42521e-06
0.0176249 1.52438e-05 1.61731e-06
0.0176068 1.341e-05 1.13904e-06
0.0175888 1.44319e-05 9.28517e-07
0.0175672 1.7885e-05 9.29961e-07
0.0175388 2.37556e-05 1.11502e-06
0.0175 3.23738e-05 1.48732e-06
0.0174465 4.43689e-05 2.07962e-06
0.0173727 6.06347e-05 2.94904e-06
0.0172715 8.23636e-05 4.2167e-06
0.0171338 0.000111125 6.18386e-06
0.0169484 0.000148303 9.26448e-06
0.0167023 0.000193229 1.34526e-05
0.0163851 0.000241469 1.78996e-05
0.0159946 0.000285582 2.13193e-05
0.01554 0.000317906 2.2771e-05
0.0150405 0.000333237 2.20588e-05
0.0145212 0.000330124 1.96414e-05
0.0140084 0.000310675 1.6354e-05
0.0135248 0.000279276 1.30966e-05
0.0130874 0.000240776 1.04906e-05
0.0127069 0.000198962 8.66899e-06
0.0123894 0.000155987 7.35384e-06
0.0121385 0.000112636 6.06977e-06
0.0119556 6.90044e-05 4.39288e-06
0.011841 2.76529e-05 4.258e-06
0.0117931 2.1957e-06 1.55617e-05
0.0117931 -3.80176e-06 2.60226e-05
0.01 -1.41262e-07 -1.45535e-06
0.0100008 -0.00299587 -0.000529886
0.0148873 -0.00990214 -0.000747035
0.0241181 -0.0178216 -0.00161732
0.0380105 -0.0317783 -0.00360719
0.0581743 -0.0236182 -0.000857218
0.0556259 -0.00222354 0.00283792
0.0552587 0.00554005 0.00295818
0.0495573 0.0105495 0.0025915
0.0440892 0.0106187 0.00174424
0.0396138 0.00941739 0.000806958
0.0358716 0.00784584 3.73491e-05
0.0327958 0.00618109 -0.000450984
0.0304253 0.00460948 -0.000604991
0.0286845 0.00327678 -0.000508499
0.0274555 0.00224545 -0.000324058
0.0266173 0.00149662 -0.000165354
0.0260639 0.000974646 -6.63474e-05
0.0257107 0.000620911 -1.68882e-05
0.0254932 0.000387124 2.9091e-06
0.0253639 0.000236729 8.30404e-06
0.0252891 0.000142976 7.9758e-06
0.0252462 8.68756e-05 6.0037e-06
0.0252204 5.54316e-05 3.98409e-06
0.025202 4.01392e-05 2.38055e-06
0.0251849 3.57527e-05 1.21715e-06
0.0251646 3.93509e-05 3.86029e-07
0.0251373 4.96817e-05 -2.33593e-07
0.0250993 6.6742e-05 -7.36981e-07
0.0250461 9.1541e-05 -1.18165e-06
0.0249718 0.000125982 -1.58076e-06
0.0248689 0.000172732 -1.91786e-06
0.0247271 0.000235069 -2.11267e-06
0.0245339 0.000316956 -1.69938e-06
0.0242735 0.000422263 3.54748e-07
0.0239264 0.000550609 4.53947e-06
0.0234744 0.000692233 9.43276e-06
0.0229102 0.000828601 1.24509e-05
0.0222435 0.000938857 1.17868e-05
0.0214999 0.00100672 7.29228e-06
0.0207152 0.00102444 1.58223e-07
0.019929 0.000993371 -7.69157e-06
0.0191773 0.000921908 -1.42014e-05
0.0184884 0.000821598 -1.79734e-05
0.0178813 0.00070313 -1.87998e-05
0.0173676 0.000574103 -1.74683e-05
0.0169542 0.000439196 -1.51574e-05
0.0166452 0.000301482 -1.30587e-05
0.0164416 0.00016429 -9.59334e-06
0.0163448 4.3952e-05 1.16519e-05
0.0163446 -8.42416e-06 3.02818e-05
0.0148 -9.7774e-07 -1.74991e-06
0.0148024 -0.00527502 -0.00108594
0.0202274 -0.0162195 -0.00237951
0.026994 -0.0281816 -0.00409297
0.0314625 -0.0449547 -0.00559822
0.0299721 -0.0277371 -0.00112717
0.0264597 -1.20672e-05 0.0031045
0.0261005 0.00724759 0.00315423
0.0300621 0.0149297 0.00298818
0.0305332 0.0145381 0.00204092
0.0296296 0.0128071 0.00104668
0.0286314 0.0108648 0.000191661
0.0278399 0.00861852 -0.000322414
0.0274816 0.00633603 -0.000482813
0.0274122 0.00439855 -0.00039898
0.0274671 0.00293917 -0.000236508
0.0275475 0.00191489 -9.91113e-05
0.0276162 0.00122185 -1.67768e-05
0.0276689 0.000762499 1.95909e-05
0.0277104 0.000464326 2.87918e-05
0.027744 0.000276245 2.58456e-05
0.0277704 0.000162159 1.9328e-05
0.0277895 9.67801e-05 1.30173e-05
0.027801 6.29804e-05 8.07757e-06
0.0278046 4.9763e-05 4.54374e-06
0.0278001 5.06123e-05 2.0872e-06
0.0277866 6.22257e-05 3.37889e-07
0.0277625 8.36292e-05 -1.00883e-06
0.0277255 0.000115626 -2.1724e-06
0.0276715 0.000160507 -3.2871e-06
0.0275951 0.000221955 -4.37541e-06
0.0274883 0.000304907 -5.3554e-06
0.0273402 0.000415092 -6.1377e-06
0.0271366 0.000559072 -6.12203e-06
0.0268594 0.000744358 -3.13772e-06
0.0264837 0.000973229 4.83446e-06
0.0259804 0.00123119 1.5686e-05
0.0253347 0.00148559 2.39782e-05
0.0245565 0.0016975 2.55751e-05
0.0236786 0.00183529 1.96745e-05
0.0227484 0.00188249 8.06093e-06
0.0218172 0.00183928 -5.88793e-06
0.020931 0.00171929 -1.82058e-05
0.0201238 0.00154299 -2.6025e-05
0.0194168 0.00133015 -2.87765e-05
0.0188213 0.0010953 -2.77947e-05
0.018344 0.000847489 -2.50296e-05
0.0179887 0.000592493 -2.22429e-05
0.0177564 0.000336299 -1.8512e-05
0.0176475 9.86918e-05 5.70871e-06
0.0176472 -1.14106e-05 2.73966e-05
0.018 -1.98674e-06 -1.75144e-06
0.0180028 -0.00683068 -0.00188461
0.0205673 -0.0183898 -0.00489409
0.0204124 -0.0240767 -0.00635319
0.0159255 -0.0262526 -0.0074913
-1.54129e-06 -0.0137447 -0.00414869
9.66298e-05 2.54449e-05 8.78103e-07
-3.22285e-05 3.38028e-05 0.000578234
0.00686277 0.00445238 0.00123575
0.0142393 0.0102132 0.00115651
0.0176934 0.011198 0.000725845
0.0193443 0.00998584 0.000171087
0.0210117 0.00784787 -0.00024539
0.022763 0.00549801 -0.00037665
0.0243629 0.00359718 -0.000311664
0.0256739 0.00226554 -0.000179567
0.0266524 0.00140056 -6.09198e-05
0.0273311 0.000853042 1.2946e-05
0.0277813 0.000506878 4.37741e-05
0.0280738 0.00029019 4.72732e-05
0.0282622 0.000159357 3.87351e-05
0.0283821 8.55963e-05 2.75804e-05
0.0284567 4.90117e-05 1.79123e-05
0.0285006 3.62633e-05 1.07601e-05
0.0285235 3.91394e-05 5.85313e-06
0.0285309 5.33107e-05 2.56766e-06
0.028526 7.73042e-05 3.12859e-07
0.0285096 0.000111794 -1.35543e-06
0.0284811 0.000159201 -2.72644e-06
0.0284376 0.00022354 -3.95363e-06
0.0283748 0.000310493 -4.99535e-06
0.0282855 0.000427567 -5.5065e-06
0.0281592 0.000583428 -5.1777e-06
0.0279801 0.000787441 -3.42081e-06
0.0277279 0.00105221 3.76614e-06
0.0273708 0.00138755 2.25941e-05
0.0268616 0.00177746 5.10877e-05
0.0261701 0.00217162 7.75045e-05
0.0253061 0.00250587 9.12803e-05
0.0243146 0.00272745 8.86693e-05
0.0232604 0.00280892 7.1733e-05
0.0222119 0.00275005 4.68844e-05
0.0212265 0.00257251 2.23705e-05
0.0203423 0.00230909 4.19451e-06
0.0195782 0.00199114 -6.3115e-06
0.0189421 0.00164109 -1.13617e-05
0.0184374 0.00127244 -1.40696e-05
0.0180655 0.00089355 -1.69279e-05
0.017826 0.000512882 -1.9111e-05
0.0177169 0.000155997 3.04306e-07
0.0177165 -1.13748e-05 2.01798e-05
0.0196 -2.77954e-06 -2.66106e-06
0.0196009 -0.00563928 -0.00273585
0.0190905 -0.0126195 -0.00642822
0.0160789 -0.0154724 -0.00670082
0.0111143 -0.0143908 -0.00670746
0.00190871 -0.00590137 -0.00489902
7.16427e-05 -6.55735e-05 -0.00119745
3.3345e-05 -3.3345e-05 -4.05527e-08
-3.1475e-05 3.2982e-05 0.000203358
0.0043583 0.0032587 0.000423555
0.0100681 0.00758722 0.000351244
0.0129477 0.00771436 3.15649e-05
0.0161761 0.00552142 -0.000299507
0.0193349 0.0033037 -0.000402857
0.0220689 0.00171749 -0.000359592
0.0242578 0.000773364 -0.000246471
0.0258696 0.000297273 -0.000119103
0.0269632 8.35261e-05 -2.25817e-05
0.0276624 -8.69667e-06 2.71659e-05
0.0280946 -4.61408e-05 4.07388e-05
0.0283569 -5.52857e-05 3.60617e-05
0.0285137 -4.80427e-05 2.60122e-05
0.0286055 -3.1317e-05 1.66428e-05
0.0286574 -9.10558e-06 9.6945e-06
0.0286847 1.70063e-05 5.04554e-06
0.0286964 4.73781e-05 2.05856e-06
0.0286974 8.38763e-05 1.20491e-07
0.02869 0.000129633 -1.20173e-06
0.0286746 0.000189045 -2.13936e-06
0.0286499 0.000267929 -2.7539e-06
0.0286124 0.000373865 -2.86606e-06
0.0285566 0.000516956 -1.62289e-06
0.0284729 0.000709573 2.11064e-06
0.0283437 0.000964386 8.86216e-06
0.0281447 0.00129961 2.50378e-05
0.0278365 0.00173891 6.69839e-05
0.027343 0.00227201 0.000137908
0.0266049 0.00282703 0.000213738
0.0256332 0.00330351 0.00026613
0.0244949 0.00361993 0.0002807
0.0232859 0.0037363 0.000258565
0.0221009 0.00365455 0.000213547
0.0210108 0.00340903 0.000163727
0.0200543 0.00304935 0.000121617
0.0192436 0.002621 9.01462e-05
0.0185791 0.00215462 6.58664e-05
0.0180591 0.00166747 4.41873e-05
0.0176818 0.00116996 2.19217e-05
0.0174437 0.000672772 1.5953e-07
0.0173391 0.000208497 6.81491e-07
0.0173386 -8.87056e-06 1.13958e-05
0.0196 -1.32688e-06 -3.63658e-06
0.0196 -0.00352343 -0.0030942
0.0189031 -0.00760418 -0.00646479
0.0176565 -0.00742232 -0.00614857
0.0134927 -0.00361043 -0.00564884
0.0094552 0.00298983 -0.00512161
0.00626922 0.00326001 -0.00280385
7.17529e-05 -5.93942e-05 -0.000556907
2.79192e-05 -2.79192e-05 -1.31063e-07
-3.07224e-05 3.22276e-05 6.5734e-05
0.00324043 0.00255757 0.00033491
0.00784496 0.00399143 0.000316043
0.0132232 0.00173346 -3.99893e-05
0.0178576 -8.03036e-05 -0.000244135
0.021439 -0.0010505 -0.000337412
0.0240863 -0.00134471 -0.000325101
0.0259274 -0.00120811 -0.000226319
0.0271029 -0.000914046 -0.000110238
0.0277969 -0.000636087 -3.04627e-05
0.0281854 -0.000427104 5.81878e-06
0.0283956 -0.00028054 1.50171e-05
0.0285065 -0.000177838 1.31177e-05
0.0285637 -0.000103855 8.73132e-06
0.0285923 -4.78991e-05 4.99117e-06
0.0286063 -2.07753e-06 2.49037e-06
0.0286131 3.99574e-05 1.00712e-06
0.0286165 8.38073e-05 2.1353e-07
0.0286184 0.000134962 -9.80948e-08
0.0286195 0.000199432 6.25643e-08
0.0286193 0.000284402 8.94114e-07
0.0286161 0.000398839 2.83987e-06
0.028606 0.000554737 7.46462e-06
0.0285817 0.000768374 1.78288e-05
0.0285253 0.00105691 3.52426e-05
0.0284058 0.00144304 6.86349e-05
0.0281759 0.00196806 0.000154653
0.0277197 0.00263749 0.000316576
0.0269242 0.00335606 0.000509375
0.0258042 0.00397491 0.000659142
0.0244667 0.00437822 0.00072153
0.02306 0.00451605 0.000695494
0.0217163 0.00439786 0.000612759
0.0205176 0.00407613 0.000511936
0.0194955 0.00362071 0.00041775
0.0186489 0.0030918 0.000336728
0.0179671 0.0025266 0.000264628
0.0174416 0.00194412 0.00019561
0.0170671 0.00135558 0.000126185
0.0168371 0.000773943 5.82089e-05
0.0167409 0.000239065 1.49578e-05
0.0167404 -8.73322e-06 4.60437e-06
0.018 -8.59212e-07 -3.59292e-06
0.018001 -0.00186928 -0.00301967
0.0183877 -0.00345952 -0.00612082
0.0185651 -0.0020422 -0.00538805
0.0177012 0.00124406 -0.00439017
0.0175203 0.00742943 -0.00393116
0.0182132 0.0126668 -0.00271014
0.0112345 0.00693255 -0.00126228
7.33904e-05 -4.5398e-05 -0.000376201
-2.36719e-05 -5.30231e-05 5.64998e-07
7.88937e-06 -0.000388653 0.000768095
0.0088721 -0.00236408 0.00118428
0.016617 -0.00438126 0.000655014
0.0216888 -0.00465452 0.000337664
0.0246527 -0.0041846 4.98543e-05
0.0263205 -0.0034151 -0.000178341
0.0272429 -0.00251417 -0.000249618
0.0277178 -0.00168295 -0.000196605
0.0279274 -0.0010572 -0.000113887
0.0279963 -0.000643236 -5.40601e-05
0.0280022 -0.000384513 -2.25211e-05
0.0279862 -0.00022412 -8.69144e-06
0.0279673 -0.000122496 -3.23972e-06
0.0279528 -5.4749e-05 -1.1279e-06
0.0279448 -5.19627e-06 -1.67629e-07
0.0279438 3.65426e-05 4.98232e-07
0.0279499 7.80061e-05 1.22904e-06
0.0279633 0.000125515 2.27007e-06
0.0279846 0.000185371 3.96983e-06
0.0280148 0.000264932 6.94667e-06
0.0280542 0.000373509 1.21541e-05
0.0281019 0.000523478 2.19933e-05
0.0281546 0.000733053 4.23838e-05
0.0281979 0.00102477 7.78805e-05
0.0281951 0.00142479 0.000140771
0.0280916 0.00198613 0.000300042
0.0277312 0.00273067 0.00062245
0.0269067 0.00354163 0.00102493
0.0256399 0.00422756 0.00134249
0.0240939 0.00465311 0.0014798
0.0224931 0.00476952 0.00143973
0.0210109 0.00460055 0.00129039
0.0197302 0.00421783 0.00110418
0.0186654 0.00370649 0.000922978
0.017798 0.00313415 0.000757682
0.0171067 0.00253757 0.000603202
0.0165783 0.00193281 0.000452645
0.016205 0.00132961 0.00030275
0.0159791 0.000742648 0.000157216
0.015887 0.0002174 4.30177e-05
0.0158865 -2.09058e-05 -5.80112e-07
0.0148 -4.85866e-07 -3.16771e-06
0.0148015 -0.000929506 -0.00279116
0.0163204 -0.00131449 -0.00541163
0.0180934 0.000483544 -0.00443713
0.0197059 0.003684 -0.00331509
0.0216596 0.00758038 -0.00295791
0.0254395 0.0128971 -0.0023133
0.0286675 0.0196336 -0.00134143
0.0234793 0.0115019 -0.000235528
0.0238926 1.7993e-10 0.000655934
0.0271418 -0.00670722 0.00156466
0.0310828 -0.0132542 0.00212037
0.0322868 -0.0114273 0.00178205
0.0316846 -0.00820355 0.00139656
0.0303111 -0.00554017 0.000792272
0.0288365 -0.00366107 0.000147896
0.0276196 -0.00233599 -0.000227228
0.0267556 -0.00141317 -0.000292936
0.0261902 -0.000816172 -0.000212625
0.0258348 -0.000459375 -0.000120564
0.0256166 -0.000255141 -5.98102e-05
0.0254857 -0.000138469 -2.74027e-05
0.0254098 -6.95028e-05 -1.17637e-05
0.0253692 -2.55612e-05 -4.47009e-06
0.0253521 6.27376e-06 -9.3188e-07
0.0253522 3.38136e-05 1.10319e-06
0.0253669 6.243e-05 2.75091e-06
0.0253957 9.66229e-05 4.68637e-06
0.0254404 0.000141061 7.56086e-06
0.025504 0.000201496 1.23568e-05
0.0255906 0.000285773 2.06806e-05
0.0257042 0.000404603 3.58416e-05
0.0258478 0.000573881 6.60781e-05
0.0260151 0.000818027 0.000121551
0.0261741 0.00116488 0.000221967
0.0262751 0.0016557 0.000470652
0.0261407 0.00230077 0.000976963
0.0254238 0.00297174 0.00157889
0.0241761 0.00350535 0.00201434
0.0225835 0.00380917 0.00217424
0.0209537 0.00384794 0.00208311
0.0194671 0.00365628 0.00185707
0.0181949 0.00330469 0.0015945
0.0171392 0.00286854 0.00134418
0.016274 0.00240033 0.00111333
0.015578 0.00192292 0.000891645
0.0150401 0.00144413 0.000670607
0.0146536 0.000970402 0.000448345
0.0144125 0.00051587 0.000232276
0.0143079 0.000123306 5.46609e-05
0.0143076 -4.93245e-05 -1.81645e-05
0.01 -9.34255e-07 -2.84684e-06
0.0100008 -0.000575585 -0.0022854
0.0114497 -0.000538145 -0.00417973
0.0136055 0.000802344 -0.00308849
0.0164188 0.00275266 -0.00205988
0.020616 0.00570063 -0.00197509
0.0265377 0.00834228 -0.00235263
0.035496 0.0101515 -0.00200932
0.047262 0.00493777 -0.000438565
0.0469862 -0.00409864 0.00106266
0.0464819 -0.00853238 0.00166548
0.0391779 -0.0088504 0.00177095
0.0320722 -0.00615516 0.00156726
0.0267379 -0.00350593 0.00124609
0.0231427 -0.0016672 0.000746211
0.0208686 -0.000620467 0.000207876
0.0195072 -0.000139974 -0.000121483