# vtk DataFile Version 2.0
Tobias Weinzierl: CPU, Manycore and Cluster Computing
ASCII

DATASET STRUCTURED_POINTS
DIMENSIONS  51 11 6

ORIGIN 0 0 0 

SPACING 0.1 0.1 0.1 

POINT_DATA 3366

VECTORS velocity float
0 0 0
1.46547e-11 0 0
-1.71933e-08 0 0
-9.80014e-08 0 0
-2.00764e-07 0 0
-8.3386e-08 0 0
-4.21004e-08 0 0
-1.30724e-08 0 0
7.07426e-09 0 0
-2.75186e-09 0 0
-3.65319e-08 0 0
-7.16753e-08 0 0
-9.21673e-08 0 0
-9.70214e-08 0 0
-9.38614e-08 0 0
-8.99141e-08 0 0
-8.81563e-08 0 0
-8.84842e-08 0 0
-8.98583e-08 0 0
-9.14296e-08 0 0
-9.27685e-08 0 0
-9.37481e-08 0 0
-9.43931e-08 0 0
-9.4779e-08 0 0
-9.49832e-08 0 0
-9.50662e-08 0 0
-9.5067e-08 0 0
-9.50048e-08 0 0
-9.48808e-08 0 0
-9.46787e-08 0 0
-9.43619e-08 0 0
-9.38661e-08 0 0
-9.30876e-08 0 0
-9.18874e-08 0 0
-9.01356e-08 0 0
-8.7773e-08 0 0
-8.48141e-08 0 0
-8.12944e-08 0 0
-7.72368e-08 0 0
-7.26598e-08 0 0
-6.76063e-08 0 0
-6.21666e-08 0 0
-5.64912e-08 0 0
-5.07892e-08 0 0
-4.53064e-08 0 0
-4.02873e-08 0 0
-3.59409e-08 0 0
-3.24261e-08 0 0
-2.98737e-08 0 0
-2.85086e-08 0 0
0.0015837 0 0
0 4.22299e-07 0
4.27645e-11 -1.07697e-09 0
-2.39798e-08 1.49549e-08 0
-1.67899e-07 4.22639e-08 0
-3.20958e-07 2.16646e-08 0
-1.34048e-07 3.932e-08 0
-9.66626e-08 9.58565e-08 0
-7.569e-08 8.09009e-08 0
-3.52992e-08 5.28713e-08 0
-2.86457e-08 5.12975e-08 0
-6.76945e-08 5.39972e-08 0
-1.2163e-07 4.46978e-08 0
-1.58077e-07 2.53314e-08 0
-1.69531e-07 7.66064e-09 0
-1.68731e-07 -1.03745e-09 0
-1.68618e-07 -2.14309e-09 0
-1.73084e-07 -3.5141e-10 0
-1.80407e-07 1.28768e-09 0
-1.88026e-07 1.96089e-09 0
-1.94424e-07 1.90146e-09 0
-1.99143e-07 1.51032e-09 0
-2.02314e-07 1.05835e-09 0
-2.04282e-07 6.7156e-10 0
-2.05399e-07 3.85141e-10 0
-2.05947e-07 1.90574e-10 0
-2.06119e-07 6.31607e-11 0
-2.06031e-07 -2.52149e-11 0
-2.05734e-07 -1.02083e-10 0
-2.05226e-07 -1.95146e-10 0
-2.04455e-07 -3.36021e-10 0
-2.03321e-07 -5.67091e-10 0
-2.01661e-07 -9.49167e-10 0
-1.99224e-07 -1.55378e-09 0
-1.95661e-07 -2.41892e-09 0
-1.90624e-07 -3.49908e-09 0
-1.83944e-07 -4.68808e-09 0
-1.75675e-07 -5.90197e-09 0
-1.65959e-07 -7.11145e-09 0
-1.54916e-07 -8.29937e-09 0
-1.42668e-07 -9.41542e-09 0
-1.29398e-07 -1.03687e-08 0
-1.15389e-07 -1.10456e-08 0
-1.01035e-07 -1.1335e-08 0
-8.68416e-08 -1.11584e-08 0
-7.33791e-08 -1.04973e-08 0
-6.12058e-08 -9.39725e-09 0
-5.07884e-08 -7.94209e-09 0
-4.24726e-08 -6.20413e-09 0
-3.64964e-08 -4.16325e-09 0
-3.32116e-08 -1.88722e-09 0
0.00425042 -9.10458e-06 0
0 -9.49953e-09 0
6.20762e-11 -3.11433e-10 0
1.97881e-08 -2.10714e-08 0
-6.88033e-08 -9.29112e-08 0
-1.29398e-07 -1.67947e-07 0
1.11923e-08 -6.09834e-08 0
-6.86367e-08 1.0722e-07 0
-1.16278e-07 1.08827e-07 0
-1.00521e-07 5.22406e-08 0
-6.75727e-08 2.04084e-08 0
-7.85679e-08 6.24724e-09 0
-1.14885e-07 1.00351e-08 0
-1.44151e-07 2.51312e-08 0
-1.51589e-07 3.705e-08 0
-1.47359e-07 3.97211e-08 0
-1.45351e-07 3.58597e-08 0
-1.49736e-07 2.93057e-08 0
-1.58033e-07 2.23279e-08 0
-1.66808e-07 1.60411e-08 0
-1.74067e-07 1.09272e-08 0
-1.79254e-07 7.07378e-09 0
-1.82584e-07 4.34057e-09 0
-1.84518e-07 2.49391e-09 0
-1.85501e-07 1.29155e-09 0
-1.85867e-07 5.22574e-10 0
-1.85832e-07 1.83541e-11 0
-1.85512e-07 -3.51719e-10 0
-1.84946e-07 -6.91261e-10 0
-1.84113e-07 -1.08997e-09 0
-1.82938e-07 -1.63629e-09 0
-1.813e-07 -2.43053e-09 0
-1.79024e-07 -3.60233e-09 0
-1.7585e-07 -5.31236e-09 0
-1.71358e-07 -7.67037e-09 0
-1.65029e-07 -1.05852e-08 0
-1.5656e-07 -1.376e-08 0
-1.46058e-07 -1.68982e-08 0
-1.33797e-07 -1.98397e-08 0
-1.20006e-07 -2.2492e-08 0
-1.049e-07 -2.47319e-08 0
-8.87705e-08 -2.6392e-08 0
-7.2011e-08 -2.72978e-08 0
-5.50986e-08 -2.73012e-08 0
-3.85937e-08 -2.63074e-08 0
-2.3129e-08 -2.43136e-08 0
-9.31952e-09 -2.14276e-08 0
2.34557e-09 -1.78211e-08 0
1.15431e-08 -1.36551e-08 0
1.81233e-08 -9.04934e-09 0
2.19141e-08 -4.30535e-09 0
0.00561893 -2.15444e-05 0
0 -6.38349e-07 0
6.24469e-11 -1.92095e-08 0
5.58216e-08 -8.35939e-08 0
-5.03823e-09 -1.96089e-07 0
-7.86599e-08 -2.68782e-07 0
6.18542e-08 -1.37153e-07 0
-1.40691e-08 -9.49252e-11 0
-5.36599e-08 -2.39068e-08 0
-1.14124e-07 -7.58289e-08 0
-1.14235e-07 -1.03642e-07 0
-1.3049e-07 -8.5564e-08 0
-1.66861e-07 -3.45561e-08 0
-1.90865e-07 2.36973e-08 0
-1.88363e-07 5.64578e-08 0
-1.67907e-07 6.17033e-08 0
-1.46274e-07 5.36933e-08 0
-1.32651e-07 4.23004e-08 0
-1.2724e-07 3.12384e-08 0
-1.26565e-07 2.1731e-08 0
-1.27547e-07 1.42301e-08 0
-1.28598e-07 8.74413e-09 0
-1.29212e-07 4.9851e-09 0
-1.29385e-07 2.5431e-09 0
-1.2925e-07 1.01573e-09 0
-1.28932e-07 6.80232e-11 0
-1.28502e-07 -5.56335e-10 0
-1.27983e-07 -1.04788e-09 0
-1.2736e-07 -1.55279e-09 0
-1.26587e-07 -2.19508e-09 0
-1.2559e-07 -3.09521e-09 0
-1.24264e-07 -4.3838e-09 0
-1.22483e-07 -6.22636e-09 0
-1.20079e-07 -8.86485e-09 0
-1.16665e-07 -1.2548e-08 0
-1.11494e-07 -1.72252e-08 0
-1.03934e-07 -2.23756e-08 0
-9.40488e-08 -2.73627e-08 0
-8.22493e-08 -3.18166e-08 0
-6.88191e-08 -3.55742e-08 0
-5.3987e-08 -3.84842e-08 0
-3.80961e-08 -4.03651e-08 0
-2.16146e-08 -4.10596e-08 0
-5.04258e-09 -4.04622e-08 0
1.10809e-08 -3.8509e-08 0
2.61235e-08 -3.52154e-08 0
3.94612e-08 -3.07354e-08 0
5.06416e-08 -2.53293e-08 0
5.9429e-08 -1.92541e-08 0
6.57756e-08 -1.27331e-08 0
6.96091e-08 -6.3662e-09 0
0.00592968 -3.34926e-05 0
0 -1.22374e-06 0
9.13503e-12 -4.65301e-08 0
2.7829e-08 -1.28885e-07 0
-4.7736e-08 -1.71545e-07 0
-1.51504e-07 -1.37495e-07 0
-4.3635e-11 -4.83535e-08 0
-3.18151e-10 -3.96618e-10 0
3.44875e-10 -3.81903e-10 0
-5.59756e-08 -6.25539e-08 0
-1.54367e-07 -1.36664e-07 0
-1.86232e-07 -1.16677e-07 0
-2.1017e-07 -4.24955e-08 0
-2.29066e-07 2.71561e-08 0
-2.27961e-07 5.78073e-08 0
-2.05185e-07 5.52817e-08 0
-1.72645e-07 4.26573e-08 0
-1.44469e-07 3.10636e-08 0
-1.26142e-07 2.18397e-08 0
-1.15927e-07 1.43894e-08 0
-1.10408e-07 8.60026e-09 0
-1.0719e-07 4.47243e-09 0
-1.05086e-07 1.79313e-09 0
-1.03594e-07 1.96992e-10 0
-1.02498e-07 -6.93326e-10 0
-1.01679e-07 -1.18908e-09 0
-1.01053e-07 -1.52029e-09 0
-1.00548e-07 -1.85211e-09 0
-1.001e-07 -2.31053e-09 0
-9.96525e-08 -3.00819e-09 0
-9.9145e-08 -4.06652e-09 0
-9.85005e-08 -5.62605e-09 0
-9.76302e-08 -7.86019e-09 0
-9.64855e-08 -1.10675e-08 0
-9.48409e-08 -1.57237e-08 0
-9.17051e-08 -2.20328e-08 0
-8.57204e-08 -2.93104e-08 0
-7.66399e-08 -3.63794e-08 0
-6.50831e-08 -4.24664e-08 0
-5.14353e-08 -4.72897e-08 0
-3.59897e-08 -5.06972e-08 0
-1.92113e-08 -5.25383e-08 0
-1.75894e-09 -5.27348e-08 0
1.57519e-08 -5.13137e-08 0
3.27473e-08 -4.83129e-08 0
4.85303e-08 -4.37804e-08 0
6.24066e-08 -3.79106e-08 0
7.39403e-08 -3.10387e-08 0
8.29794e-08 -2.34908e-08 0
8.95541e-08 -1.55386e-08 0
9.36009e-08 -8.00634e-09 0
0.00590077 -4.29779e-05 0
0 -1.09221e-06 0
-2.26114e-11 -4.77908e-08 0
-3.60542e-09 -1.03442e-07 0
-7.96153e-08 -1.37366e-07 0
-1.9122e-07 -1.58949e-07 0
-9.41578e-08 -7.72462e-08 0
-3.29442e-10 3.17259e-10 0
2.68109e-11 -2.68109e-11 0
3.20531e-10 -3.69968e-10 0
-8.18105e-08 -6.66102e-08 0
-1.77666e-07 -1.17242e-07 0
-1.81713e-07 -4.59694e-08 0
-2.03947e-07 4.08961e-08 0
-2.30239e-07 7.03903e-08 0
-2.31549e-07 5.44136e-08 0
-2.02609e-07 2.99621e-08 0
-1.65176e-07 1.39718e-08 0
-1.36145e-07 5.56682e-09 0
-1.18266e-07 9.37391e-10 0
-1.08154e-07 -1.71827e-09 0
-1.0241e-07 -3.03511e-09 0
-9.90216e-08 -3.43277e-09 0
-9.69613e-08 -3.30635e-09 0
-9.56983e-08 -2.97286e-09 0
-9.49332e-08 -2.64378e-09 0
-9.44845e-08 -2.44557e-09 0
-9.42385e-08 -2.45592e-09 0
-9.41239e-08 -2.73625e-09 0
-9.40984e-08 -3.35739e-09 0
-9.41382e-08 -4.42325e-09 0
-9.42097e-08 -6.08246e-09 0
-9.42467e-08 -8.50906e-09 0
-9.42972e-08 -1.19868e-08 0
-9.45006e-08 -1.71971e-08 0
-9.39063e-08 -2.48753e-08 0
-9.00074e-08 -3.44512e-08 0
-8.15998e-08 -4.40133e-08 0
-6.96272e-08 -5.20212e-08 0
-5.4749e-08 -5.79418e-08 0
-3.75527e-08 -6.1696e-08 0
-1.86277e-08 -6.32459e-08 0
1.10088e-09 -6.26234e-08 0
2.07838e-08 -6.00973e-08 0
3.97654e-08 -5.59227e-08 0
5.72332e-08 -5.01959e-08 0
7.23806e-08 -4.31226e-08 0
8.47998e-08 -3.50882e-08 0
9.44632e-08 -2.64465e-08 0
1.01495e-07 -1.74637e-08 0
1.05785e-07 -9.08918e-09 0
0.00576101 -4.88667e-05 0
0 -7.66128e-07 0
-6.99478e-12 -3.94355e-08 0
-7.17505e-09 -9.4885e-08 0
-8.09263e-08 -1.08087e-07 0
-2.13315e-07 -9.22125e-08 0
-2.1318e-07 -5.14481e-08 0
-6.32762e-08 -1.18669e-08 0
-3.20559e-10 3.14836e-10 0
4.95403e-12 -4.95403e-12 0
2.76384e-10 -3.63804e-10 0
-7.45181e-08 -5.31718e-08 0
-8.48218e-08 -3.32434e-08 0
-1.12225e-07 8.0556e-08 0
-1.7813e-07 1.09463e-07 0
-2.27264e-07 6.8407e-08 0
-2.20592e-07 2.04215e-08 0
-1.82141e-07 -5.423e-09 0
-1.45707e-07 -1.38816e-08 0
-1.22705e-07 -1.47747e-08 0
-1.10642e-07 -1.30959e-08 0
-1.04826e-07 -1.06816e-08 0
-1.02132e-07 -8.27115e-09 0
-1.00941e-07 -6.20993e-09 0
-1.00475e-07 -4.62768e-09 0
-1.00368e-07 -3.53019e-09 0
-1.0045e-07 -2.87322e-09 0
-1.00651e-07 -2.61211e-09 0
-1.00949e-07 -2.72898e-09 0
-1.01352e-07 -3.2465e-09 0
-1.01899e-07 -4.24282e-09 0
-1.0263e-07 -5.87441e-09 0
-1.03523e-07 -8.34632e-09 0
-1.04648e-07 -1.18831e-08 0
-1.06585e-07 -1.71519e-08 0
-1.09017e-07 -2.54677e-08 0
-1.08168e-07 -3.68652e-08 0
-1.00623e-07 -4.88212e-08 0
-8.77072e-08 -5.87793e-08 0
-7.06102e-08 -6.58297e-08 0
-5.06258e-08 -7.0064e-08 0
-2.83903e-08 -7.15375e-08 0
-5.05408e-09 -7.01654e-08 0
1.80048e-08 -6.65235e-08 0
3.9928e-08 -6.12589e-08 0
5.9766e-08 -5.45395e-08 0
7.66043e-08 -4.65498e-08 0
9.01311e-08 -3.77062e-08 0
1.00523e-07 -2.83584e-08 0
1.08048e-07 -1.8704e-08 0
1.12533e-07 -9.69586e-09 0
0.00556984 -5.12323e-05 0
0 -5.40155e-07 0
1.81359e-12 -3.29782e-08 0
-1.39885e-08 -7.75977e-08 0
-9.4368e-08 -8.31783e-08 0
-2.09635e-07 -5.1662e-08 0
-2.33954e-07 -1.46389e-08 0
-1.53635e-07 -1.86741e-08 0
-7.13835e-08 -1.71411e-08 0
-3.46964e-10 2.83009e-10 0
2.70307e-10 2.83864e-10 0
-1.69483e-11 -2.97407e-08 0
-5.28131e-08 1.20461e-08 0
-4.3095e-08 1.29389e-07 0
-6.96593e-08 1.53237e-07 0
-1.41467e-07 8.66994e-08 0
-1.83233e-07 1.51216e-08 0
-1.76193e-07 -2.01194e-08 0
-1.52742e-07 -2.80507e-08 0
-1.35321e-07 -2.50064e-08 0
-1.27072e-07 -1.93362e-08 0
-1.24507e-07 -1.3966e-08 0
-1.24455e-07 -9.71201e-09 0
-1.25231e-07 -6.64373e-09 0
-1.26138e-07 -4.57427e-09 0
-1.26959e-07 -3.26821e-09 0
-1.27671e-07 -2.5296e-09 0
-1.28323e-07 -2.22912e-09 0
-1.28985e-07 -2.30557e-09 0
-1.29741e-07 -2.76067e-09 0
-1.30691e-07 -3.65638e-09 0
-1.31965e-07 -5.1388e-09 0
-1.33637e-07 -7.46456e-09 0
-1.35784e-07 -1.08942e-08 0
-1.39253e-07 -1.58587e-08 0
-1.44813e-07 -2.36918e-08 0
-1.47925e-07 -3.5096e-08 0
-1.41164e-07 -4.73802e-08 0
-1.2641e-07 -5.77213e-08 0
-1.06493e-07 -6.58243e-08 0
-8.19882e-08 -7.18568e-08 0
-5.39074e-08 -7.49107e-08 0
-2.43394e-08 -7.40273e-08 0
4.26721e-09 -7.0086e-08 0
3.06025e-08 -6.43011e-08 0
5.35978e-08 -5.69939e-08 0
7.24067e-08 -4.8419e-08 0
8.70104e-08 -3.90896e-08 0
9.79363e-08 -2.93751e-08 0
1.05701e-07 -1.93987e-08 0
1.10161e-07 -1.00018e-08 0
0.00532434 -5.16216e-05 0
0 -4.71998e-07 0
1.5751e-11 -2.31494e-08 0
-2.80657e-08 -5.79245e-08 0
-1.21814e-07 -6.3877e-08 0
-2.26877e-07 -3.70364e-08 0
-2.51478e-07 3.47251e-09 0
-1.93469e-07 2.08408e-09 0
-1.50108e-07 -6.13433e-08 0
-7.91634e-08 -5.20206e-08 0
-7.19396e-08 -1.64704e-13 0
-1.4529e-07 2.76503e-08 0
-2.38177e-07 6.98614e-08 0
-1.53867e-07 1.00303e-07 0
-4.41029e-08 1.04388e-07 0
-6.63684e-08 6.56454e-08 0
-1.43521e-07 1.85326e-08 0
-1.80191e-07 -9.75519e-09 0
-1.81686e-07 -1.83988e-08 0
-1.7671e-07 -1.68751e-08 0
-1.75224e-07 -1.26207e-08 0
-1.76625e-07 -8.70767e-09 0
-1.78942e-07 -5.83333e-09 0
-1.81121e-07 -3.9074e-09 0
-1.82859e-07 -2.68502e-09 0
-1.84179e-07 -1.95435e-09 0
-1.85209e-07 -1.57335e-09 0
-1.86092e-07 -1.46377e-09 0
-1.86963e-07 -1.60012e-09 0
-1.87958e-07 -2.00399e-09 0
-1.8923e-07 -2.7411e-09 0
-1.90977e-07 -3.92601e-09 0
-1.93404e-07 -5.78567e-09 0
-1.96742e-07 -8.67739e-09 0
-2.01971e-07 -1.28906e-08 0
-2.10674e-07 -1.89865e-08 0
-2.18488e-07 -2.74932e-08 0
-2.12958e-07 -3.58766e-08 0
-1.96046e-07 -4.23922e-08 0
-1.76264e-07 -5.02611e-08 0
-1.47651e-07 -5.99898e-08 0
-1.10167e-07 -6.6974e-08 0
-7.00989e-08 -6.82798e-08 0
-3.30666e-08 -6.52039e-08 0
-7.53501e-10 -5.97852e-08 0
2.59893e-08 -5.27154e-08 0
4.67975e-08 -4.44795e-08 0
6.22707e-08 -3.56878e-08 0
7.34272e-08 -2.67004e-08 0
8.1086e-08 -1.76337e-08 0
8.52517e-08 -9.18745e-09 0
0.0048936 -5.02683e-05 0
0 -4.96013e-07 0
2.72145e-11 -1.06819e-08 0
-4.15136e-08 -2.9009e-08 0
-1.36578e-07 -3.22711e-08 0
-2.23192e-07 -1.90956e-08 0
-2.51962e-07 -9.82959e-09 0
-2.13939e-07 -1.72121e-08 0
-1.84187e-07 -5.3077e-08 0
-2.05085e-07 -4.96322e-08 0
-1.8567e-07 3.36647e-08 0
-2.08299e-07 1.13769e-07 0
-2.07494e-07 1.05772e-07 0
-1.27754e-07 2.14219e-08 0
-5.22287e-08 -4.77767e-08 0
-8.78052e-08 -6.09808e-08 0
-1.68295e-07 -3.48684e-08 0
-2.08498e-07 -5.81286e-09 0
-2.11515e-07 7.0684e-09 0
-2.05331e-07 7.65161e-09 0
-2.01501e-07 4.55805e-09 0
-2.00714e-07 1.89642e-09 0
-2.01443e-07 4.01367e-10 0
-2.02608e-07 -2.58345e-10 0
-2.03739e-07 -4.85988e-10 0
-2.04713e-07 -5.4122e-10 0
-2.05556e-07 -5.60537e-10 0
-2.0635e-07 -6.12523e-10 0
-2.07201e-07 -7.38101e-10 0
-2.08241e-07 -9.74634e-10 0
-2.0964e-07 -1.37158e-09 0
-2.11625e-07 -1.99734e-09 0
-2.14496e-07 -2.9594e-09 0
-2.18712e-07 -4.47306e-09 0
-2.2533e-07 -6.71265e-09 0
-2.35682e-07 -9.42762e-09 0
-2.45997e-07 -1.25159e-08 0
-2.43282e-07 -1.56185e-08 0
-2.28827e-07 -1.79545e-08 0
-2.17322e-07 -2.27411e-08 0
-1.96573e-07 -3.15694e-08 0
-1.61379e-07 -3.91951e-08 0
-1.19303e-07 -4.14175e-08 0
-8.08544e-08 -3.89985e-08 0
-4.901e-08 -3.46747e-08 0
-2.35403e-08 -2.98244e-08 0
-4.0618e-09 -2.47509e-08 0
1.02799e-08 -1.95881e-08 0
2.05415e-08 -1.44347e-08 0
2.74931e-08 -9.41781e-09 0
3.11287e-08 -5.04099e-09 0
0.00370813 -3.76059e-05 0
0 0 0
1.7006e-11 0 0
-2.24487e-08 0 0
-6.62177e-08 0 0
-1.01806e-07 0 0
-1.15373e-07 0 0
-1.10834e-07 0 0
-1.05459e-07 0 0
-1.25954e-07 0 0
-1.13736e-07 0 0
-6.30256e-08 0 0
-1.07823e-08 0 0
7.73801e-09 0 0
-1.12171e-08 0 0
-5.74228e-08 0 0
-9.70055e-08 0 0
-1.10909e-07 0 0
-1.07996e-07 0 0
-1.01501e-07 0 0
-9.69275e-08 0 0
-9.4708e-08 0 0
-9.39547e-08 0 0
-9.38997e-08 0 0
-9.41139e-08 0 0
-9.4408e-08 0 0
-9.47214e-08 0 0
-9.50551e-08 0 0
-9.54421e-08 0 0
-9.59379e-08 0 0
-9.66236e-08 0 0
-9.76151e-08 0 0
-9.9076e-08 0 0
-1.01283e-07 0 0
-1.04767e-07 0 0
-1.09959e-07 0 0
-1.15097e-07 0 0
-1.14677e-07 0 0
-1.09146e-07 0 0
-1.06748e-07 0 0
-1.00942e-07 0 0
-8.72631e-08 0 0
-6.84551e-08 0 0
-5.09816e-08 0 0
-3.69417e-08 0 0
-2.5815e-08 0 0
-1.72208e-08 0 0
-1.08034e-08 0 0
-6.14905e-09 0 0
-2.97032e-09 0 0
-1.31983e-09 0 0
0.00140674 0 0
0 0 5.55075e-07
5.90412e-11 0 1.82781e-08
-1.41012e-08 0 8.30725e-08
-1.70889e-07 0 1.41314e-07
-5.35255e-07 0 -3.62921e-08
-2.13889e-07 0 -1.98008e-07
-7.02978e-08 0 -1.66189e-07
3.21704e-08 0 -1.30084e-07
1.00049e-07 0 -6.31947e-08
1.06857e-07 0 -7.69165e-09
5.57303e-08 0 1.49277e-08
-2.05412e-08 0 1.09399e-08
-8.71657e-08 0 1.61653e-11
-1.29234e-07 0 -5.96658e-09
-1.50965e-07 0 -6.07066e-09
-1.63331e-07 0 -3.56263e-09
-1.73448e-07 0 -1.07881e-09
-1.83088e-07 0 4.14093e-10
-1.91676e-07 0 9.84377e-10
-1.98539e-07 0 1.00851e-09
-2.03527e-07 0 8.07918e-10
-2.06881e-07 0 5.65942e-10
-2.08984e-07 0 3.58934e-10
-2.10205e-07 0 2.0465e-10
-2.10836e-07 0 9.62775e-11
-2.11081e-07 0 2.02259e-11
-2.11063e-07 0 -3.65444e-11
-2.1084e-07 0 -8.44378e-11
-2.10418e-07 0 -1.31286e-10
-2.09751e-07 0 -1.83184e-10
-2.08741e-07 0 -2.45802e-10
-2.0722e-07 0 -3.25413e-10
-2.04924e-07 0 -4.25269e-10
-2.01493e-07 0 -5.33447e-10
-1.9658e-07 0 -6.15553e-10
-1.90009e-07 0 -6.33744e-10
-1.8181e-07 0 -5.76999e-10
-1.72102e-07 0 -4.66202e-10
-1.61008e-07 0 -3.35602e-10
-1.4866e-07 0 -2.15428e-10
-1.35257e-07 0 -1.24825e-10
-1.21092e-07 0 -6.98243e-11
-1.06569e-07 0 -4.27584e-11
-9.21896e-08 0 -2.66919e-11
-7.85188e-08 0 -4.87284e-12
-6.61135e-08 0 3.14919e-11
-5.54489e-08 0 8.08254e-11
-4.68893e-08 0 1.37037e-10
-4.07133e-08 0 2.45001e-10
-3.73457e-08 0 5.24815e-10
0.0042424 0 9.644e-06
0.0036 -2.1589e-07 2.67264e-09
0.00359982 -0.00127612 4.51381e-06
0.00682035 -0.00394455 -0.000197692
0.0138843 -0.00702743 -0.00166186
0.0247836 -0.0141909 -0.00506464
0.0461649 -0.0116223 -0.00482462
0.0492719 -0.00117834 -0.0015152
0.0488355 0.00307343 6.02286e-05
0.0436252 0.00529059 0.000765188
0.0379408 0.00535164 0.000607427
0.0328845 0.00449937 0.000157224
0.0286919 0.00337927 -0.000224804
0.0254142 0.00232455 -0.000388494
0.0230107 0.00150677 -0.000356374
0.0213404 0.000956903 -0.000238967
0.0202197 0.000612735 -0.000127508
0.0194865 0.000396525 -5.52057e-05
0.0190179 0.000256082 -1.80384e-05
0.0187253 0.000163157 -2.35198e-06
0.0185467 0.000102081 2.75407e-06
0.0184397 6.28604e-05 3.51747e-06
0.0183764 3.85056e-05 2.89364e-06
0.0183386 2.40805e-05 2.07258e-06
0.0183146 1.62146e-05 1.43805e-06
0.0182972 1.2725e-05 1.05802e-06
0.0182814 1.23043e-05 9.03273e-07
0.0182637 1.42836e-05 9.33033e-07
0.0182411 1.8469e-05 1.12347e-06
0.0182104 2.5045e-05 1.47504e-06
0.018168 3.45276e-05 2.0136e-06
0.0181091 4.77537e-05 2.79171e-06
0.0180275 6.59062e-05 3.90237e-06
0.0179151 9.05751e-05 5.5326e-06
0.0177611 0.000123627 8.00835e-06
0.0175525 0.000166229 1.15956e-05
0.017275 0.000216947 1.60217e-05
0.0169183 0.0002706 2.0317e-05
0.0164811 0.000319454 2.33296e-05
0.0159739 0.000355884 2.43571e-05
0.0154172 0.000374739 2.33808e-05
0.0148375 0.000374486 2.0933e-05
0.0142627 0.000357019 1.78358e-05
0.0137175 0.000326403 1.48933e-05
0.0132204 0.000287121 1.25664e-05
0.0127841 0.000242696 1.08401e-05
0.0124167 0.000195264 9.37105e-06
0.0121233 0.000145838 7.71822e-06
0.0119071 9.48378e-05 5.57909e-06
0.0117697 4.47193e-05 4.70424e-06
0.01171 8.79368e-06 1.38541e-05
0.0117099 -2.87352e-06 2.26664e-05
0.01 -1.17942e-07 -1.36719e-06
0.0100009 -0.003049 -0.000491104
0.0149591 -0.0100694 -0.000916699
0.0240564 -0.0180916 -0.00219788
0.0375833 -0.0310013 -0.00396024
0.0574119 -0.022371 -0.0010471
0.0551554 -0.00180628 0.00241894
0.0550244 0.00570239 0.00264713
0.0494411 0.0106111 0.0024312
0.0439919 0.01061 0.00157068
0.0394429 0.0093971 0.000535461
0.0355301 0.00778448 -0.000232606
0.0323309 0.00600351 -0.000580308
0.029973 0.0043109 -0.000570646
0.0283502 0.00292739 -0.000394167
0.0272782 0.00191612 -0.000214791
0.0265914 0.00122265 -9.53146e-05
0.0261645 0.000763816 -3.26123e-05
0.0259073 0.000467849 -5.44639e-06
0.0257573 0.000281465 3.84691e-06
0.0256721 0.000167107 5.57511e-06
0.0256243 9.91398e-05 4.7105e-06
0.0255967 6.06096e-05 3.30941e-06
0.0255786 4.0694e-05 2.0703e-06
0.0255633 3.2787e-05 1.13861e-06
0.0255465 3.31399e-05 4.70368e-07
0.0255246 3.99526e-05 -2.15884e-08
0.0254944 5.28072e-05 -4.16576e-07
0.0254521 7.23508e-05 -7.71184e-07
0.0253928 0.000100153 -1.1134e-06
0.0253102 0.000138656 -1.43733e-06
0.0251958 0.000191143 -1.68702e-06
0.0250382 0.000261726 -1.63973e-06
0.0248233 0.000355175 -6.47042e-07
0.0245326 0.000475104 2.19411e-06
0.0241448 0.000619264 6.87612e-06
0.0236412 0.000775624 1.17254e-05
0.0230162 0.000924337 1.44893e-05
0.0222817 0.00104416 1.38499e-05
0.0214657 0.00111869 9.87892e-06
0.0206068 0.00114007 3.70965e-06
0.0197473 0.00110958 -2.90855e-06
0.018926 0.00103561 -8.17599e-06
0.0181725 0.000929611 -1.10384e-05
0.0175074 0.000802059 -1.15691e-05
0.0169435 0.000660581 -1.06174e-05
0.0164891 0.000510212 -9.22542e-06
0.0161492 0.000354527 -8.3077e-06
0.015926 0.000197458 -6.375e-06
0.0158203 5.63926e-05 1.04605e-05
0.01582 -6.38341e-06 2.56003e-05
0.0148 -9.84176e-07 -1.68523e-06
0.0148024 -0.00529399 -0.00104532
0.0200885 -0.0161809 -0.00247175
0.0265476 -0.0278346 -0.00439397
0.0309654 -0.0439621 -0.00542296
0.0294767 -0.0270337 -0.000937372
0.0263019 -1.16979e-05 0.00275882
0.0261544 0.00736337 0.00277793
0.0303887 0.0152445 0.00266978
0.0307929 0.0149323 0.00175102
0.0297232 0.0131367 0.000737531
0.028611 0.010964 -4.71894e-05
0.0278014 0.00837952 -0.000406646
0.0274851 0.0058611 -0.000430491
0.0274447 0.00387188 -0.000292244
0.0274948 0.00247579 -0.000143426
0.0275545 0.00154818 -4.47842e-05
0.0276049 0.000947634 3.30229e-06
0.0276463 0.000566976 1.94602e-05
0.0276805 0.000331865 2.04349e-05
0.0277076 0.00019132 1.61502e-05
0.0277275 0.000110893 1.11561e-05
0.0277401 6.80454e-05 7.02734e-06
0.0277454 4.86703e-05 4.01911e-06
0.0277434 4.44598e-05 1.92519e-06
0.0277339 5.10192e-05 4.46092e-07
0.0277158 6.66167e-05 -6.8258e-07
0.0276872 9.14286e-05 -1.66074e-06
0.0276453 0.000127146 -2.62524e-06
0.0275855 0.000176827 -3.64741e-06
0.0275016 0.000244881 -4.71779e-06
0.0273851 0.000336981 -5.75321e-06
0.0272239 0.000459926 -6.49797e-06
0.0270027 0.00062183 -5.85779e-06
0.0267007 0.000830562 -1.50815e-06
0.0262889 0.00108548 7.72672e-06
0.0257372 0.00136749 1.90251e-05
0.0250327 0.00164097 2.75056e-05
0.024188 0.00186602 2.99571e-05
0.0232392 0.00201087 2.57963e-05
0.0222369 0.00205916 1.64585e-05
0.0212368 0.00201165 4.93895e-06
0.0202878 0.00188302 -5.15794e-06
0.0194251 0.00169446 -1.14962e-05
0.0186698 0.00146577 -1.39678e-05
0.0180339 0.00121136 -1.39535e-05
0.0175245 0.000940619 -1.30995e-05
0.0171459 0.000660029 -1.27221e-05
0.0168996 0.000376593 -1.17313e-05
0.0167848 0.000113348 6.01397e-06
0.0167844 -8.51873e-06 2.26983e-05
0.018 -2.01244e-06 -1.76716e-06
0.0180027 -0.00671838 -0.00187492
0.0204204 -0.0180039 -0.00494414
0.0202125 -0.0235721 -0.00650698
0.0158703 -0.0257569 -0.00727705
-1.43894e-06 -0.0134797 -0.00384046
9.80931e-05 2.7323e-05 8.08333e-07
-3.37692e-05 3.55334e-05 0.000520014
0.00705864 0.00470877 0.00109597
0.0147279 0.0107599 0.000992496
0.0181664 0.0116363 0.000561622
0.0197933 0.010058 4.88001e-05
0.0214942 0.00752152 -0.000274976
0.023274 0.00496563 -0.000324375
0.0248368 0.00308882 -0.000223687
0.0260308 0.00187844 -9.89681e-05
0.0268566 0.00112795 -1.14027e-05
0.0273956 0.000663203 2.97345e-05
0.0277388 0.000377435 3.91605e-05
0.027955 0.00020696 3.38302e-05
0.0280897 0.000110595 2.45159e-05
0.028172 6.07108e-05 1.60061e-05
0.0282204 3.93518e-05 9.63466e-06
0.0282464 3.56418e-05 5.27577e-06
0.0282569 4.36859e-05 2.38726e-06
0.028256 6.09868e-05 4.30113e-07
0.0282453 8.74042e-05 -1.01129e-06
0.0282246 0.000124574 -2.22159e-06
0.0281924 0.000175674 -3.37466e-06
0.0281454 0.000245434 -4.53468e-06
0.0280785 0.000340313 -5.60077e-06
0.0279841 0.000468565 -6.31316e-06
0.0278505 0.00063986 -6.37718e-06
0.0276614 0.000865979 -4.32058e-06
0.027394 0.00116183 4.99443e-06
0.0270097 0.00153413 2.67789e-05
0.0264573 0.00195899 5.70779e-05
0.0257087 0.00238009 8.46212e-05
0.0247771 0.00273132 0.000100532
0.0237112 0.00295972 0.000101289
0.0225805 0.00303819 8.81436e-05
0.02146 0.00296805 6.6964e-05
0.0204113 0.00277386 4.56405e-05
0.0194729 0.00249078 2.93821e-05
0.0186631 0.00215059 1.87756e-05
0.0179892 0.00177519 1.16264e-05
0.0174548 0.00137818 5.45124e-06
0.0170615 0.000968611 -1.51463e-06
0.0168088 0.000556062 -8.14211e-06
0.016694 0.000171094 2.85188e-06
0.0166935 -8.28989e-06 1.66216e-05
0.0196 -2.71107e-06 -2.70125e-06
0.0196008 -0.00546136 -0.00272291
0.0191069 -0.0122819 -0.00645808
0.0161467 -0.0149996 -0.00686088
0.0112416 -0.0138037 -0.0066995
0.00206567 -0.00562734 -0.00464268
7.31008e-05 -6.69718e-05 -0.00106628
3.32026e-05 -3.32026e-05 -4.33098e-08
-3.2896e-05 3.46424e-05 0.000168643
0.0046466 0.0035269 0.000347586
0.0106655 0.00802564 0.000280531
0.0134866 0.00778606 -7.05639e-06
0.0167301 0.00514048 -0.000300021
0.0199635 0.00273564 -0.000371798
0.0227386 0.0012521 -0.000298762
0.0248311 0.00051367 -0.000167309
0.0262405 0.000188845 -5.19975e-05
0.0271216 4.7504e-05 1.2637e-05
0.0276522 -1.48119e-05 3.38284e-05
0.0279663 -3.77453e-05 3.23998e-05
0.0281502 -3.87949e-05 2.38154e-05
0.028256 -2.7924e-05 1.5277e-05
0.0283155 -1.08419e-05 8.89206e-06
0.0283473 9.91677e-06 4.64454e-06
0.0283624 3.40875e-05 1.93959e-06
0.0283669 6.29638e-05 1.88714e-07
0.0283638 9.90073e-05 -1.03804e-06
0.0283542 0.000145762 -2.00659e-06
0.0283378 0.000207998 -2.84367e-06
0.0283126 0.000292022 -3.53877e-06
0.028275 0.000406192 -3.80474e-06
0.028219 0.000561483 -2.90651e-06
0.0281338 0.000770927 -2.35712e-07
0.0280014 0.00104978 5.65006e-06
0.0277968 0.0014217 2.45106e-05
0.0274715 0.00190967 7.30882e-05
0.0269389 0.00249166 0.000150167
0.0261422 0.00308436 0.000230259
0.0250963 0.00358319 0.000287114
0.0238732 0.00390623 0.000306661
0.0225758 0.00401421 0.000289157
0.0213084 0.00391193 0.000248225
0.020148 0.00363963 0.000201818
0.0191329 0.00325199 0.000161282
0.0182733 0.00279538 0.000128416
0.0175687 0.00229909 9.99728e-05
0.0170173 0.00177988 7.25044e-05
0.0166168 0.00124858 4.38932e-05
0.0163638 0.000716823 1.54847e-05
0.016252 0.00022322 5.64747e-06
0.0162515 -6.14863e-06 9.4427e-06
0.0196 -1.31287e-06 -3.64279e-06
0.0196 -0.00338394 -0.00307189
0.0189747 -0.00722089 -0.00651
0.0176995 -0.00693108 -0.00636437
0.0137141 -0.00318285 -0.00572352
0.00977396 0.00320909 -0.00481313
0.006376 0.00329913 -0.00248476
7.31782e-05 -6.07654e-05 -0.000472697
2.78694e-05 -2.78694e-05 -1.3308e-07
-3.19589e-05 3.38331e-05 5.02858e-05
0.00351305 0.00276036 0.000336863
0.00815291 0.00408363 0.000362827
0.013529 0.0012721 -1.70996e-05
0.0182614 -0.000787232 -0.000285523
0.0219892 -0.00157632 -0.00038001
0.0246374 -0.00150812 -0.000303012
0.0263047 -0.00112215 -0.000160578
0.0272569 -0.000750443 -5.29106e-05
0.0277718 -0.000484073 -2.14032e-06
0.0280437 -0.000308018 1.23218e-05
0.0281853 -0.000191588 1.20252e-05
0.0282582 -0.000112448 8.17037e-06
0.0282952 -5.62434e-05 4.6727e-06
0.0283138 -1.32848e-05 2.29788e-06
0.0283232 2.35217e-05 8.52584e-07
0.0283285 5.98488e-05 4.22524e-09
0.028332 0.000100769 -4.89699e-07
0.0283351 0.000151457 -7.38368e-07
0.0283381 0.000217857 -7.07883e-07
0.0283405 0.000307364 -2.04932e-07
0.0283406 0.000429629 1.34977e-06
0.0283347 0.000597865 5.58435e-06
0.0283145 0.000828971 1.43989e-05
0.0282606 0.0011415 2.88998e-05
0.0281435 0.00156588 6.4525e-05
0.0279074 0.00214868 0.000164048
0.0274162 0.00288201 0.000343955
0.0265578 0.00365188 0.000551098
0.0253517 0.00430056 0.000710402
0.0239121 0.00471101 0.000777761
0.0223989 0.00483507 0.000753941
0.0209571 0.00468634 0.000672507
0.0196761 0.00432709 0.000572331
0.0185866 0.00383601 0.000476798
0.0176837 0.00327449 0.000391065
0.0169558 0.00267691 0.00031127
0.0163944 0.00206082 0.000233217
0.0159931 0.00143747 0.000154687
0.015745 0.000820174 7.74304e-05
0.0156391 0.000254718 2.17942e-05
0.0156385 -5.69724e-06 3.86181e-06
0.018 -8.36773e-07 -3.58236e-06
0.018001 -0.00173955 -0.003005
0.0184465 -0.00310354 -0.00617242
0.0187163 -0.00158252 -0.00560254
0.0179935 0.00160931 -0.0045571
0.017892 0.00756451 -0.0037911
0.0185164 0.0126777 -0.00241962
0.0114243 0.00694024 -0.00109452
7.49063e-05 -4.66245e-05 -0.000340187
-2.48889e-05 -5.42202e-05 5.70625e-07
7.91282e-06 -0.000268353 0.000804637
0.00920234 -0.0023503 0.00129178
0.0169816 -0.00485794 0.000729902
0.0218966 -0.0054508 0.000238012
0.0247553 -0.00481518 -0.000158147
0.0263886 -0.00356961 -0.000310031
0.0272627 -0.00230726 -0.000252641
0.0276729 -0.00137532 -0.000141633
0.0278347 -0.00079529 -6.33642e-05
0.0278825 -0.000456773 -2.46063e-05
0.027886 -0.000259765 -8.81215e-06
0.0278765 -0.000142246 -3.07184e-06
0.0278664 -6.89021e-05 -1.07712e-06
0.0278602 -1.93111e-05 -3.21641e-07
0.0278593 1.89555e-05 8.75537e-08
0.0278639 5.4095e-05 4.66532e-07
0.0278747 9.22764e-05 9.69692e-07
0.0278922 0.000139067 1.76359e-06
0.0279178 0.00020051 3.14158e-06
0.0279527 0.000284076 5.62446e-06
0.0279978 0.000399584 1.02359e-05
0.028053 0.000560768 1.97535e-05
0.0281148 0.000787351 3.88417e-05
0.0281659 0.0011022 6.96872e-05
0.0281714 0.0015377 0.00013328
0.0280732 0.00215763 0.000316473
0.0276807 0.00297236 0.000679519
0.0267802 0.00384255 0.00111658
0.0254061 0.00456532 0.00145387
0.0237265 0.00500205 0.001597
0.0219867 0.00510539 0.00155443
0.0203779 0.00490264 0.00139981
0.0189921 0.00447766 0.00120709
0.0178426 0.00392814 0.00101735
0.0169062 0.00332289 0.000840368
0.0161604 0.00269421 0.000671672
0.015591 0.00205621 0.000506427
0.0151883 0.00141853 0.000342654
0.0149428 0.000795709 0.000183244
0.0148403 0.000237769 5.27467e-05
0.0148398 -1.49214e-05 4.27173e-08
0.0148 -4.83412e-07 -3.134e-06
0.0148016 -0.000822158 -0.00278569
0.0164126 -0.00100937 -0.00549367
0.0183712 0.000877011 -0.00465981
0.0202019 0.00396971 -0.00350356
0.0222628 0.00761865 -0.00293465
0.0259533 0.0128019 -0.00215491
0.0291144 0.0197356 -0.00120268
0.023777 0.0116474 -0.000170353
0.0241654 2.23072e-10 0.000632704
0.0275466 -0.00685687 0.00151159
0.0318586 -0.0135492 0.00219924
0.033151 -0.0117176 0.00197028
0.0322343 -0.00852604 0.00136682
0.0304213 -0.00581875 0.000456523
0.0287049 -0.00372953 -0.000196167
0.0274811 -0.00220299 -0.000364643
0.026718 -0.00121566 -0.000271905
0.0262664 -0.000648838 -0.000148903
0.0260038 -0.0003436 -7.01475e-05
0.0258527 -0.000180889 -3.05468e-05
0.0257673 -9.17891e-05 -1.26412e-05
0.0257214 -3.99491e-05 -4.85899e-06
0.0257001 -6.33989e-06 -1.41125e-06
0.0256957 1.9446e-05 3.12787e-07
0.0257044 4.36963e-05 1.47045e-06
0.0257252 7.09375e-05 2.63702e-06
0.0257593 0.000105282 4.22953e-06
0.0258092 0.000151358 6.76856e-06
0.0258788 0.000215187 1.11232e-05
0.0259729 0.000305077 1.88809e-05
0.0260966 0.000432664 3.37574e-05
0.0262538 0.000615966 6.3292e-05
0.026436 0.000880956 0.000114263
0.026612 0.00125781 0.00021477
0.0267357 0.0017963 0.000498478
0.0265832 0.0024952 0.00106914
0.025767 0.00320228 0.00171798
0.0243907 0.00376235 0.00218055
0.0226285 0.00409012 0.0023633
0.0208052 0.00413523 0.00228267
0.019135 0.00392555 0.00205177
0.0177147 0.00354312 0.00177519
0.0165454 0.00307715 0.00150654
0.0155942 0.00258136 0.00125294
0.0148361 0.00207507 0.00100566
0.0142555 0.00156553 0.000759354
0.0138412 0.00105978 0.000513644
0.0135836 0.000572034 0.000274482
0.0134715 0.000148147 7.23586e-05
0.0134711 -3.88726e-05 -1.31414e-05
0.01 -9.37385e-07 -2.80156e-06
0.0100008 -0.0005108 -0.00230126
0.0115961 -0.000368553 -0.00428315
0.0140236 0.000996271 -0.00327864
0.0170978 0.00287442 -0.00221468
0.0214119 0.00572454 -0.00199417
0.0272446 0.00831135 -0.00225784
0.0361007 0.0102228 -0.00190208
0.0479838 0.00506471 -0.000356042
0.0477072 -0.00419188 0.00109091
0.0472068 -0.00892727 0.00160233
0.0397686 -0.00931262 0.00174469
0.0325468 -0.00633814 0.00166154
0.0271218 -0.00333934 0.0012449
0.0234491 -0.00134817 0.000518741