# vtk DataFile Version 2.0
Tobias Weinzierl: CPU, Manycore and Cluster Computing
ASCII

DATASET STRUCTURED_POINTS
DIMENSIONS  51 11 6

ORIGIN 0 0 0 

SPACING 0.1 0.1 0.1 

POINT_DATA 3366

VECTORS velocity float
0 0 0
-1.73324e-10 0 0
-3.59083e-07 0 0
-5.20459e-07 0 0
-4.45555e-07 0 0
-1.24491e-07 0 0
-9.91852e-08 0 0
-1.99335e-07 0 0
-3.18459e-07 0 0
-3.97531e-07 0 0
-4.16721e-07 0 0
-4.08701e-07 0 0
-3.98237e-07 0 0
-3.92752e-07 0 0
-3.92372e-07 0 0
-3.95116e-07 0 0
-3.98962e-07 0 0
-4.02664e-07 0 0
-4.05699e-07 0 0
-4.07965e-07 0 0
-4.09543e-07 0 0
-4.10562e-07 0 0
-4.11134e-07 0 0
-4.11335e-07 0 0
-4.112e-07 0 0
-4.10721e-07 0 0
-4.0985e-07 0 0
-4.08494e-07 0 0
-4.06513e-07 0 0
-4.0371e-07 0 0
-3.99829e-07 0 0
-3.94553e-07 0 0
-3.87535e-07 0 0
-3.78435e-07 0 0
-3.66981e-07 0 0
-3.52998e-07 0 0
-3.36428e-07 0 0
-3.17357e-07 0 0
-2.96077e-07 0 0
-2.73116e-07 0 0
-2.49218e-07 0 0
-2.25248e-07 0 0
-2.02082e-07 0 0
-1.80499e-07 0 0
-1.61121e-07 0 0
-1.44384e-07 0 0
-1.30557e-07 0 0
-1.19785e-07 0 0
-1.12171e-07 0 0
-1.08079e-07 0 0
0.00184857 0 0
0 5.06517e-07 0
-2.43677e-10 2.15161e-07 0
-7.07828e-07 3.22264e-07 0
-1.02264e-06 1.62671e-07 0
-8.09364e-07 4.47225e-08 0
-2.35696e-07 7.36389e-08 0
-1.42228e-07 1.94906e-07 0
-2.57943e-07 1.95429e-07 0
-3.88176e-07 1.42299e-07 0
-5.23309e-07 7.77894e-08 0
-5.72023e-07 2.33401e-08 0
-5.85514e-07 2.27743e-09 0
-6.01353e-07 -2.75081e-10 0
-6.22341e-07 2.36463e-09 0
-6.45213e-07 5.29182e-09 0
-6.667e-07 6.76792e-09 0
-6.84584e-07 6.68864e-09 0
-6.98207e-07 5.69839e-09 0
-7.0795e-07 4.40406e-09 0
-7.14591e-07 3.15151e-09 0
-7.18923e-07 2.07436e-09 0
-7.21583e-07 1.18483e-09 0
-7.23021e-07 4.38714e-10 0
-7.23516e-07 -2.29481e-10 0
-7.23201e-07 -8.91678e-10 0
-7.22091e-07 -1.62275e-09 0
-7.20099e-07 -2.50266e-09 0
-7.17035e-07 -3.62068e-09 0
-7.12607e-07 -5.07882e-09 0
-7.06407e-07 -6.99109e-09 0
-6.97905e-07 -9.47303e-09 0
-6.86456e-07 -1.26155e-08 0
-6.71349e-07 -1.64437e-08 0
-6.5192e-07 -2.08824e-08 0
-6.27687e-07 -2.57592e-08 0
-5.98437e-07 -3.08395e-08 0
-5.64214e-07 -3.58399e-08 0
-5.25344e-07 -4.04088e-08 0
-4.82527e-07 -4.41345e-08 0
-4.36896e-07 -4.66137e-08 0
-3.89951e-07 -4.75519e-08 0
-3.43368e-07 -4.68359e-08 0
-2.98765e-07 -4.4542e-08 0
-2.57548e-07 -4.08933e-08 0
-2.20807e-07 -3.61957e-08 0
-1.89279e-07 -3.07672e-08 0
-1.63385e-07 -2.48792e-08 0
-1.4332e-07 -1.87067e-08 0
-1.29185e-07 -1.21662e-08 0
-1.21464e-07 -4.96645e-09 0
0.00455447 -3.71856e-06 0
0 6.94526e-08 0
1.13542e-11 2.76247e-07 0
-6.036e-07 3.52137e-07 0
-8.75717e-07 1.01685e-07 0
-4.782e-07 5.65992e-08 0
-1.79008e-07 1.11391e-07 0
-2.53895e-07 1.58914e-07 0
-3.66473e-07 5.23799e-08 0
-3.27967e-07 -3.98763e-09 0
-3.32939e-07 6.08079e-08 0
-3.37296e-07 9.71133e-08 0
-3.44435e-07 1.22959e-07 0
-3.74909e-07 1.18652e-07 0
-4.10207e-07 9.43512e-08 0
-4.44269e-07 6.93881e-08 0
-4.73737e-07 4.95311e-08 0
-4.96636e-07 3.45494e-08 0
-5.13027e-07 2.35301e-08 0
-5.24102e-07 1.56182e-08 0
-5.31273e-07 1.00423e-08 0
-5.3574e-07 6.13721e-09 0
-5.38375e-07 3.36074e-09 0
-5.39743e-07 1.2894e-09 0
-5.40176e-07 -4.02382e-10 0
-5.39833e-07 -1.96988e-09 0
-5.38739e-07 -3.62582e-09 0
-5.36818e-07 -5.56469e-09 0
-5.33895e-07 -7.9817e-09 0
-5.29698e-07 -1.10847e-08 0
-5.23844e-07 -1.50948e-08 0
-5.15822e-07 -2.02275e-08 0
-5.04981e-07 -2.66402e-08 0
-4.90559e-07 -3.43416e-08 0
-4.71799e-07 -4.31001e-08 0
-4.48176e-07 -5.24482e-08 0
-4.19552e-07 -6.18078e-08 0
-3.861e-07 -7.0586e-08 0
-3.48251e-07 -7.81556e-08 0
-3.06806e-07 -8.38524e-08 0
-2.63021e-07 -8.70857e-08 0
-2.18514e-07 -8.74999e-08 0
-1.74974e-07 -8.50687e-08 0
-1.33878e-07 -8.0046e-08 0
-9.64178e-08 -7.28619e-08 0
-6.34647e-08 -6.40442e-08 0
-3.55238e-08 -5.41225e-08 0
-1.27916e-08 -4.35303e-08 0
4.73595e-09 -3.25409e-08 0
1.71493e-08 -2.1162e-08 0
2.4202e-08 -9.12458e-09 0
0.00550455 -7.998e-06 0
0 -5.68587e-07 0
2.12259e-10 1.65564e-07 0
-4.99255e-07 8.04584e-08 0
-7.97009e-07 -2.4419e-07 0
-3.71582e-07 -1.45401e-07 0
-6.77883e-08 1.42153e-08 0
-2.1176e-07 2.61519e-10 0
-3.07879e-07 -2.61566e-07 0
-6.19003e-07 -4.51435e-07 0
-5.60106e-07 -2.26265e-07 0
-4.97072e-07 3.14775e-08 0
-4.53388e-07 1.74321e-07 0
-4.30298e-07 1.97249e-07 0
-4.13338e-07 1.56729e-07 0
-4.09089e-07 1.12331e-07 0
-4.13871e-07 7.7647e-08 0
-4.21196e-07 5.22299e-08 0
-4.27633e-07 3.42682e-08 0
-4.32291e-07 2.19524e-08 0
-4.35352e-07 1.36661e-08 0
-4.37242e-07 8.10225e-09 0
-4.38331e-07 4.27976e-09 0
-4.38856e-07 1.49302e-09 0
-4.38944e-07 -7.61086e-10 0
-4.38635e-07 -2.85285e-09 0
-4.379e-07 -5.07693e-09 0
-4.36656e-07 -7.6959e-09 0
-4.34757e-07 -1.09719e-08 0
-4.31982e-07 -1.51874e-08 0
-4.28014e-07 -2.06531e-08 0
-4.2239e-07 -2.76926e-08 0
-4.14449e-07 -3.65798e-08 0
-4.03271e-07 -4.73941e-08 0
-3.87758e-07 -5.98191e-08 0
-3.66992e-07 -7.30807e-08 0
-3.40635e-07 -8.6196e-08 0
-3.08812e-07 -9.8244e-08 0
-2.71894e-07 -1.08342e-07 0
-2.30736e-07 -1.15583e-07 0
-1.86863e-07 -1.19194e-07 0
-1.42324e-07 -1.18804e-07 0
-9.91551e-08 -1.14582e-07 0
-5.88793e-08 -1.07045e-07 0
-2.26269e-08 -9.68372e-08 0
8.83304e-09 -8.46833e-08 0
3.51727e-08 -7.12965e-08 0
5.6415e-08 -5.72408e-08 0
7.27749e-08 -4.2848e-08 0
8.45106e-08 -2.807e-08 0
9.13958e-08 -1.2542e-08 0
0.00554303 -1.1678e-05 0
0 -1.09011e-06 0
2.26291e-10 2.4367e-08 0
-5.15757e-07 -1.23891e-07 0
-8.76458e-07 -3.01348e-07 0
-6.12495e-07 -1.7797e-07 0
5.05773e-11 -2.47404e-08 0
-1.24379e-08 -1.05046e-08 0
1.02873e-08 -1.08126e-08 0
-3.60768e-07 -2.60669e-07 0
-6.39437e-07 -3.76019e-07 0
-5.83893e-07 -8.45711e-08 0
-5.79104e-07 1.19953e-07 0
-5.58072e-07 1.66021e-07 0
-5.07559e-07 1.3541e-07 0
-4.67098e-07 1.00878e-07 0
-4.44352e-07 7.20551e-08 0
-4.32932e-07 4.89835e-08 0
-4.272e-07 3.1937e-08 0
-4.24193e-07 2.01672e-08 0
-4.22552e-07 1.23304e-08 0
-4.21642e-07 7.12823e-09 0
-4.21138e-07 3.55426e-09 0
-4.20845e-07 8.96108e-10 0
-4.20635e-07 -1.34188e-09 0
-4.20406e-07 -3.52116e-09 0
-4.20071e-07 -5.93511e-09 0
-4.19535e-07 -8.85784e-09 0
-4.18677e-07 -1.25798e-08 0
-4.17329e-07 -1.7434e-08 0
-4.15232e-07 -2.38124e-08 0
-4.11976e-07 -3.21658e-08 0
-4.06888e-07 -4.29553e-08 0
-3.98843e-07 -5.64712e-08 0
-3.86173e-07 -7.24506e-08 0
-3.67158e-07 -8.97825e-08 0
-3.41032e-07 -1.06877e-07 0
-3.07963e-07 -1.22338e-07 0
-2.68339e-07 -1.35e-07 0
-2.23204e-07 -1.43691e-07 0
-1.7462e-07 -1.47414e-07 0
-1.25539e-07 -1.45814e-07 0
-7.87409e-08 -1.3945e-07 0
-3.58079e-08 -1.29276e-07 0
2.19449e-09 -1.16157e-07 0
3.45727e-08 -1.00989e-07 0
6.12092e-08 -8.46557e-08 0
8.23997e-08 -6.78181e-08 0
9.86019e-08 -5.08169e-08 0
1.10247e-07 -3.34961e-08 0
1.17165e-07 -1.52611e-08 0
0.00539496 -1.44069e-05 0
0 -9.69521e-07 0
2.2159e-10 -5.46472e-08 0
-5.23088e-07 -1.70298e-07 0
-9.10833e-07 -2.52657e-07 0
-7.64699e-07 -2.5181e-07 0
-2.40839e-07 -1.14751e-07 0
-1.12665e-08 1.17659e-08 0
-1.47899e-09 1.47899e-09 0
9.84788e-09 -1.07259e-08 0
-2.86508e-07 -1.5017e-07 0
-4.24756e-07 -1.01659e-07 0
-5.83889e-07 1.55373e-07 0
-6.60234e-07 1.75712e-07 0
-6.06567e-07 1.106e-07 0
-5.32872e-07 7.03542e-08 0
-4.82655e-07 4.67505e-08 0
-4.54039e-07 3.03766e-08 0
-4.38352e-07 1.91494e-08 0
-4.29735e-07 1.18266e-08 0
-4.24988e-07 7.11576e-09 0
-4.22405e-07 3.97643e-09 0
-4.21053e-07 1.69803e-09 0
-4.20409e-07 -1.79708e-10 0
-4.20174e-07 -1.96754e-09 0
-4.20177e-07 -3.90444e-09 0
-4.20312e-07 -6.21038e-09 0
-4.20505e-07 -9.123e-09 0
-4.20688e-07 -1.29261e-08 0
-4.20765e-07 -1.79749e-08 0
-4.20572e-07 -2.47187e-08 0
-4.19806e-07 -3.37209e-08 0
-4.17881e-07 -4.5657e-08 0
-4.13585e-07 -6.11713e-08 0
-4.04586e-07 -8.03195e-08 0
-3.87776e-07 -1.01762e-07 0
-3.61418e-07 -1.23044e-07 0
-3.2591e-07 -1.42039e-07 0
-2.81836e-07 -1.57298e-07 0
-2.30535e-07 -1.67427e-07 0
-1.7465e-07 -1.71051e-07 0
-1.18709e-07 -1.6774e-07 0
-6.67993e-08 -1.588e-07 0
-2.02619e-08 -1.45918e-07 0
2.00602e-08 -1.30117e-07 0
5.36039e-08 -1.12383e-07 0
8.05772e-08 -9.37421e-08 0
1.01656e-07 -7.49049e-08 0
1.17604e-07 -5.61596e-08 0
1.29048e-07 -3.71866e-08 0
1.35874e-07 -1.70966e-08 0
0.00518446 -1.59934e-05 0
0 -6.89994e-07 0
2.13882e-10 -1.02497e-07 0
-4.9486e-07 -2.22383e-07 0
-8.9551e-07 -1.92864e-07 0
-8.02831e-07 -1.38734e-07 0
-5.28523e-07 -1.79052e-07 0
-2.23804e-07 -1.13367e-07 0
-1.1651e-08 1.18805e-08 0
-2.03275e-09 2.03275e-09 0
9.20713e-09 -1.04876e-08 0
-1.55957e-07 1.70412e-07 0
-5.35876e-07 3.5658e-07 0
-7.93495e-07 2.48084e-07 0
-7.33426e-07 7.49847e-08 0
-5.9522e-07 1.50736e-08 0
-5.06107e-07 3.70639e-09 0
-4.62331e-07 1.79765e-09 0
-4.41878e-07 1.34272e-09 0
-4.32136e-07 1.17824e-09 0
-4.27395e-07 9.6043e-10 0
-4.25101e-07 5.34502e-10 0
-4.2407e-07 -1.40579e-10 0
-4.23741e-07 -1.07031e-09 0
-4.23845e-07 -2.27802e-09 0
-4.2426e-07 -3.82907e-09 0
-4.24941e-07 -5.8412e-09 0
-4.25882e-07 -8.49338e-09 0
-4.27095e-07 -1.2039e-08 0
-4.28588e-07 -1.68257e-08 0
-4.30328e-07 -2.33215e-08 0
-4.32174e-07 -3.21479e-08 0
-4.33741e-07 -4.41288e-08 0
-4.33958e-07 -6.02861e-08 0
-4.29999e-07 -8.13159e-08 0
-4.1675e-07 -1.06126e-07 0
-3.90354e-07 -1.31444e-07 0
-3.51591e-07 -1.54225e-07 0
-3.01605e-07 -1.72713e-07 0
-2.42176e-07 -1.85226e-07 0
-1.76159e-07 -1.89364e-07 0
-1.10874e-07 -1.84114e-07 0
-5.29827e-08 -1.72244e-07 0
-2.66312e-09 -1.56745e-07 0
3.97659e-08 -1.3863e-07 0
7.39856e-08 -1.18877e-07 0
1.00715e-07 -9.86304e-08 0
1.21139e-07 -7.85982e-08 0
1.36387e-07 -5.89505e-08 0
1.47301e-07 -3.91535e-08 0
1.53835e-07 -1.80424e-08 0
0.0049377 -1.65481e-05 0
0 -5.00515e-07 0
1.44038e-10 -1.38366e-07 0
-4.83101e-07 -2.50837e-07 0
-8.48519e-07 -1.67364e-07 0
-7.83557e-07 -8.39131e-08 0
-5.7908e-07 -9.387e-08 0
-4.6774e-07 -2.43251e-07 0
-3.07953e-07 -1.78377e-07 0
-1.31462e-08 1.06143e-08 0
8.55795e-09 1.1372e-08 0
-9.61249e-10 3.51712e-07 0
-3.63313e-07 6.75195e-07 0
-7.35354e-07 3.71339e-07 0
-7.52467e-07 6.30231e-09 0
-6.11569e-07 -7.1932e-08 0
-5.12098e-07 -4.71081e-08 0
-4.68003e-07 -2.38109e-08 0
-4.51723e-07 -1.15269e-08 0
-4.46265e-07 -5.32534e-09 0
-4.44621e-07 -2.28968e-09 0
-4.44279e-07 -1.02834e-09 0
-4.44418e-07 -7.94752e-10 0
-4.44807e-07 -1.18397e-09 0
-4.45415e-07 -2.00645e-09 0
-4.46279e-07 -3.2145e-09 0
-4.47462e-07 -4.85983e-09 0
-4.49052e-07 -7.07558e-09 0
-4.51153e-07 -1.00772e-08 0
-4.53881e-07 -1.41786e-08 0
-4.57347e-07 -1.98205e-08 0
-4.61593e-07 -2.7608e-08 0
-4.66479e-07 -3.83634e-08 0
-4.71256e-07 -5.32341e-08 0
-4.73008e-07 -7.35315e-08 0
-4.64464e-07 -9.91604e-08 0
-4.38093e-07 -1.2715e-07 0
-3.95026e-07 -1.5448e-07 0
-3.37276e-07 -1.79177e-07 0
-2.65678e-07 -1.9796e-07 0
-1.8375e-07 -2.05124e-07 0
-1.04949e-07 -1.98347e-07 0
-3.97353e-08 -1.83275e-07 0
1.43999e-08 -1.65004e-07 0
5.83726e-08 -1.44521e-07 0
9.24065e-08 -1.22837e-07 0
1.17986e-07 -1.01217e-07 0
1.36934e-07 -8.0311e-08 0
1.50786e-07 -6.01208e-08 0
1.6062e-07 -3.98997e-08 0
1.66526e-07 -1.83604e-08 0
0.00467296 -1.66654e-05 0
0 -4.66494e-07 0
4.29403e-11 -1.49508e-07 0
-5.02437e-07 -2.5601e-07 0
-8.21228e-07 -1.45631e-07 0
-7.95378e-07 -5.70693e-08 0
-6.50667e-07 -5.15309e-08 0
-5.18268e-07 -1.2756e-07 0
-5.5514e-07 -3.50263e-07 0
-4.54998e-07 -2.56334e-07 0
-6.2602e-07 -3.15162e-11 0
-6.51488e-07 3.45307e-07 0
-4.16861e-07 7.30787e-07 0
-3.87192e-07 4.5013e-07 0
-5.111e-07 -2.2587e-09 0
-5.46005e-07 -1.17478e-07 0
-5.40904e-07 -7.31544e-08 0
-5.38889e-07 -3.10687e-08 0
-5.41197e-07 -1.12259e-08 0
-5.44058e-07 -3.41512e-09 0
-5.46149e-07 -6.59091e-10 0
-5.47477e-07 6.68251e-11 0
-5.4837e-07 -4.31986e-11 0
-5.49132e-07 -5.38739e-10 0
-5.49982e-07 -1.27382e-09 0
-5.51086e-07 -2.23749e-09 0
-5.52587e-07 -3.49179e-09 0
-5.54633e-07 -5.15459e-09 0
-5.574e-07 -7.40368e-09 0
-5.61094e-07 -1.04947e-08 0
-5.65952e-07 -1.47925e-08 0
-5.72193e-07 -2.08116e-08 0
-5.79903e-07 -2.9242e-08 0
-5.88618e-07 -4.09711e-08 0
-5.95608e-07 -5.72135e-08 0
-5.9216e-07 -7.89793e-08 0
-5.66334e-07 -1.0544e-07 0
-5.18873e-07 -1.35953e-07 0
-4.53241e-07 -1.69613e-07 0
-3.62026e-07 -1.99718e-07 0
-2.47508e-07 -2.12731e-07 0
-1.44088e-07 -2.04564e-07 0
-6.63086e-08 -1.86537e-07 0
-4.87356e-09 -1.66225e-07 0
4.2778e-08 -1.44272e-07 0
7.80063e-08 -1.21688e-07 0
1.03366e-07 -9.96388e-08 0
1.21391e-07 -7.86017e-08 0
1.34061e-07 -5.8464e-08 0
1.4274e-07 -3.84874e-08 0
1.47765e-07 -1.77387e-08 0
0.00435243 -1.69191e-05 0
0 -5.15418e-07 0
-5.47947e-11 -1.00539e-07 0
-5.25485e-07 -1.6911e-07 0
-8.12127e-07 -9.54055e-08 0
-8.44002e-07 -4.86944e-08 0
-8.05095e-07 -7.11455e-08 0
-7.2436e-07 -1.20312e-07 0
-6.66719e-07 -1.13476e-07 0
-8.13386e-07 1.4208e-07 0
-8.41721e-07 2.83761e-07 0
-8.43632e-07 -2.91567e-08 0
-6.40903e-07 -2.60774e-07 0
-5.78683e-07 -1.52835e-07 0
-7.01196e-07 1.90149e-08 0
-7.57913e-07 8.08634e-08 0
-7.54449e-07 6.70691e-08 0
-7.43477e-07 3.87271e-08 0
-7.37219e-07 1.93083e-08 0
-7.34493e-07 9.18911e-09 0
-7.33407e-07 4.37459e-09 0
-7.33043e-07 2.06264e-09 0
-7.3308e-07 8.41002e-10 0
-7.33447e-07 6.69189e-11 0
-7.34171e-07 -5.55028e-10 0
-7.35322e-07 -1.17837e-09 0
-7.37012e-07 -1.90782e-09 0
-7.39398e-07 -2.84227e-09 0
-7.42698e-07 -4.09952e-09 0
-7.47203e-07 -5.8368e-09 0
-7.53289e-07 -8.27419e-09 0
-7.614e-07 -1.17248e-08 0
-7.71946e-07 -1.66137e-08 0
-7.84866e-07 -2.3401e-08 0
-7.98015e-07 -3.25515e-08 0
-8.03722e-07 -4.51282e-08 0
-7.8976e-07 -6.24163e-08 0
-7.53789e-07 -8.44716e-08 0
-6.9857e-07 -1.11657e-07 0
-6.03312e-07 -1.39541e-07 0
-4.56611e-07 -1.54927e-07 0
-3.12578e-07 -1.49109e-07 0
-2.12663e-07 -1.32627e-07 0
-1.37215e-07 -1.17425e-07 0
-7.86431e-08 -1.0279e-07 0
-3.55663e-08 -8.74983e-08 0
-4.83905e-09 -7.20328e-08 0
1.67288e-08 -5.68196e-08 0
3.15783e-08 -4.19438e-08 0
4.13242e-08 -2.72197e-08 0
4.64548e-08 -1.27553e-08 0
0.0035111 -1.49504e-05 0
0 0 0
-4.17278e-11 0 0
-2.63021e-07 0 0
-4.01754e-07 0 0
-4.38746e-07 0 0
-4.45859e-07 0 0
-4.49763e-07 0 0
-4.19662e-07 0 0
-3.59638e-07 0 0
-2.16365e-07 0 0
-1.93089e-07 0 0
-3.42031e-07 0 0
-4.94017e-07 0 0
-5.40865e-07 0 0
-5.11692e-07 0 0
-4.69558e-07 0 0
-4.41548e-07 0 0
-4.27169e-07 0 0
-4.20546e-07 0 0
-4.17626e-07 0 0
-4.16389e-07 0 0
-4.15949e-07 0 0
-4.15945e-07 0 0
-4.16247e-07 0 0
-4.16828e-07 0 0
-4.17718e-07 0 0
-4.18992e-07 0 0
-4.20769e-07 0 0
-4.23216e-07 0 0
-4.26562e-07 0 0
-4.311e-07 0 0
-4.37145e-07 0 0
-4.44814e-07 0 0
-4.53274e-07 0 0
-4.59416e-07 0 0
-4.58073e-07 0 0
-4.46795e-07 0 0
-4.26125e-07 0 0
-3.82499e-07 0 0
-3.04347e-07 0 0
-2.20278e-07 0 0
-1.63465e-07 0 0
-1.21417e-07 0 0
-8.8206e-08 0 0
-6.35086e-08 0 0
-4.57646e-08 0 0
-3.32325e-08 0 0
-2.45784e-08 0 0
-1.89481e-08 0 0
-1.61024e-08 0 0
0.00142781 0 0
0 0 5.10886e-07
-1.55256e-10 0 1.437e-07
-7.5944e-07 0 1.978e-07
-1.17285e-06 0 -7.64214e-08
-1.09833e-06 0 -4.40912e-07
-5.39456e-08 0 -4.20228e-07
1.46881e-07 0 -1.20279e-07
2.50116e-08 0 2.363e-08
-1.75418e-07 0 5.56841e-08
-3.44251e-07 0 2.02588e-08
-4.41792e-07 0 -1.23871e-08
-5.05943e-07 0 -2.09827e-08
-5.57718e-07 0 -1.59e-08
-5.99731e-07 0 -8.46095e-09
-6.33559e-07 0 -3.16277e-09
-6.6064e-07 0 -4.15374e-10
-6.81553e-07 0 6.19446e-10
-6.9696e-07 0 7.96727e-10
-7.07834e-07 0 6.54094e-10
-7.15229e-07 0 4.50103e-10
-7.20076e-07 0 2.79955e-10
-7.23094e-07 0 1.63472e-10
-7.24784e-07 0 9.32848e-11
-7.25456e-07 0 5.62777e-11
-7.25267e-07 0 4.11767e-11
-7.24247e-07 0 4.01515e-11
-7.22318e-07 0 4.82706e-11
-7.19292e-07 0 6.24133e-11
-7.14874e-07 0 8.02167e-11
-7.08645e-07 0 9.93402e-11
-7.00061e-07 0 1.17429e-10
-6.88466e-07 0 1.3314e-10
-6.7315e-07 0 1.47342e-10
-6.53463e-07 0 1.60829e-10
-6.28951e-07 0 1.6606e-10
-5.99435e-07 0 1.41936e-10
-5.65016e-07 0 6.60131e-11
-5.2609e-07 0 -6.32016e-11
-4.83413e-07 0 -2.16174e-10
-4.38132e-07 0 -3.44077e-10
-3.91703e-07 0 -4.03407e-10
-3.45721e-07 0 -3.7631e-10
-3.01716e-07 0 -2.73487e-10
-2.61027e-07 0 -1.24401e-10
-2.24707e-07 0 3.37055e-11
-1.93493e-07 0 1.66673e-10
-1.67824e-07 0 2.52773e-10
-1.47922e-07 0 3.00713e-10
-1.33906e-07 0 4.46702e-10
-1.26282e-07 0 1.08372e-09
0.00456752 0 4.09371e-06
0.0036 3.23101e-07 2.83668e-07
0.00359924 -0.00240757 -0.000871719
0.00897394 -0.0063567 -0.00237552
0.0181905 -0.00905173 -0.00336776
0.0298655 -0.011693 -0.00368492
0.0465495 -0.00734574 -0.00214806
0.0481256 3.86345e-05 -0.0001726
0.0474195 0.00305091 0.000448894
0.0420504 0.0046057 0.00033914
0.0365727 0.00435598 -7.40174e-05
0.0318161 0.00355288 -0.000261382
0.0280872 0.00263958 -0.000246466
0.0254677 0.0018183 -0.000164321
0.0237681 0.00118625 -8.9794e-05
0.0227133 0.000747242 -4.23522e-05
0.0220772 0.000458523 -1.75217e-05
0.0217029 0.000274957 -6.24708e-06
0.0214876 0.000161566 -1.7416e-06
0.0213663 9.34303e-05 -1.9466e-07
0.0212988 5.364e-05 2.1916e-07
0.0212611 3.12e-05 2.7661e-07
0.0212389 1.92427e-05 2.71352e-07
0.0212238 1.36498e-05 2.9864e-07
0.0212106 1.20788e-05 3.83089e-07
0.0211957 1.33225e-05 5.30941e-07
0.0211765 1.69153e-05 7.49822e-07
0.0211501 2.29105e-05 1.05635e-06
0.0211132 3.17758e-05 1.48071e-06
0.0210617 4.43643e-05 2.07237e-06
0.02099 6.19306e-05 2.90928e-06
0.0208904 8.6149e-05 4.11114e-06
0.020753 0.00011906 5.85245e-06
0.020565 0.000162798 8.35537e-06
0.0203109 0.000218895 1.18185e-05
0.0199736 0.000287082 1.62506e-05
0.0195378 0.000364049 2.13007e-05
0.0189944 0.000443134 2.62864e-05
0.0183455 0.0005155 3.04457e-05
0.017606 0.00057227 3.31919e-05
0.0168025 0.000606701 3.42445e-05
0.015969 0.000615607 3.36549e-05
0.0151415 0.000599618 3.1765e-05
0.0143525 0.000562216 2.90518e-05
0.013628 0.000508088 2.58904e-05
0.0129868 0.000441754 2.24403e-05
0.012442 0.000366919 1.87065e-05
0.0120024 0.000286312 1.46465e-05
0.0116734 0.000201665 1.02771e-05
0.0114582 0.000114604 6.30542e-06
0.0113576 3.52703e-05 6.75958e-06
0.0113575 -1.82867e-07 8.93137e-06
0.01 3.2332e-07 -4.68411e-07
0.0100012 -0.00462437 -0.00155495
0.0155477 -0.0127511 -0.00380504
0.0247017 -0.0186552 -0.00466601
0.0363951 -0.0260173 -0.00395215
0.0549237 -0.0167077 -0.000981863
0.054109 -0.000435146 0.00129736
0.0547211 0.00615006 0.00150555
0.0484508 0.0108942 0.00100158
0.0419113 0.0103661 8.40894e-05
0.0366443 0.00863942 -0.000378682
0.0326561 0.00647022 -0.000391302
0.03004 0.00439594 -0.000263847
0.0284871 0.00279543 -0.00014382
0.0275991 0.00170991 -6.67822e-05
0.0271039 0.00101797 -2.66322e-05
0.0268354 0.000592027 -8.59707e-06
0.0266943 0.00033713 -1.56384e-06
0.0266226 0.000188741 6.66919e-07
0.026587 0.000104992 1.05738e-06
0.026569 5.97281e-05 8.69071e-07
0.0265583 3.71884e-05 5.76301e-07
0.0265491 2.82471e-05 3.2442e-07
0.0265379 2.79277e-05 1.36596e-07
0.026522 3.38426e-05 -9.05054e-10
0.026499 4.52729e-05 -1.06504e-07
0.026466 6.26693e-05 -1.91328e-07
0.0264194 8.74264e-05 -2.52165e-07
0.026354 0.000121825 -2.61211e-07
0.0262632 0.000169064 -1.46187e-07
0.0261376 0.000233282 2.46298e-07
0.0259652 0.000319429 1.20865e-06
0.02573 0.000432682 3.22911e-06
0.0254123 0.000576927 6.94154e-06
0.0249888 0.000751912 1.27943e-05
0.0244367 0.000949888 2.05197e-05
0.0237407 0.0011543 2.8981e-05
0.0229009 0.00134249 3.66586e-05
0.0219362 0.00149112 4.22047e-05
0.0208831 0.00158193 4.4774e-05
0.0197896 0.00160587 4.42262e-05
0.0187067 0.00156421 4.12138e-05
0.017679 0.00146624 3.68554e-05
0.0167401 0.00132461 3.20493e-05
0.0159134 0.00115149 2.71642e-05
0.0152139 0.000956779 2.2205e-05
0.0146511 0.000747897 1.70427e-05
0.0142306 0.000530103 1.15346e-05
0.0139548 0.000307875 6.17736e-06
0.0138233 9.8099e-05 6.42001e-06
0.0138227 -3.294e-08 9.16093e-06
0.0148 -8.81268e-07 -6.08143e-07
0.0148028 -0.00633837 -0.00211878
0.0191995 -0.0171953 -0.0052403
0.0250047 -0.0254741 -0.00610308
0.0287863 -0.0380225 -0.00439771
0.0275597 -0.0234238 -0.000745658
0.0261121 -1.05108e-05 0.00126463
0.0266541 0.00839806 0.00136201
0.0318109 0.0172964 0.00115625
0.0312482 0.0162832 0.000410465
0.0294402 0.0130137 -0.00010254
0.0280744 0.00941578 -0.000245982
0.027363 0.00609767 -0.000196934
0.0271327 0.00368665 -0.000111504
0.0271034 0.0021579 -4.68035e-05
0.0271472 0.00123294 -1.25017e-05
0.0272097 0.000687773 1.34696e-06
0.0272678 0.000374788 5.08317e-06
0.0273136 0.000200347 4.86765e-06
0.0273461 0.000106735 3.57079e-06
0.0273669 5.9526e-05 2.27829e-06
0.0273782 3.89004e-05 1.27985e-06
0.0273816 3.39543e-05 5.69661e-07
0.0273778 3.91419e-05 6.14499e-08
0.027367 5.21714e-05 -3.33452e-07
0.0273483 7.28331e-05 -6.84373e-07
0.0273198 0.000102412 -1.03763e-06
0.0272787 0.000143465 -1.41356e-06
0.0272206 0.000199808 -1.79448e-06
0.0271395 0.000276633 -2.09392e-06
0.0270269 0.000380609 -2.09076e-06
0.026871 0.000519837 -1.29924e-06
0.0266557 0.000703261 1.24083e-06
0.0263586 0.000938695 7.08497e-06
0.0259508 0.00122813 1.78433e-05
0.0253987 0.00156071 3.36938e-05
0.0246752 0.00190864 5.24469e-05
0.023774 0.00223157 7.05706e-05
0.0227157 0.00248707 8.45903e-05
0.0215468 0.00264176 9.19466e-05
0.0203306 0.00267938 9.18037e-05
0.0191336 0.0026034 8.55998e-05
0.01801 0.00243235 7.61517e-05
0.0169957 0.00219008 6.56854e-05
0.0161122 0.0018981 5.5124e-05
0.0153715 0.00157314 4.45969e-05
0.0147804 0.00122732 3.39567e-05
0.0143418 0.000869098 2.29815e-05
0.0140562 0.000505843 1.20242e-05
0.0139217 0.000162359 7.18531e-06
0.013921 7.90603e-07 7.70067e-06
0.018 -2.02941e-06 -1.03117e-06
0.0180025 -0.00672107 -0.00287766
0.019598 -0.0171206 -0.00713327
0.0198572 -0.0211497 -0.00747697
0.0161649 -0.0224681 -0.00527901
-8.29928e-07 -0.0117259 -0.00205844
0.000106944 3.74893e-05 4.02088e-07
-4.19358e-05 4.4882e-05 0.000238485
0.00830567 0.00602984 0.000472091
0.0171488 0.0127072 0.00037636
0.0201525 0.0119074 0.000142099
0.021637 0.00866038 -6.91832e-05
0.023268 0.00542138 -0.000124091
0.024695 0.00310207 -7.88217e-05
0.0257263 0.00171558 -2.6352e-05
0.0264125 0.000917429 2.15159e-06
0.0268498 0.00047113 1.13883e-05
0.0271203 0.000231243 1.14104e-05
0.0272837 0.000108533 8.55822e-06
0.0273802 5.02571e-05 5.58369e-06
0.0274356 2.67306e-05 3.30334e-06
0.0274659 2.20922e-05 1.7506e-06
0.0274805 2.84583e-05 7.34157e-07
0.0274845 4.24983e-05 5.05481e-08
0.0274807 6.35631e-05 -4.57616e-07
0.0274699 9.27518e-05 -8.98246e-07
0.0274516 0.000132533 -1.33791e-06
0.0274241 0.000186702 -1.80367e-06
0.0273844 0.000260539 -2.26831e-06
0.027328 0.000361099 -2.60559e-06
0.0272479 0.000497531 -2.48825e-06
0.0271335 0.00068131 -1.15388e-06
0.0269692 0.000926098 3.12009e-06
0.0267309 0.00124618 1.37707e-05
0.0263819 0.00165032 3.55301e-05
0.0258711 0.00212858 7.06678e-05
0.0251485 0.00264091 0.000114899
0.0241945 0.00312302 0.0001593
0.0230317 0.00350559 0.000194505
0.0217234 0.00373413 0.000213243
0.0203587 0.00378339 0.000213131
0.0190299 0.00366217 0.000198216
0.017804 0.00340444 0.000175803
0.0167164 0.0030501 0.000151184
0.0157832 0.00263186 0.000126416
0.0150109 0.00217326 0.000101906
0.0144008 0.00169053 7.75406e-05
0.013952 0.00119456 5.30161e-05
0.0136622 0.000694595 2.85731e-05
0.0135275 0.000223546 1.10384e-05
0.0135267 2.25557e-06 5.59553e-06
0.0196 -2.39718e-06 -2.13306e-06
0.0196009 -0.0049496 -0.00352291
0.0190608 -0.0111904 -0.00826794
0.0168706 -0.0127929 -0.00790633
0.0126463 -0.010763 -0.00530944
0.00306112 -0.00421327 -0.00264859
8.12834e-05 -7.49889e-05 -0.0004984
3.30532e-05 -3.30532e-05 -5.93694e-08
-4.04076e-05 4.3464e-05 4.72349e-05
0.00601269 0.00435013 0.00011403
0.0126753 0.00851132 9.0728e-05
0.0157399 0.0063435 -5.60865e-05
0.019466 0.00309652 -0.000159008
0.0225781 0.00126478 -0.000117156
0.0246521 0.000454342 -4.61554e-05
0.0259017 0.000110626 -3.69845e-06
0.0266231 -2.35739e-05 1.08887e-05
0.0270309 -6.32096e-05 1.19021e-05
0.0272583 -6.27572e-05 8.82009e-06
0.0273837 -4.73399e-05 5.55173e-06
0.027452 -2.7449e-05 3.13583e-06
0.0274885 -6.5521e-06 1.56609e-06
0.0275072 1.51346e-05 5.87082e-07
0.0275156 3.89287e-05 -4.30217e-08
0.0275179 6.70125e-05 -4.97016e-07
0.0275158 0.000102289 -8.84661e-07
0.0275101 0.000148514 -1.26592e-06
0.0275002 0.000210591 -1.65172e-06
0.0274847 0.000295004 -1.97986e-06
0.027461 0.000410353 -2.04677e-06
0.0274241 0.000567979 -1.35736e-06
0.0273659 0.000782604 1.22861e-06
0.027272 0.00107297 8.51165e-06
0.027118 0.00146196 2.7332e-05
0.02686 0.00197144 7.00846e-05
0.0264228 0.0026008 0.000146959
0.025715 0.00329867 0.000250896
0.0246913 0.00396727 0.000358428
0.0233781 0.00449821 0.000443299
0.0218684 0.00480824 0.00048649
0.0202947 0.00486183 0.000483562
0.0187911 0.00467902 0.000446543
0.0174384 0.00431901 0.000393798
0.0162656 0.0038437 0.000337136
0.0152782 0.0032977 0.000280733
0.0144737 0.00271019 0.000225512
0.0138464 0.00210006 0.000171458
0.01339 0.00147934 0.000118108
0.0130983 0.00085809 6.53939e-05
0.0129645 0.000276373 2.13218e-05
0.0129636 4.06502e-06 3.38017e-06
0.0196 -1.28494e-06 -3.04921e-06
0.0196005 -0.00269892 -0.00375194
0.019182 -0.00553318 -0.0082689
0.0183658 -0.0049513 -0.00762004
0.0154832 -0.00150106 -0.00491231
0.0116214 0.00428606 -0.00277768
0.00706907 0.00367137 -0.00119905
8.13995e-05 -6.85784e-05 -0.000233789
2.81709e-05 -2.81709e-05 -1.26644e-07
-3.85686e-05 4.22465e-05 1.26251e-05
0.00434285 0.00216356 0.000227459
0.00963914 0.00190501 0.000172265
0.0163274 -0.00134352 -0.000189958
0.0215132 -0.00202973 -0.000247035
0.0245075 -0.00158391 -0.000138028
0.0260282 -0.00104835 -4.67164e-05
0.0267827 -0.00066036 -7.38293e-06
0.0271601 -0.000407789 3.40734e-06
0.0273502 -0.000247445 4.31035e-06
0.027446 -0.000145518 2.97294e-06
0.0274943 -7.92033e-05 1.64635e-06
0.0275189 -3.35775e-05 7.39276e-07
0.027532 1.18378e-06 1.79305e-07
0.0275399 3.18399e-05 -1.71668e-07
0.027546 6.35178e-05 -4.19143e-07
0.0275523 0.000100737 -6.24618e-07
0.0275599 0.000148193 -8.06587e-07
0.0275694 0.000211448 -9.27818e-07
0.0275812 0.000297627 -8.4966e-07
0.027595 0.000416221 -2.2169e-07
0.0276088 0.000580036 1.74623e-06
0.0276176 0.000806257 6.76088e-06
0.0276101 0.00111775 1.89695e-05
0.0275634 0.0015456 5.02778e-05
0.0274309 0.00212956 0.000128875
0.0271109 0.00289181 0.0002885
0.0264428 0.0037771 0.000523075
0.0253299 0.00464397 0.000772556
0.0238045 0.00532852 0.000963233
0.0220176 0.00571418 0.00105195
0.0201665 0.00575694 0.0010362
0.0184481 0.00549462 0.000947309
0.0169525 0.00502453 0.000828608
0.0156903 0.00443464 0.000704776
0.0146501 0.0037786 0.000583441
0.0138172 0.00308774 0.000466338
0.0131772 0.00238116 0.000353543
0.0127174 0.00167033 0.00024416
0.012427 0.000964962 0.000137377
0.0122957 0.000310055 4.32301e-05
0.0122949 5.09749e-06 1.8585e-06
0.018 -7.83058e-07 -3.05645e-06
0.0180012 -0.00088702 -0.00366832
0.018773 -0.00120387 -0.00780482
0.0198418 0.000217675 -0.00687999
0.0198026 0.00268201 -0.00431172
0.0196702 0.0079106 -0.00245278
0.0199641 0.0130987 -0.00126395
0.0123343 0.00733483 -0.000580926
8.34322e-05 -5.37246e-05 -0.00019829
-3.08391e-05 -6.11512e-05 5.59237e-07
8.33359e-06 -0.00120481 0.000756834
0.00971187 -0.00566913 0.000904891
0.0180482 -0.00867583 -2.30118e-06
0.0233446 -0.00680573 -0.000295484
0.0259034 -0.00399854 -0.000214655
0.0269241 -0.00214071 -9.53458e-05
0.0272976 -0.0011495 -3.33895e-05
0.0274274 -0.000630579 -1.02022e-05
0.0274682 -0.000349718 -2.80358e-06
0.0274775 -0.000192394 -6.96445e-07
0.0274772 -0.000100903 -1.77343e-07
0.0274756 -4.44773e-05 -8.0743e-08
0.0274761 -5.93341e-06 -7.15027e-08
0.02748 2.48885e-05 -6.38787e-08
0.0274884 5.46138e-05 -3.53592e-08
0.0275023 8.83227e-05 3.52646e-08
0.027523 0.000130798 1.99224e-07
0.0275524 0.000187443 5.77945e-07
0.0275927 0.000265131 1.44471e-06
0.0276461 0.000373148 3.40191e-06
0.0277148 0.000524395 7.7463e-06
0.0277983 0.000736858 1.7155e-05
0.0278904 0.00103521 3.75866e-05
0.0279722 0.00145414 8.70624e-05
0.0279997 0.00204646 0.000218964
0.0278536 0.00286445 0.000518025
0.0272736 0.00386274 0.000990414
0.0260672 0.00486326 0.0015
0.0242848 0.00564753 0.00187826
0.0221475 0.00607319 0.00203898
0.0199647 0.00608834 0.0019881
0.0180111 0.00574905 0.00179964
0.0163725 0.00519939 0.0015624
0.0150267 0.00454757 0.00132169
0.0139405 0.00384652 0.00108916
0.0130853 0.00312387 0.000867097
0.0124374 0.00239564 0.000655477
0.0119775 0.00167104 0.000452575
0.0116906 0.000958742 0.00025644
0.0115627 0.000304836 8.06948e-05
0.0115619 2.66748e-06 1.49317e-06
0.0148 -5.56483e-07 -2.67421e-06
0.0148017 7.78355e-05 -0.00344077
0.0171615 0.000888392 -0.00699015
0.0202584 0.00241881 -0.00578984
0.0227191 0.00457134 -0.00353201
0.0246526 0.00749403 -0.00217366
0.0277705 0.0126729 -0.00136382
0.0308766 0.0205706 -0.00074545
0.0251729 0.0124292 -8.33632e-05
0.0264475 8.27961e-10 0.00059131
0.031285 -0.00779736 0.00169233
0.0352305 -0.0164126 0.00188842
0.0336577 -0.0149236 0.000587804
0.0308244 -0.00974511 -0.000209472
0.0288948 -0.00506531 -0.000309134
0.0278515 -0.00239606 -0.000174933
0.0273039 -0.00114574 -7.3635e-05
0.0270086 -0.000572227 -2.74691e-05
0.026845 -0.000295569 -9.66884e-06
0.026753 -0.000153977 -3.23138e-06
0.026702 -7.71904e-05 -9.52072e-07
0.0266755 -3.24261e-05 -1.30135e-07
0.026665 -3.21362e-06 2.04956e-07
0.0266661 1.9418e-05 4.04189e-07
0.0266772 4.09527e-05 6.10082e-07
0.0266986 6.5407e-05 9.13691e-07
0.0267319 9.64842e-05 1.431e-06
0.02678 0.000138386 2.37536e-06
0.0268473 0.000196557 4.18061e-06
0.0269394 0.000278547 7.75414e-06
0.0270629 0.000395176 1.50132e-05
0.0272241 0.000562219 2.99569e-05
0.0274251 0.000802402 6.1163e-05
0.0276557 0.001147 0.000132968
0.0278822 0.00164197 0.000325416
0.0279883 0.00234236 0.000790596
0.0275965 0.00320339 0.00154109
0.0263542 0.00405507 0.00232182
0.0244681 0.00476292 0.00292407
0.0219942 0.0051792 0.00320878
0.0194879 0.00517542 0.00311272
0.0173375 0.00483414 0.00279414
0.0155885 0.00432813 0.00241783
0.0141822 0.00375683 0.00204391
0.0130659 0.00315811 0.00168365
0.0121982 0.00255026 0.00133961
0.0115466 0.00194383 0.00101171
0.0110867 0.001345 0.00069761
0.0108002 0.000761425 0.000394938
0.0106725 0.000234001 0.000122792
0.0106717 -6.755e-06 -7.09081e-07
0.01 -9.97261e-07 -2.4684e-06
0.0100007 0.000115047 -0.0029162
0.0130473 0.000821095 -0.00549594
0.0169806 0.00182647 -0.00409516
0.0207137 0.00316646 -0.00237615
0.02493 0.00574375 -0.00162437
0.0302638 0.00842721 -0.00154887
0.038907 0.0105715 -0.00118434
0.0514713 0.00443916 -4.88746e-05
0.0512706 -0.00644661 0.000944722
0.050981 -0.010632 0.00145503
0.0428872 -0.00866872 0.00143032
0.0340996 -0.00441977 0.000656006
0.0277801 -0.00192978 -2.52659e-05
0.024395 -0.000889335 -0.000197556
0.0228069 -0.000471406 -0.000130433
0.0220593 -0.000272197 -5.7923e-05
0.0216891 -0.000158239 -2.13283e-05