# vtk DataFile Version 2.0
Tobias Weinzierl: CPU, Manycore and Cluster Computing
ASCII

DATASET STRUCTURED_POINTS
DIMENSIONS  51 11 6

ORIGIN 0 0 0 

SPACING 0.1 0.1 0.1 

POINT_DATA 3366

VECTORS velocity float
0 0 0
-7.86296e-13 0 0
2.8209e-09 0 0
4.45664e-09 0 0
-7.65188e-09 0 0
4.77155e-09 0 0
6.1148e-09 0 0
4.69772e-09 0 0
3.80635e-09 0 0
2.14857e-09 0 0
6.63782e-10 0 0
1.19197e-10 0 0
-8.81616e-10 0 0
-3.76025e-09 0 0
-7.71006e-09 0 0
-1.07702e-08 0 0
-1.21214e-08 0 0
-1.24316e-08 0 0
-1.27045e-08 0 0
-1.34328e-08 0 0
-1.4569e-08 0 0
-1.5844e-08 0 0
-1.7017e-08 0 0
-1.79621e-08 0 0
-1.86541e-08 0 0
-1.91247e-08 0 0
-1.94257e-08 0 0
-1.9608e-08 0 0
-1.97128e-08 0 0
-1.97692e-08 0 0
-1.97947e-08 0 0
-1.97968e-08 0 0
-1.97779e-08 0 0
-1.9731e-08 0 0
-1.96151e-08 0 0
-1.93562e-08 0 0
-1.8908e-08 0 0
-1.83007e-08 0 0
-1.76163e-08 0 0
-1.69338e-08 0 0
-1.62978e-08 0 0
-1.5715e-08 0 0
-1.516e-08 0 0
-1.45874e-08 0 0
-1.39575e-08 0 0
-1.32667e-08 0 0
-1.2558e-08 0 0
-1.19115e-08 0 0
-1.14189e-08 0 0
-1.11682e-08 0 0
0.00145714 0 0
0 3.89935e-07 0
-3.42522e-12 -2.67688e-09 0
4.36811e-09 -6.48463e-09 0
9.65674e-09 -2.01293e-09 0
-4.85149e-09 -1.00536e-08 0
1.79345e-08 -1.33187e-08 0
1.91392e-08 5.05604e-10 0
1.44126e-08 4.09851e-09 0
1.246e-08 4.65606e-09 0
9.97695e-09 4.27207e-09 0
6.74689e-09 2.39504e-09 0
4.04068e-09 1.95799e-09 0
3.51614e-10 4.4329e-09 0
-5.95179e-09 7.05577e-09 0
-1.31315e-08 6.88892e-09 0
-1.82121e-08 4.37549e-09 0
-2.0673e-08 1.85293e-09 0
-2.22878e-08 7.05922e-10 0
-2.47619e-08 7.49874e-10 0
-2.85019e-08 1.2025e-09 0
-3.2938e-08 1.51314e-09 0
-3.72756e-08 1.52968e-09 0
-4.09587e-08 1.32838e-09 0
-4.37709e-08 1.03652e-09 0
-4.57446e-08 7.48437e-10 0
-4.70334e-08 5.11242e-10 0
-4.78187e-08 3.37868e-10 0
-4.82596e-08 2.23097e-10 0
-4.84762e-08 1.54515e-10 0
-4.85479e-08 1.17733e-10 0
-4.85174e-08 9.87402e-11 0
-4.8394e-08 8.69592e-11 0
-4.81657e-08 7.07734e-11 0
-4.78068e-08 1.6622e-11 0
-4.72212e-08 -1.2785e-10 0
-4.62108e-08 -3.70985e-10 0
-4.46185e-08 -6.39068e-10 0
-4.24831e-08 -8.37199e-10 0
-3.99987e-08 -9.26697e-10 0
-3.73753e-08 -9.32637e-10 0
-3.4757e-08 -9.0656e-10 0
-3.22156e-08 -8.98005e-10 0
-2.97561e-08 -9.41549e-10 0
-2.73259e-08 -1.04109e-09 0
-2.48665e-08 -1.15877e-09 0
-2.23886e-08 -1.22876e-09 0
-2.00088e-08 -1.18777e-09 0
-1.79311e-08 -9.9812e-10 0
-1.63775e-08 -6.47172e-10 0
-1.55363e-08 -2.00576e-10 0
0.0040949 -1.11074e-05 0
0 -2.18054e-08 0
-3.84583e-12 -2.45677e-09 0
4.89326e-09 -1.0025e-08 0
1.66052e-08 -1.60413e-08 0
1.71893e-08 -3.15617e-08 0
3.62596e-08 -2.66499e-08 0
3.09141e-08 -2.02543e-09 0
2.66853e-08 5.44319e-10 0
1.9581e-08 -5.45127e-09 0
1.08865e-08 -1.08475e-08 0
2.23936e-09 -1.15162e-08 0
-1.98866e-09 -6.4402e-09 0
-4.42101e-09 9.17107e-10 0
-9.59374e-09 6.26536e-09 0
-1.602e-08 8.93277e-09 0
-2.03596e-08 1.05051e-08 0
-2.20416e-08 1.17199e-08 0
-2.28646e-08 1.22849e-08 0
-2.46038e-08 1.19348e-08 0
-2.77895e-08 1.07505e-08 0
-3.19056e-08 9.01584e-09 0
-3.60955e-08 7.06958e-09 0
-3.96957e-08 5.20635e-09 0
-4.24121e-08 3.61676e-09 0
-4.42493e-08 2.37779e-09 0
-4.53668e-08 1.48111e-09 0
-4.59621e-08 8.71914e-10 0
-4.62071e-08 4.79645e-10 0
-4.62245e-08 2.3573e-10 0
-4.60872e-08 7.95034e-11 0
-4.58259e-08 -4.46708e-11 0
-4.54258e-08 -1.85722e-10 0
-4.48365e-08 -3.81271e-10 0
-4.40161e-08 -6.93452e-10 0
-4.28797e-08 -1.23766e-09 0
-4.1162e-08 -2.06561e-09 0
-3.85708e-08 -3.03301e-09 0
-3.50966e-08 -3.89706e-09 0
-3.09982e-08 -4.50841e-09 0
-2.659e-08 -4.85937e-09 0
-2.21168e-08 -5.01532e-09 0
-1.77568e-08 -5.05683e-09 0
-1.36155e-08 -5.05908e-09 0
-9.69363e-09 -5.05773e-09 0
-5.93299e-09 -5.00796e-09 0
-2.33283e-09 -4.79539e-09 0
9.81365e-10 -4.29716e-09 0
3.77486e-09 -3.442e-09 0
5.80221e-09 -2.24072e-09 0
6.95321e-09 -8.25643e-10 0
0.005726 -2.79545e-05 0
0 -6.46898e-07 0
1.16068e-13 -4.69005e-09 0
7.0091e-09 -1.62721e-08 0
2.09333e-08 -3.02465e-08 0
1.88231e-08 -4.12446e-08 0
2.30968e-08 -2.25908e-08 0
1.78965e-08 -1.14305e-11 0
1.69702e-08 -2.62756e-09 0
3.02016e-09 -1.20884e-08 0
-1.01078e-08 -2.27566e-08 0
-1.62171e-08 -2.82126e-08 0
-1.7564e-08 -2.83551e-08 0
-1.88349e-08 -2.11556e-08 0
-2.53247e-08 -7.58577e-09 0
-3.33865e-08 7.39286e-09 0
-3.8081e-08 1.86006e-08 0
-3.7738e-08 2.34126e-08 0
-3.37824e-08 2.28369e-08 0
-2.8867e-08 1.95258e-08 0
-2.5063e-08 1.55187e-08 0
-2.30515e-08 1.17286e-08 0
-2.24447e-08 8.4387e-09 0
-2.25249e-08 5.73432e-09 0
-2.2741e-08 3.63703e-09 0
-2.28312e-08 2.1123e-09 0
-2.27406e-08 1.07519e-09 0
-2.25068e-08 4.13379e-10 0
-2.21843e-08 1.09067e-11 0
-2.18088e-08 -2.37009e-10 0
-2.13876e-08 -4.18823e-10 0
-2.09086e-08 -6.14896e-10 0
-2.03325e-08 -9.04874e-10 0
-1.95714e-08 -1.3455e-09 0
-1.85667e-08 -1.99549e-09 0
-1.73049e-08 -3.01337e-09 0
-1.55144e-08 -4.53406e-09 0
-1.27241e-08 -6.37393e-09 0
-8.83421e-09 -8.10274e-09 0
-4.17414e-09 -9.38772e-09 0
8.35685e-10 -1.01305e-08 0
5.87311e-09 -1.0383e-08 0
1.0676e-08 -1.02617e-08 0
1.50606e-08 -9.91926e-09 0
1.90196e-08 -9.4815e-09 0
2.26806e-08 -8.95097e-09 0
2.6122e-08 -8.19749e-09 0
2.92617e-08 -7.05905e-09 0
3.18868e-08 -5.44741e-09 0
3.37694e-08 -3.43871e-09 0
3.49227e-08 -1.38728e-09 0
0.00630782 -4.57656e-05 0
0 -1.26283e-06 0
-1.90662e-12 -8.89555e-09 0
2.87502e-09 -2.44038e-08 0
7.75398e-09 -3.19143e-08 0
2.61599e-09 -2.57735e-08 0
-2.71237e-12 -9.37447e-09 0
-8.22154e-11 -1.07148e-10 0
9.81006e-11 -1.04487e-10 0
-7.90734e-09 -1.03825e-08 0
-2.87294e-08 -3.12174e-08 0
-3.59138e-08 -4.56074e-08 0
-3.42422e-08 -4.65415e-08 0
-3.72693e-08 -3.27829e-08 0
-4.44464e-08 -9.49052e-09 0
-5.10736e-08 1.25079e-08 0
-5.40831e-08 2.5783e-08 0
-5.18669e-08 2.85098e-08 0
-4.44987e-08 2.41538e-08 0
-3.42772e-08 1.75608e-08 0
-2.43192e-08 1.16663e-08 0
-1.65916e-08 7.24213e-09 0
-1.1411e-08 4.09044e-09 0
-8.16232e-09 1.89308e-09 0
-6.09613e-09 4.29729e-10 0
-4.68547e-09 -4.62339e-10 0
-3.64429e-09 -9.34284e-10 0
-2.83418e-09 -1.13089e-09 0
-2.1835e-09 -1.18071e-09 0
-1.64263e-09 -1.19066e-09 0
-1.16176e-09 -1.24472e-09 0
-6.96274e-10 -1.41438e-09 0
-2.10507e-10 -1.78553e-09 0
3.94625e-10 -2.43228e-09 0
1.22403e-09 -3.38867e-09 0
2.20739e-09 -4.82032e-09 0
3.54838e-09 -6.99106e-09 0
5.97768e-09 -9.74731e-09 0
9.78257e-09 -1.24456e-08 0
1.45591e-08 -1.44834e-08 0
1.97637e-08 -1.5602e-08 0
2.49941e-08 -1.58198e-08 0
2.98935e-08 -1.53129e-08 0
3.42046e-08 -1.43677e-08 0
3.79558e-08 -1.32647e-08 0
4.13941e-08 -1.21006e-08 0
4.46873e-08 -1.07498e-08 0
4.77696e-08 -9.01866e-09 0
5.04143e-08 -6.80809e-09 0
5.23736e-08 -4.22086e-09 0
5.36748e-08 -1.83269e-09 0
0.00643671 -6.07175e-05 0
0 -1.14175e-06 0
-8.7805e-12 -9.78333e-09 0
-2.96368e-09 -2.12922e-08 0
-3.21993e-09 -2.48236e-08 0
-8.81667e-09 -2.50169e-08 0
-7.72101e-09 -1.17047e-08 0
-9.0154e-11 8.74787e-11 0
1.06105e-11 -1.06105e-11 0
9.31341e-11 -1.03074e-10 0
-1.55636e-08 -1.74046e-08 0
-4.37097e-08 -4.76333e-08 0
-4.63166e-08 -5.57641e-08 0
-4.85895e-08 -3.77544e-08 0
-5.03892e-08 -1.00752e-08 0
-5.09543e-08 1.46425e-08 0
-5.13941e-08 2.83758e-08 0
-5.02902e-08 2.91847e-08 0
-4.47328e-08 2.16295e-08 0
-3.46183e-08 1.21939e-08 0
-2.29689e-08 4.7642e-09 0
-1.28881e-08 1.09766e-10 0
-5.66157e-09 -2.41448e-09 0
-1.04611e-09 -3.5754e-09 0
1.74453e-09 -3.90219e-09 0
3.41946e-09 -3.73815e-09 0
4.4462e-09 -3.32459e-09 0
5.09634e-09 -2.83636e-09 0
5.52328e-09 -2.39516e-09 0
5.81607e-09 -2.08412e-09 0
6.03806e-09 -1.96109e-09 0
6.23848e-09 -2.06798e-09 0
6.42368e-09 -2.47319e-09 0
6.65386e-09 -3.27891e-09 0
7.10277e-09 -4.51615e-09 0
7.66639e-09 -6.31417e-09 0
8.37954e-09 -9.07414e-09 0
1.0308e-08 -1.27625e-08 0
1.40861e-08 -1.65332e-08 0
1.92082e-08 -1.94345e-08 0
2.49447e-08 -2.09664e-08 0
3.07405e-08 -2.10847e-08 0
3.60672e-08 -2.00492e-08 0
4.05997e-08 -1.83345e-08 0
4.44722e-08 -1.64321e-08 0
4.80966e-08 -1.45677e-08 0
5.17049e-08 -1.26319e-08 0
5.51841e-08 -1.03953e-08 0
5.82405e-08 -7.73173e-09 0
6.05845e-08 -4.73666e-09 0
6.21627e-08 -2.13977e-09 0
0.00637081 -7.01947e-05 0
0 -7.88762e-07 0
-6.32936e-12 -6.00509e-09 0
-3.15644e-09 -1.52828e-08 0
-2.89793e-09 -1.99009e-08 0
-1.3293e-08 -1.94402e-08 0
-1.95186e-08 -1.14276e-08 0
-8.53193e-09 -2.60999e-09 0
-8.79472e-11 8.70132e-11 0
6.10748e-12 -6.10748e-12 0
8.56442e-11 -1.0063e-10 0
-2.01694e-08 -2.80343e-08 0
-3.59433e-08 -5.28901e-08 0
-4.34006e-08 -3.58955e-08 0
-4.39174e-08 -7.95246e-09 0
-3.96365e-08 1.59534e-08 0
-3.57356e-08 2.85019e-08 0
-3.44644e-08 2.77439e-08 0
-3.24767e-08 1.81836e-08 0
-2.67443e-08 6.92252e-09 0
-1.84017e-08 -1.47205e-09 0
-1.04523e-08 -6.08402e-09 0
-4.75797e-09 -7.83617e-09 0
-1.49309e-09 -7.87869e-09 0
8.60764e-12 -7.05156e-09 0
4.90795e-10 -5.88726e-09 0
4.79405e-10 -4.70581e-09 0
2.73783e-10 -3.68459e-09 0
1.96703e-11 -2.90809e-09 0
-2.2632e-10 -2.41035e-09 0
-4.46595e-10 -2.21008e-09 0
-6.27269e-10 -2.32218e-09 0
-8.02169e-10 -2.78616e-09 0
-9.96244e-10 -3.72465e-09 0
-1.00281e-09 -5.22107e-09 0
-8.74705e-10 -7.36347e-09 0
-8.30609e-10 -1.06302e-08 0
5.81755e-10 -1.51258e-08 0
4.63583e-09 -1.98145e-08 0
1.06529e-08 -2.33962e-08 0
1.75892e-08 -2.518e-08 0
2.46004e-08 -2.5105e-08 0
3.08748e-08 -2.35294e-08 0
3.60789e-08 -2.11075e-08 0
4.0562e-08 -1.85183e-08 0
4.49133e-08 -1.60991e-08 0
4.93569e-08 -1.37484e-08 0
5.36585e-08 -1.11979e-08 0
5.74289e-08 -8.28924e-09 0
6.03558e-08 -5.0898e-09 0
6.22574e-08 -2.35575e-09 0
0.00619932 -7.42661e-05 0
0 -5.53249e-07 0
-2.10278e-12 -4.39387e-09 0
-1.36504e-09 -1.12155e-08 0
-3.27366e-09 -1.49157e-08 0
-1.31893e-08 -1.34526e-08 0
-2.48176e-08 -5.92795e-09 0
-2.37037e-08 -3.38675e-10 0
-1.31336e-08 2.30155e-10 0
-9.37139e-11 8.03189e-11 0
8.46e-11 7.39757e-11 0
3.45421e-12 -1.54843e-08 0
-2.22666e-08 -3.00064e-08 0
-4.07861e-08 -1.79078e-08 0
-4.63609e-08 2.95867e-09 0
-3.76586e-08 1.76953e-08 0
-2.38178e-08 2.28442e-08 0
-1.58897e-08 1.92406e-08 0
-1.49453e-08 1.04071e-08 0
-1.56352e-08 1.20342e-09 0
-1.4928e-08 -5.15803e-09 0
-1.34927e-08 -8.14561e-09 0
-1.27205e-08 -8.69219e-09 0
-1.3055e-08 -7.90449e-09 0
-1.41743e-08 -6.57667e-09 0
-1.55892e-08 -5.17858e-09 0
-1.69554e-08 -3.95212e-09 0
-1.81157e-08 -2.99819e-09 0
-1.90411e-08 -2.34125e-09 0
-1.97702e-08 -1.97393e-09 0
-2.0366e-08 -1.89223e-09 0
-2.08789e-08 -2.11277e-09 0
-2.13844e-08 -2.67025e-09 0
-2.19917e-08 -3.67715e-09 0
-2.254e-08 -5.29146e-09 0
-2.29988e-08 -7.62069e-09 0
-2.38713e-08 -1.11095e-08 0
-2.33508e-08 -1.58274e-08 0
-1.90341e-08 -2.04509e-08 0
-1.19046e-08 -2.35483e-08 0
-3.3994e-09 -2.47359e-08 0
5.24213e-09 -2.4231e-08 0
1.29639e-08 -2.24534e-08 0
1.95084e-08 -2.00113e-08 0
2.54149e-08 -1.75292e-08 0
3.12937e-08 -1.52981e-08 0
3.71988e-08 -1.31616e-08 0
4.27127e-08 -1.08152e-08 0
4.73766e-08 -8.09788e-09 0
5.09147e-08 -5.08388e-09 0
5.3069e-08 -2.44046e-09 0
0.00590374 -7.53462e-05 0
0 -4.69933e-07 0
-1.9613e-12 -2.31214e-09 0
-3.41924e-10 -6.4007e-09 0
-4.74996e-09 -9.42443e-09 0
-1.72163e-08 -9.17276e-09 0
-3.12935e-08 -1.7419e-09 0
-3.37387e-08 4.42145e-09 0
-2.94961e-08 -5.58144e-09 0
-1.85104e-08 -7.9082e-09 0
-1.62063e-08 -2.91993e-13 0
-1.81135e-08 -5.07657e-09 0
-3.66905e-08 -6.30842e-09 0
-5.43939e-08 4.60282e-09 0
-5.56188e-08 1.46861e-08 0
-3.83236e-08 1.59082e-08 0
-1.65107e-08 1.03343e-08 0
-6.50126e-09 3.01743e-09 0
-1.02467e-08 -2.67005e-09 0
-1.90769e-08 -5.46959e-09 0
-2.62311e-08 -5.87441e-09 0
-3.05798e-08 -5.12009e-09 0
-3.3414e-08 -4.13594e-09 0
-3.57635e-08 -3.28184e-09 0
-3.79284e-08 -2.6003e-09 0
-3.98624e-08 -2.05906e-09 0
-4.14855e-08 -1.63819e-09 0
-4.27849e-08 -1.33554e-09 0
-4.38092e-08 -1.15739e-09 0
-4.46402e-08 -1.11355e-09 0
-4.53714e-08 -1.22172e-09 0
-4.60905e-08 -1.52095e-09 0
-4.69051e-08 -2.06546e-09 0
-4.79695e-08 -2.93653e-09 0
-4.92304e-08 -4.30785e-09 0
-5.06815e-08 -6.33947e-09 0
-5.30254e-08 -9.25038e-09 0
-5.42374e-08 -1.2774e-08 0
-5.05127e-08 -1.53745e-08 0
-4.35212e-08 -1.61408e-08 0
-3.47636e-08 -1.57446e-08 0
-2.57485e-08 -1.49079e-08 0
-1.72511e-08 -1.38673e-08 0
-9.29798e-09 -1.26936e-08 0
-1.53364e-09 -1.15609e-08 0
6.25106e-09 -1.05281e-08 0
1.37488e-08 -9.38958e-09 0
2.03885e-08 -7.90291e-09 0
2.57546e-08 -5.99512e-09 0
2.96873e-08 -3.81818e-09 0
3.1926e-08 -1.90283e-09 0
0.00530002 -7.16908e-05 0
0 -4.85177e-07 0
7.38935e-13 -4.36775e-10 0
2.25612e-10 -1.74222e-09 0
-5.86065e-09 -3.21217e-09 0
-1.9633e-08 -3.48077e-09 0
-3.47017e-08 -2.27353e-09 0
-3.83999e-08 2.77726e-10 0
-3.45698e-08 -2.28543e-09 0
-3.9806e-08 -4.09584e-09 0
-3.73287e-08 1.47839e-09 0
-3.48919e-08 6.68217e-09 0
-3.78365e-08 9.65016e-09 0
-3.91071e-08 9.70813e-09 0
-3.24753e-08 7.28068e-09 0
-1.77281e-08 3.41041e-09 0
-5.19334e-09 -1.45874e-09 0
-4.83777e-09 -5.4621e-09 0
-1.5001e-08 -6.5508e-09 0
-2.7099e-08 -4.95129e-09 0
-3.55346e-08 -2.56232e-09 0
-3.9924e-08 -8.35933e-10 0
-4.19958e-08 -5.73539e-11 0
-4.31794e-08 1.04548e-10 0
-4.4121e-08 1.76648e-11 0
-4.49901e-08 -1.09266e-10 0
-4.57898e-08 -2.05243e-10 0
-4.65053e-08 -2.69194e-10 0
-4.71462e-08 -3.22407e-10 0
-4.775e-08 -3.90733e-10 0
-4.83755e-08 -4.99546e-10 0
-4.90981e-08 -6.77881e-10 0
-5.00253e-08 -9.59974e-10 0
-5.13012e-08 -1.38188e-09 0
-5.29849e-08 -2.04839e-09 0
-5.52277e-08 -3.0753e-09 0
-5.84995e-08 -4.28781e-09 0
-6.06595e-08 -5.21052e-09 0
-5.79399e-08 -5.17375e-09 0
-5.31354e-08 -4.33524e-09 0
-4.74679e-08 -3.66528e-09 0
-4.21449e-08 -3.58688e-09 0
-3.69126e-08 -3.84278e-09 0
-3.11272e-08 -3.99731e-09 0
-2.47006e-08 -3.9087e-09 0
-1.79724e-08 -3.64209e-09 0
-1.15057e-08 -3.22487e-09 0
-5.83444e-09 -2.63747e-09 0
-1.25534e-09 -1.88969e-09 0
2.12126e-09 -1.09699e-09 0
3.98737e-09 -5.0996e-10 0
0.00382431 -4.81932e-05 0
0 0 0
1.37591e-12 0 0
1.83278e-10 0 0
-2.9321e-09 0 0
-9.31159e-09 0 0
-1.64254e-08 0 0
-1.98342e-08 0 0
-1.8207e-08 0 0
-2.13021e-08 0 0
-2.11236e-08 0 0
-1.67747e-08 0 0
-1.11976e-08 0 0
-6.59949e-09 0 0
-3.16534e-09 0 0
-9.52415e-11 0 0
7.60767e-10 0 0
-2.43318e-09 0 0
-8.23087e-09 0 0
-1.35747e-08 0 0
-1.68223e-08 0 0
-1.81959e-08 0 0
-1.85757e-08 0 0
-1.86325e-08 0 0
-1.86727e-08 0 0
-1.87752e-08 0 0
-1.89311e-08 0 0
-1.9117e-08 0 0
-1.93199e-08 0 0
-1.95428e-08 0 0
-1.98027e-08 0 0
-2.01299e-08 0 0
-2.05722e-08 0 0
-2.11907e-08 0 0
-2.20394e-08 0 0
-2.32427e-08 0 0
-2.48907e-08 0 0
-2.58881e-08 0 0
-2.47137e-08 0 0
-2.3081e-08 0 0
-2.15277e-08 0 0
-2.04774e-08 0 0
-1.94665e-08 0 0
-1.79246e-08 0 0
-1.58231e-08 0 0
-1.3436e-08 0 0
-1.1062e-08 0 0
-8.92463e-09 0 0
-7.14369e-09 0 0
-5.78746e-09 0 0
-5.03763e-09 0 0
0.0013824 0 0
0 0 5.41468e-07
-3.59056e-12 0 -1.46383e-10
3.59114e-09 0 2.02484e-09
1.13549e-08 0 1.24834e-08
-2.43338e-08 0 9.73636e-09
6.94372e-09 0 -4.50289e-10
1.27844e-08 0 -4.34051e-10
1.18541e-08 0 -1.79231e-09
1.3501e-08 0 -2.10913e-09
1.5592e-08 0 -1.13169e-09
1.86607e-08 0 -3.6781e-10
2.29623e-08 0 -4.14695e-10
2.48006e-08 0 -5.55513e-10
2.00795e-08 0 -2.29348e-10
9.57434e-09 0 1.19043e-10
-1.96234e-09 0 3.39046e-11
-1.10832e-08 0 -1.93405e-10
-1.77532e-08 0 -1.24663e-10
-2.34537e-08 0 2.49543e-10
-2.91082e-08 0 6.60307e-10
-3.46789e-08 0 8.96365e-10
-3.97077e-08 0 9.16603e-10
-4.38227e-08 0 7.8812e-10
-4.69095e-08 0 5.9914e-10
-4.90611e-08 0 4.12726e-10
-5.04683e-08 0 2.58895e-10
-5.13356e-08 0 1.44075e-10
-5.18371e-08 0 6.27593e-11
-5.21029e-08 0 5.53168e-12
-5.22202e-08 0 -3.69546e-11
-5.22382e-08 0 -7.22432e-11
-5.21733e-08 0 -1.04712e-10
-5.2022e-08 0 -1.37495e-10
-5.17568e-08 0 -1.8032e-10
-5.12689e-08 0 -2.47707e-10
-5.03509e-08 0 -3.36747e-10
-4.88406e-08 0 -4.17022e-10
-4.67631e-08 0 -4.55126e-10
-4.42965e-08 0 -4.40724e-10
-4.1646e-08 0 -3.86314e-10
-3.896e-08 0 -3.12693e-10
-3.63158e-08 0 -2.40144e-10
-3.37244e-08 0 -1.86414e-10
-3.1144e-08 0 -1.61682e-10
-2.8528e-08 0 -1.62129e-10
-2.58937e-08 0 -1.71006e-10
-2.33587e-08 0 -1.67598e-10
-2.11299e-08 0 -1.41054e-10
-1.94489e-08 0 -9.61593e-11
-1.85491e-08 0 -5.24108e-11
0.0040605 0 1.16402e-05
0.0036 -3.12588e-07 -6.41671e-08
0.0035998 -0.00138309 -2.11833e-05
0.00671782 -0.00390744 0.000106622
0.0136049 -0.00592458 -0.000556514
0.0235455 -0.0144175 -0.00431473
0.0462655 -0.0132638 -0.00487854
0.0497509 -0.00186175 -0.00164838
0.0494907 0.0026895 -0.00017148
0.0444987 0.00501502 0.000553578
0.0388788 0.00518049 0.000522633
0.0337446 0.00451469 0.000239205
0.0294212 0.00362943 -3.5949e-05
0.0260051 0.00273431 -0.000221126
0.0234359 0.0019281 -0.00030699
0.0215468 0.00128386 -0.00030783
0.0201556 0.000831109 -0.000249412
0.0191236 0.000544726 -0.000166452
0.0183596 0.000371554 -9.0099e-05
0.0178022 0.000262637 -3.63385e-05
0.0174054 0.000187576 -6.15984e-06
0.0171316 0.000132173 6.92865e-06
0.0169485 9.084e-05 1.02983e-05
0.0168297 6.10028e-05 9.30759e-06
0.0167541 4.06789e-05 6.99569e-06
0.0167057 2.79496e-05 4.7466e-06
0.0166728 2.10854e-05 3.02081e-06
0.0166471 1.87274e-05 1.86131e-06
0.0166225 1.99674e-05 1.17144e-06
0.016594 2.43411e-05 8.41898e-07
0.0165574 3.17821e-05 7.98702e-07
0.0165083 4.25719e-05 1.02119e-06
0.0164416 5.72661e-05 1.54077e-06
0.016351 7.65282e-05 2.40312e-06
0.0162294 0.000101035 3.69617e-06
0.0160681 0.000131523 5.71302e-06
0.0158577 0.000168012 8.81011e-06
0.0155895 0.000207924 1.27851e-05
0.0152605 0.000245363 1.66438e-05
0.0148771 0.000273057 1.91977e-05
0.0144558 0.000285387 1.97854e-05
0.0140191 0.000280307 1.8482e-05
0.0135907 0.000259458 1.58646e-05
0.0131914 0.000227025 1.26934e-05
0.0128364 0.00018811 9.66032e-06
0.0125347 0.00014722 7.19682e-06
0.0122903 0.000107343 5.39288e-06
0.0121035 6.97919e-05 4.02617e-06
0.0119726 3.47313e-05 2.65481e-06
0.0118946 4.84985e-06 3.28148e-06
0.0118659 -6.47883e-06 1.68454e-05
0.0118659 -4.85925e-06 2.90308e-05
0.01 -1.4134e-07 -1.47236e-06
0.0100008 -0.00299035 -0.000597075
0.0147922 -0.00993859 -0.000783659
0.0241563 -0.0177074 -0.00126914
0.0384674 -0.0324137 -0.00336911
0.0590692 -0.0246832 -0.000816416
0.0563285 -0.0026721 0.00316107
0.0557714 0.00514924 0.00336868
0.0499911 0.0101594 0.00296461
0.0445038 0.0103429 0.00203727
0.0399895 0.0092887 0.00106889
0.0362715 0.00785462 0.000323925
0.0332969 0.00631737 -0.000186509
0.0310154 0.00487684 -0.000472453
0.0292684 0.00365989 -0.000545414
0.0279206 0.00269457 -0.000464542
0.0268918 0.00195141 -0.00031754
0.0261284 0.00138934 -0.000176534
0.0255814 0.000970803 -7.5703e-05
0.0252034 0.000664181 -1.78818e-05
0.0249518 0.000443964 8.41359e-06
0.0247906 0.000289921 1.64087e-05
0.024691 0.000185867 1.58327e-05
0.0246309 0.000118791 1.23094e-05
0.0245939 7.8472e-05 8.48416e-06
0.0245683 5.72737e-05 5.30685e-06
0.024546 4.98936e-05 2.9339e-06
0.0245207 5.30268e-05 1.23041e-06
0.0244875 6.50119e-05 4.2906e-09
0.0244414 8.55066e-05 -9.05215e-07
0.0243771 0.000115242 -1.59072e-06
0.024288 0.00015586 -2.04188e-06
0.0241656 0.000209537 -2.20648e-06
0.0239993 0.000278416 -2.01902e-06
0.0237763 0.000364517 -9.84847e-07
0.0234822 0.000468377 1.779e-06
0.0231023 0.000584572 6.09312e-06
0.0226287 0.000699061 9.93694e-06
0.0220675 0.000793108 1.08668e-05
0.0214397 0.000850557 7.79384e-06
0.0207764 0.000863062 1.39603e-06
0.0201117 0.000831183 -6.58256e-06
0.0194769 0.000762407 -1.41753e-05
0.018897 0.000667812 -1.97866e-05
0.0183889 0.000558616 -2.25982e-05
0.0179626 0.000443609 -2.27037e-05
0.0176227 0.000328474 -2.08487e-05
0.0173702 0.000216559 -1.82927e-05
0.0172033 0.00011037 -1.36503e-05
0.0171234 2.42116e-05 1.27491e-05
0.0171233 -1.06046e-05 3.57639e-05
0.0148 -9.72185e-07 -1.76563e-06
0.0148024 -0.00529023 -0.00112799
0.0203588 -0.0163883 -0.00243668
0.0274652 -0.0287118 -0.00394367
0.032075 -0.0460004 -0.00575768
0.0305665 -0.0284066 -0.00139888
0.0268161 -1.24227e-05 0.00328952
0.0262627 0.0070945 0.00350627
0.0298154 0.0145223 0.00339364
0.0301825 0.0140133 0.0024015
0.029379 0.0122644 0.00141519
0.0285438 0.0104242 0.000566908
0.0278936 0.00849904 -3.63777e-05
0.0275572 0.00664165 -0.00037617
0.0274262 0.00502333 -0.00046513
0.027407 0.00368477 -0.000389096
0.0274472 0.00262283 -0.000250154
0.0275138 0.00181765 -0.000119702
0.0275851 0.00123112 -2.8579e-05
0.02765 0.0008159 2.09057e-05
0.0277058 0.000528247 3.9503e-05
0.0277528 0.00033378 4.02208e-05
0.0277917 0.000206969 3.31373e-05
0.0278222 0.000128853 2.42465e-05
0.0278434 8.53831e-05 1.63024e-05
0.0278546 6.64984e-05 1.01248e-05
0.0278549 6.5517e-05 5.6276e-06
0.0278431 7.85932e-05 2.42141e-06
0.0278174 0.000104226 1.03029e-07
0.027775 0.00014284 -1.63941e-06
0.0277113 0.000196439 -3.00081e-06
0.0276201 0.000268455 -3.96059e-06
0.0274924 0.000363372 -4.29431e-06
0.0273158 0.000485561 -3.82675e-06
0.0270747 0.000638988 -1.74091e-06
0.0267502 0.000825939 3.90929e-06
0.0263198 0.00103898 1.3213e-05
0.0257686 0.00125434 2.20458e-05
0.0251021 0.00143816 2.50752e-05
0.0243474 0.00156007 1.98481e-05
0.0235453 0.00160306 7.68461e-06
0.0227396 0.00156582 -7.8655e-06
0.0219695 0.00145935 -2.28679e-05
0.0212651 0.00130145 -3.42087e-05
0.0206465 0.0011111 -4.03233e-05
0.0201255 0.000903988 -4.14007e-05
0.0197079 0.000690598 -3.87764e-05
0.0193961 0.000477101 -3.43406e-05
0.0191897 0.000267735 -2.80399e-05
0.0190903 7.51713e-05 4.87177e-06
0.0190901 -1.42269e-05 3.38868e-05
0.018 -1.96106e-06 -1.71976e-06
0.018003 -0.00697369 -0.00188154
0.0207459 -0.018903 -0.00491895
0.0206787 -0.0248322 -0.00632607
0.0160582 -0.0268836 -0.00760867
-1.61562e-06 -0.0139904 -0.00432104
9.50378e-05 2.33021e-05 9.26353e-07
-3.03867e-05 3.17649e-05 0.000647069
0.00661782 0.00414997 0.00141358
0.0135868 0.00945826 0.00136908
0.017028 0.0103479 0.000951586
0.0187732 0.00939009 0.00040075
0.020443 0.0077679 -8.78012e-05
0.0221329 0.0059724 -0.000339243
0.0236746 0.00438889 -0.00037789
0.0249929 0.00309031 -0.000300102
0.0260771 0.00208383 -0.000185286
0.0269369 0.00135289 -7.91883e-05
0.0275912 0.000851726 -2.47992e-06
0.0280696 0.000520604 4.0488e-05
0.0284091 0.000306694 5.56601e-05
0.028645 0.000172359 5.33237e-05
0.0288064 9.28077e-05 4.30351e-05
0.0289144 5.1404e-05 3.11426e-05
0.0289839 3.66344e-05 2.07495e-05
0.0290249 4.07587e-05 1.27825e-05
0.029044 5.91838e-05 7.08535e-06
0.0290451 9.00059e-05 3.13413e-06
0.0290296 0.00013362 4.06766e-07
0.0289971 0.000192424 -1.45724e-06
0.0289446 0.000270537 -2.65042e-06
0.0288664 0.000373743 -3.04496e-06
0.0287541 0.000509535 -1.95808e-06
0.0285941 0.000685531 1.26766e-06
0.0283673 0.00090881 8.13733e-06
0.0280486 0.00118595 2.30178e-05
0.0276029 0.00151002 4.73544e-05
0.0270018 0.00184578 7.27793e-05
0.0262499 0.00213879 8.70875e-05
0.0253853 0.00233944 8.38484e-05
0.0244649 0.00241998 6.4831e-05
0.0235469 0.00237777 3.70042e-05
0.0226788 0.00222912 8.31611e-06
0.021894 0.00200046 -1.50764e-05
0.0212125 0.00171992 -3.02054e-05
0.020644 0.00141077 -3.74325e-05
0.0201926 0.00108862 -3.91492e-05
0.0198594 0.000762621 -3.82791e-05
0.0196425 0.000439449 -3.54567e-05
0.0195419 0.000132806 -3.91067e-06
0.0195416 -1.37992e-05 2.5528e-05
0.0196 -2.83311e-06 -2.59914e-06
0.019601 -0.00586912 -0.00274497
0.019063 -0.0130942 -0.00646787
0.015971 -0.0160868 -0.00667227
0.0109441 -0.0150614 -0.00668248
0.00176029 -0.00620253 -0.00503225
6.99437e-05 -6.39437e-05 -0.00129663
3.3557e-05 -3.3557e-05 -4.07917e-08
-2.97615e-05 3.10119e-05 0.00025102
0.00399451 0.00285894 0.000532414
0.0091873 0.00672105 0.000460425
0.0121107 0.00705432 0.000112305
0.0153578 0.00548822 -0.000263537
0.0185125 0.00386903 -0.000411426
0.0212122 0.0025793 -0.000394656
0.0233961 0.00158332 -0.000310669
0.0251176 0.00085483 -0.00021061
0.0264408 0.00037724 -0.000115255
0.0274206 0.000103971 -3.73985e-05
0.0281151 -3.16789e-05 1.4085e-05
0.0285881 -8.77459e-05 3.85438e-05
0.0289004 -0.000101063 4.29633e-05
0.0291014 -9.12024e-05 3.66772e-05
0.0292275 -6.81235e-05 2.69836e-05
0.0293038 -3.6995e-05 1.78833e-05
0.029347 -1.54052e-07 1.0826e-05
0.029368 4.22237e-05 5.89568e-06
0.0293731 9.18093e-05 2.67599e-06
0.0293655 0.000151928 7.21344e-07
0.0293458 0.000227541 -1.87575e-07
0.0293122 0.000325243 -2.59591e-08
0.0292598 0.00045334 1.59872e-06
0.0291804 0.000622637 6.20124e-06
0.0290599 0.00084515 1.56949e-05
0.0288745 0.00113261 3.31704e-05
0.0285903 0.00149948 6.86016e-05
0.0281514 0.00194392 0.000128669
0.0275042 0.00241691 0.000197353
0.0266522 0.00283515 0.000246195
0.0256542 0.00312361 0.00025774
0.0245959 0.00324271 0.000232959
0.0235572 0.00319094 0.000185531
0.0225955 0.00299333 0.000131777
0.0217449 0.00268752 8.40069e-05
0.0210209 0.00231221 4.78475e-05
0.0204276 0.00189868 2.26749e-05
0.0199643 0.00146748 4.56017e-06
0.0196291 0.00103078 -1.07189e-05
0.0194173 0.000598043 -2.37374e-05
0.0193248 0.000186782 -7.38285e-06
0.0193245 -1.03257e-05 1.45811e-05
0.0196 -1.3597e-06 -3.61441e-06
0.0195999 -0.00366708 -0.00312273
0.0187903 -0.00802963 -0.00650552
0.0175462 -0.00802188 -0.00604905
0.0132482 -0.00417925 -0.00555053
0.00915284 0.00266509 -0.00531366
0.00616697 0.00318637 -0.00308126
7.01038e-05 -5.77836e-05 -0.000655635
2.80221e-05 -2.80221e-05 -1.28467e-07
-2.92004e-05 3.03226e-05 8.91905e-05
0.00282302 0.00209403 0.000350106
0.00721989 0.00333029 0.000261639
0.0125378 0.00170203 -0.00014044
0.017193 0.000524115 -0.000309786
0.0207893 -0.000121048 -0.00031905
0.0234442 -0.000517594 -0.00027446
0.0253742 -0.000753304 -0.00021948
0.0267524 -0.000829941 -0.000158183
0.0277015 -0.000774284 -9.42045e-05
0.0283222 -0.000646311 -4.0032e-05
0.0287062 -0.000501171 -5.12007e-06
0.0289317 -0.0003688 1.08574e-05
0.0290577 -0.000258181 1.4326e-05
0.0291246 -0.000168036 1.20249e-05
0.029158 -9.36618e-05 8.29252e-06
0.0291732 -2.95567e-05 5.09446e-06
0.0291791 2.99587e-05 2.98927e-06
0.0291803 9.07749e-05 1.96592e-06
0.029179 0.000159225 1.92834e-06
0.0291756 0.000242524 3.0333e-06
0.0291687 0.000349328 5.82017e-06
0.0291544 0.000490083 1.12394e-05
0.0291251 0.000678422 2.20845e-05
0.0290669 0.000931244 4.2815e-05
0.028951 0.00126623 7.99496e-05
0.0287327 0.00170895 0.000155309
0.0283262 0.00226859 0.000290621
0.0276324 0.00288003 0.000457062
0.0266532 0.00342104 0.000588985
0.0254845 0.0037874 0.000642623
0.0242593 0.00393085 0.000616492
0.0230882 0.00385647 0.000537829
0.0220376 0.00360246 0.00043929
0.0211365 0.00321966 0.000344396
0.0203899 0.00275738 0.000263417
0.0197914 0.00225375 0.000195819
0.0193334 0.00173286 0.000136179
0.0190102 0.00120905 7.93622e-05
0.0188144 0.000695077 2.60031e-05
0.018736 0.000215585 3.47222e-06
0.0187357 -1.11617e-05 6.08852e-06
0.018 -8.71935e-07 -3.60015e-06
0.018001 -0.00199362 -0.00304502
0.0183264 -0.00382528 -0.00614866
0.018399 -0.00257714 -0.00528641
0.017404 0.000734255 -0.00421479
0.0171426 0.0071565 -0.00396769
0.0178773 0.0126121 -0.00296706
0.0109918 0.00693441 -0.00146043
7.16177e-05 -4.39495e-05 -0.000425189
-2.21896e-05 -5.16877e-05 5.60057e-07
7.93908e-06 -0.000627058 0.000743102
0.008402 -0.0026873 0.00108757
0.0158269 -0.00429246 0.00047969
0.020876 -0.00409156 0.000192148
0.024052 -0.00335752 7.72365e-05
0.0259935 -0.00269896 1.25477e-06
0.0271509 -0.00219053 -7.23055e-05
0.0278048 -0.00175217 -0.000120524
0.028134 -0.00134259 -0.000125163
0.0282628 -0.000977029 -9.80522e-05
0.0282806 -0.000679455 -6.28925e-05
0.0282472 -0.000455023 -3.48826e-05
0.0281983 -0.000292819 -1.74662e-05
0.0281521 -0.000176638 -8.13057e-06
0.0281161 -9.13971e-05 -3.43815e-06
0.0280923 -2.48842e-05 -9.31302e-07
0.0280806 3.26022e-05 7.94389e-07
0.0280802 8.91619e-05 2.52721e-06
0.0280903 0.000152239 4.83608e-06
0.0281105 0.000229544 8.46575e-06
0.0281404 0.000330144 1.4709e-05
0.0281779 0.000465297 2.55015e-05
0.028218 0.000649883 4.54075e-05
0.0282488 0.000904335 8.29731e-05
0.0282394 0.00125207 0.000151197
0.0281344 0.0017281 0.000292711
0.0278164 0.00235335 0.000559343
0.0271135 0.00304658 0.000897952
0.0260227 0.00364728 0.00117055
0.024693 0.00403153 0.00128854
0.0233247 0.00415415 0.00125307
0.0220598 0.00403542 0.00112008
0.0209643 0.00372951 0.000949429
0.0200524 0.00329771 0.000779845
0.0193124 0.00279463 0.000626417
0.0187265 0.00225947 0.000488126
0.0182816 0.00171511 0.000358062
0.0179699 0.00117508 0.00023089
0.0177842 0.000654384 0.000110104
0.017713 0.000186138 2.54204e-05
0.0177128 -2.89129e-05 -1.75228e-06
0.0148 -4.89628e-07 -3.18932e-06
0.0148015 -0.00102336 -0.00282185
0.0162396 -0.00160322 -0.00541452
0.0178314 4.56192e-05 -0.00429739
0.0192018 0.00326602 -0.00309886
0.0209829 0.00741481 -0.00287475
0.0248042 0.0129801 -0.00241038
0.0280917 0.0195342 -0.00149122
0.0230827 0.0113289 -0.00032433
0.023522 1.27853e-10 0.000629973
0.0266681 -0.00667247 0.00155852
0.0301961 -0.013044 0.00210916
0.0311568 -0.0110352 0.00165364
0.0306405 -0.00779999 0.00118735
0.0296054 -0.00522121 0.000759612
0.0285248 -0.00349261 0.000386944
0.0275754 -0.00236391 9.19282e-05
0.0267991 -0.00159347 -9.1591e-05
0.0261908 -0.0010483 -0.000158576
0.025731 -0.000668352 -0.000146667
0.0253953 -0.000415198 -0.000104667
0.0251588 -0.000252709 -6.38808e-05
0.0249982 -0.000149178 -3.49959e-05
0.0248941 -8.11568e-05 -1.74779e-05
0.0248314 -3.31357e-05 -7.61563e-06
0.0247994 4.86845e-06 -2.04258e-06
0.0247913 3.96623e-05 1.52359e-06
0.0248034 7.65665e-05 4.54776e-06
0.0248346 0.000120577 8.12446e-06
0.0248858 0.000177236 1.34564e-05
0.0249592 0.000253588 2.24504e-05
0.025057 0.000359263 3.81951e-05
0.0251796 0.000507586 6.72024e-05
0.0253213 0.000718477 0.000122706
0.0254561 0.00101672 0.000227458
0.0255288 0.00143155 0.000448562
0.0254 0.00197624 0.000866485
0.0248039 0.00256556 0.0013762
0.0237455 0.00305266 0.00175736
0.0224036 0.00333065 0.00189111
0.0210558 0.00336899 0.00179807
0.019849 0.00320941 0.00158565
0.0188257 0.00291213 0.00134192
0.017978 0.0025325 0.00111067
0.0172824 0.00211361 0.000902171
0.0167193 0.00168231 0.000709566
0.0162793 0.00125199 0.000522873
0.0159597 0.00083095 0.000337109
0.0157588 0.000431922 0.000159891
0.0156731 8.83883e-05 2.45141e-05
0.0156729 -6.33027e-05 -2.64537e-05
0.01 -9.34249e-07 -2.8862e-06
0.0100008 -0.000627965 -0.00229836
0.011336 -0.000690786 -0.00414034
0.0132389 0.000589084 -0.00292862
0.0157375 0.00256442 -0.00185324
0.0197044 0.00560402 -0.00186248
0.0256452 0.00836963 -0.00238561
0.0347338 0.010124 -0.00209164
0.0463768 0.00484523 -0.000502845
0.0461209 -0.00402061 0.000997889
0.0456166 -0.0082566 0.00163326
0.0383416 -0.00847611 0.00180332
0.0314052 -0.00584857 0.00155449
0.0262781 -0.00339687 0.00114654
0.0228182 -0.00177302 0.000727547
0.0205708 -0.000855176 0.000368084
0.0191417 -0.00038012 0.000104293
0.0182479 -0.000148912 -4.69235e-05