# vtk DataFile Version 2.0
Tobias Weinzierl: CPU, Manycore and Cluster Computing
ASCII

DATASET STRUCTURED_POINTS
DIMENSIONS  51 11 6

ORIGIN 0 0 0 

SPACING 0.1 0.1 0.1 

POINT_DATA 3366

VECTORS velocity float
0 0 0
6.70125e-09 0 0
1.22748e-09 0 0
1.11491e-10 0 0
6.74843e-12 0 0
3.06461e-13 0 0
1.11409e-14 0 0
3.37724e-16 0 0
8.78e-18 0 0
1.99813e-19 0 0
4.04335e-21 0 0
7.3656e-23 0 0
1.21999e-24 0 0
1.85255e-26 0 0
2.59688e-28 0 0
3.38038e-30 0 0
4.10692e-32 0 0
4.67768e-34 0 0
5.01415e-36 0 0
5.07592e-38 0 0
4.86764e-40 0 0
4.43411e-42 0 0
3.84647e-44 0 0
3.18469e-46 0 0
2.52182e-48 0 0
1.91347e-50 0 0
1.39361e-52 0 0
9.75807e-55 0 0
6.57856e-57 0 0
4.27598e-59 0 0
2.68305e-61 0 0
1.62714e-63 0 0
9.54779e-66 0 0
5.42644e-68 0 0
2.99007e-70 0 0
1.59882e-72 0 0
8.30314e-75 0 0
4.19143e-77 0 0
2.05823e-79 0 0
9.83898e-82 0 0
4.58174e-84 0 0
2.07979e-86 0 0
9.20839e-89 0 0
3.97908e-91 0 0
1.67903e-93 0 0
6.92221e-96 0 0
2.78974e-98 0 0
1.09958e-100 0 0
4.24072e-103 0 0
1.60693e-105 0 0
5.80922e-104 0 0
0 -1.0201e-244 0
5.603e-08 -5.91968e-242 0
1.03283e-08 -2.76039e-239 0
9.32252e-10 -1.18175e-236 0
5.61381e-11 -4.67181e-234 0
2.53484e-12 -1.62196e-231 0
9.17187e-14 -4.1728e-229 0
2.77012e-15 -1.76061e-231 0
7.18081e-17 -6.30074e-230 0
1.63043e-18 -2.75653e-227 0
3.29315e-20 -1.18293e-224 0
5.98986e-22 -4.99157e-222 0
9.90868e-24 -2.07105e-219 0
1.50302e-25 -8.44627e-217 0
2.10499e-27 -3.38439e-214 0
2.73792e-29 -1.33181e-211 0
3.32411e-31 -5.14451e-209 0
3.7838e-33 -1.94971e-206 0
4.05382e-35 -7.24578e-204 0
4.10183e-37 -2.639e-201 0
3.93187e-39 -9.41376e-199 0
3.58033e-41 -3.28676e-196 0
3.10478e-43 -1.12239e-193 0
2.56982e-45 -3.74584e-191 0
2.03436e-47 -1.22073e-188 0
1.54321e-49 -3.88111e-186 0
1.12368e-51 -1.2026e-183 0
7.86639e-54 -3.62774e-181 0
5.30224e-56 -1.06407e-178 0
3.44578e-58 -3.0307e-176 0
2.16178e-60 -8.3695e-174 0
1.31083e-62 -2.23724e-171 0
7.69072e-65 -5.77778e-169 0
4.37046e-67 -1.43853e-166 0
2.40795e-69 -3.4445e-164 0
1.28743e-71 -7.90981e-162 0
6.68546e-74 -1.73632e-159 0
3.37458e-76 -3.62962e-157 0
1.657e-78 -7.19296e-155 0
7.92053e-81 -1.34407e-152 0
3.6882e-83 -2.3526e-150 0
1.67412e-85 -3.82603e-148 0
7.41206e-88 -5.72202e-146 0
3.20279e-90 -7.76502e-144 0
1.35144e-92 -9.39177e-142 0
5.57162e-95 -9.87387e-140 0
2.24544e-97 -8.69488e-138 0
8.85051e-100 -6.04183e-136 0
3.4134e-102 -2.9678e-134 0
1.29346e-104 -7.90353e-133 0
4.741e-103 -4.71778e-131 0
0 -9.14368e-243 0
1.53341e-07 -5.25119e-240 0
2.86232e-08 -2.93992e-237 0
2.56584e-09 -1.55685e-234 0
1.53397e-10 -8.10978e-232 0
6.6638e-12 -4.17278e-229 0
2.35111e-13 -2.12101e-226 0
6.97606e-15 -4.2737e-229 0
1.7852e-16 -5.25821e-228 0
4.01384e-18 -2.35973e-225 0
8.04485e-20 -1.02376e-222 0
1.45413e-21 -4.36036e-220 0
2.39301e-23 -1.82631e-217 0
3.61392e-25 -7.52116e-215 0
5.04213e-27 -3.04422e-212 0
6.53645e-29 -1.2105e-209 0
7.91258e-31 -4.72661e-207 0
8.98311e-33 -1.81144e-204 0
9.60126e-35 -6.81021e-202 0
9.69386e-37 -2.51026e-199 0
9.27363e-39 -9.06654e-197 0
8.42891e-41 -3.20663e-194 0
7.29679e-43 -1.10979e-191 0
6.02981e-45 -3.75575e-189 0
4.76619e-47 -1.24182e-186 0
3.61034e-49 -4.00814e-184 0
2.6253e-51 -1.26163e-181 0
1.83549e-53 -3.86867e-179 0
1.23567e-55 -1.15431e-176 0
8.02085e-58 -3.347e-174 0
5.02638e-60 -9.41738e-172 0
3.04452e-62 -2.5671e-169 0
1.78439e-64 -6.76715e-167 0
1.01301e-66 -1.72155e-164 0
5.57588e-69 -4.21661e-162 0
2.9784e-71 -9.91652e-160 0
1.54524e-73 -2.23224e-157 0
7.79295e-76 -4.79189e-155 0
3.82326e-78 -9.7669e-153 0
1.82602e-80 -1.88022e-150 0
8.49604e-83 -3.39688e-148 0
3.85344e-85 -5.71371e-146 0
1.70478e-87 -8.85819e-144 0
7.36099e-90 -1.2493e-141 0
3.10379e-92 -1.57482e-139 0
1.2787e-94 -1.73106e-137 0
5.1498e-97 -1.59953e-135 0
2.02846e-99 -1.171e-133 0
7.81811e-102 -6.08718e-132 0
2.96068e-104 -1.72264e-130 0
1.08896e-102 -1.04822e-128 0
0 -6.58773e-245 0
2.593e-07 -3.82117e-242 0
4.92161e-08 -1.65103e-239 0
4.38186e-09 -5.90783e-237 0
2.59693e-10 -1.55728e-234 0
4.43542e-12 -1.55139e-234 0
1.54533e-13 0 0
4.54366e-15 1.06485e-223 0
1.18047e-16 -3.46432e-226 0
2.68478e-18 -1.7616e-223 0
5.42948e-20 -7.81521e-221 0
9.88455e-22 -3.36422e-218 0
1.63619e-23 -1.42289e-215 0
2.48295e-25 -5.91916e-213 0
3.47827e-27 -2.42091e-210 0
4.52463e-29 -9.73082e-208 0
5.49331e-31 -3.84223e-205 0
6.2523e-33 -1.48964e-202 0
6.6972e-35 -5.6679e-200 0
6.77472e-37 -2.11534e-197 0
6.49188e-39 -7.73937e-195 0
5.90922e-41 -2.77417e-192 0
5.12217e-43 -9.73587e-190 0
4.23763e-45 -3.34287e-187 0
3.35299e-47 -1.1221e-184 0
2.54215e-49 -3.67908e-182 0
1.85003e-51 -1.17718e-179 0
1.29438e-53 -3.67199e-177 0
8.71942e-56 -1.11539e-174 0
5.66306e-58 -3.29517e-172 0
3.55062e-60 -9.45482e-170 0
2.1516e-62 -2.63076e-167 0
1.26155e-64 -7.086e-165 0
7.16439e-67 -1.84397e-162 0
3.94469e-69 -4.62545e-160 0
2.10766e-71 -1.1155e-157 0
1.09375e-73 -2.57862e-155 0
5.51712e-76 -5.69323e-153 0
2.70721e-78 -1.1955e-150 0
1.29319e-80 -2.37547e-148 0
6.01768e-83 -4.43878e-146 0
2.72966e-85 -7.73988e-144 0
1.20773e-87 -1.24709e-141 0
5.21515e-90 -1.83311e-139 0
2.19911e-92 -2.4161e-137 0
9.0603e-95 -2.78698e-135 0
3.64901e-97 -2.71357e-133 0
1.43734e-99 -2.10314e-131 0
5.53981e-102 -1.16352e-129 0
2.09788e-104 -3.52219e-128 0
7.70454e-103 -2.18565e-126 0
0 -2.94822e-247 0
3.46611e-07 -1.72711e-244 0
6.67846e-08 -6.12665e-242 0
5.91738e-09 -1.66566e-239 0
3.48116e-10 -2.96434e-237 0
0 -2.94774e-237 0
0 0 0
0 0 0
2.55441e-18 -5.30079e-221 0
1.03364e-19 -1.03249e-221 0
2.80857e-21 -5.12113e-219 0
6.16554e-23 -2.24672e-216 0
1.16375e-24 -9.59873e-214 0
1.94763e-26 -4.03485e-211 0
2.94415e-28 -1.66813e-208 0
4.07081e-30 -6.7803e-206 0
5.19616e-32 -2.70836e-203 0
6.16707e-34 -1.06269e-200 0
6.84505e-36 -4.094e-198 0
7.13933e-38 -1.54778e-195 0
7.02561e-40 -5.73923e-193 0
6.546e-42 -2.08607e-190 0
5.79244e-44 -7.42783e-188 0
4.88105e-46 -2.58915e-185 0
3.92626e-48 -8.82858e-183 0
3.02132e-50 -2.9425e-180 0
2.22853e-52 -9.57741e-178 0
1.5784e-54 -3.04136e-175 0
1.07523e-56 -9.41264e-173 0
7.05535e-59 -2.83573e-170 0
4.4655e-61 -8.30528e-168 0
2.72967e-63 -2.36124e-165 0
1.61344e-65 -6.50577e-163 0
9.23166e-68 -1.73384e-160 0
5.11842e-70 -4.45995e-158 0
2.75259e-72 -1.10454e-155 0
1.43711e-74 -2.62607e-153 0
7.29041e-77 -5.97337e-151 0
3.59644e-79 -1.29467e-148 0
1.72657e-81 -2.66076e-146 0
8.07222e-84 -5.15413e-144 0
3.67787e-86 -9.34042e-142 0
1.63407e-88 -1.56858e-139 0
7.08409e-91 -2.41087e-137 0
2.99838e-93 -3.3347e-135 0
1.2397e-95 -4.05357e-133 0
5.00961e-98 -4.17904e-131 0
1.97955e-100 -3.44846e-129 0
7.65269e-103 -2.04396e-127 0
2.90636e-105 -6.67129e-126 0
1.04812e-103 -4.22332e-124 0
0 -2.4213e-247 0
3.95579e-07 -1.40482e-244 0
7.68888e-08 -4.48353e-242 0
6.79602e-09 -1.12514e-239 0
3.98866e-10 -1.97977e-237 0
8.56207e-12 -1.96856e-237 0
0 0 0
0 0 0
0 0 0
1.81433e-21 2.60457e-218 0
7.52174e-23 -2.61262e-217 0
2.04859e-24 -1.26307e-214 0
4.4506e-26 -5.45281e-212 0
8.24879e-28 -2.31695e-209 0
1.34896e-29 -9.68649e-207 0
1.98645e-31 -3.98298e-204 0
2.67056e-33 -1.61016e-201 0
3.31072e-35 -6.3969e-199 0
3.81399e-37 -2.49639e-196 0
4.10808e-39 -9.56517e-194 0
4.15803e-41 -3.59654e-191 0
3.9716e-43 -1.32633e-188 0
3.59288e-45 -4.79439e-186 0
3.08805e-47 -1.69766e-183 0
2.52863e-49 -5.88439e-181 0
1.97747e-51 -1.99505e-178 0
1.48015e-53 -6.6107e-176 0
1.0625e-55 -2.13888e-173 0
7.3275e-58 -6.75042e-171 0
4.86285e-60 -2.07586e-168 0
3.11017e-62 -6.21222e-166 0
1.91968e-64 -1.80663e-163 0
1.14492e-66 -5.09784e-161 0
6.60598e-69 -1.39321e-158 0
3.69134e-71 -3.68023e-156 0
1.99968e-73 -9.37422e-154 0
1.05118e-75 -2.29615e-151 0
5.36693e-78 -5.39096e-149 0
2.66358e-80 -1.20852e-146 0
1.28601e-82 -2.57476e-144 0
6.04474e-85 -5.1836e-142 0
2.76806e-87 -9.79099e-140 0
1.23574e-89 -1.71929e-137 0
5.38151e-92 -2.77322e-135 0
2.28753e-94 -4.04247e-133 0
9.4965e-97 -5.20351e-131 0
3.85237e-99 -5.71252e-129 0
1.52786e-101 -5.05239e-127 0
5.92715e-104 -3.23409e-125 0
2.25855e-106 -1.14917e-123 0
7.98417e-105 -7.42474e-122 0
0 -6.07946e-245 0
3.95577e-07 -3.492e-242 0
7.68885e-08 -1.27189e-239 0
6.79601e-09 -3.93742e-237 0
3.99454e-10 -1.02663e-234 0
1.71233e-11 -1.89038e-232 0
2.88376e-13 -1.88016e-232 0
0 0 0
0 0 0
0 0 0
1.10956e-24 -1.2901e-215 0
2.78328e-25 -5.74056e-213 0
1.09056e-26 -2.50513e-210 0
2.75762e-28 -1.0764e-207 0
5.48618e-30 -4.55245e-205 0
9.25549e-32 -1.89448e-202 0
1.37538e-33 -7.75443e-200 0
1.84148e-35 -3.1207e-197 0
2.2549e-37 -1.23428e-194 0
2.55222e-39 -4.79557e-192 0
2.69159e-41 -1.82946e-189 0
2.66141e-43 -6.84917e-187 0
2.47978e-45 -2.51502e-184 0
2.18639e-47 -9.05263e-182 0
1.83057e-49 -3.19192e-179 0
1.45984e-51 -1.1017e-176 0
1.11181e-53 -3.71944e-174 0
8.10538e-56 -1.2272e-171 0
5.66802e-58 -3.95344e-169 0
3.80901e-60 -1.24222e-166 0
2.46402e-62 -3.80265e-164 0
1.5367e-64 -1.13258e-161 0
9.25243e-67 -3.27721e-159 0
5.38515e-69 -9.19753e-157 0
3.0334e-71 -2.49883e-154 0
1.65549e-73 -6.55751e-152 0
8.76254e-76 -1.6579e-149 0
4.50249e-78 -4.02597e-147 0
2.24792e-80 -9.35616e-145 0
1.09137e-82 -2.07171e-142 0
5.15669e-85 -4.3472e-140 0
2.37297e-87 -8.58601e-138 0
1.06424e-89 -1.5823e-135 0
4.65473e-92 -2.68978e-133 0
1.98669e-94 -4.15212e-131 0
8.27943e-97 -5.69176e-129 0
3.37093e-99 -6.69844e-127 0
1.34155e-101 -6.40085e-125 0
5.22151e-104 -4.46811e-123 0
1.9959e-106 -1.74931e-121 0
7.05319e-105 -1.15399e-119 0
0 -1.20399e-242 0
3.46571e-07 -6.84682e-240 0
6.6777e-08 -2.79869e-237 0
5.91673e-09 -1.02526e-234 0
3.48919e-10 -3.39449e-232 0
1.55189e-11 -9.59476e-230 0
5.37598e-13 -1.93043e-227 0
7.07387e-15 -1.92087e-227 0
0 0 0
0 0 0
0 -4.40732e-214 0
1.57384e-23 -1.97825e-211 0
4.74058e-25 -8.72974e-209 0
9.89717e-27 -3.79459e-206 0
1.70705e-28 -1.6242e-203 0
2.57808e-30 -6.84354e-201 0
3.50612e-32 -2.83753e-198 0
4.36497e-34 -1.15734e-195 0
5.02925e-36 -4.6416e-193 0
5.40526e-38 -1.82971e-190 0
5.45185e-40 -7.08619e-188 0
5.18537e-42 -2.69494e-185 0
4.6693e-44 -1.00593e-182 0
3.99412e-46 -3.6832e-180 0
3.25496e-48 -1.32209e-177 0
2.53352e-50 -4.64935e-175 0
1.88768e-52 -1.60068e-172 0
1.34904e-54 -5.39084e-170 0
9.26409e-57 -1.77448e-167 0
6.12304e-59 -5.70339e-165 0
3.90093e-61 -1.78803e-162 0
2.39884e-63 -5.46106e-160 0
1.42565e-65 -1.62274e-157 0
8.19804e-68 -4.68406e-155 0
4.56632e-70 -1.31108e-152 0
2.46614e-72 -3.55128e-150 0
1.29264e-74 -9.28648e-148 0
6.58153e-77 -2.33778e-145 0
3.25783e-79 -5.64649e-143 0
1.56899e-81 -1.30316e-140 0
7.35736e-84 -2.85936e-138 0
3.36153e-86 -5.92695e-136 0
1.49745e-88 -1.15115e-133 0
6.50784e-91 -2.07233e-131 0
2.76089e-93 -3.4069e-129 0
1.14402e-95 -5.0069e-127 0
4.63262e-98 -6.36747e-125 0
1.8342e-100 -6.63829e-123 0
7.10404e-103 -5.11472e-121 0
2.70281e-105 -2.24042e-119 0
9.74738e-104 -1.5097e-117 0
0 -1.70014e-240 0
2.58623e-07 -9.5715e-238 0
4.90889e-08 -4.38243e-235 0
4.37048e-09 -1.88431e-232 0
2.59279e-10 -7.66755e-230 0
1.16009e-11 -2.88897e-227 0
4.16673e-13 -9.55671e-225 0
1.21105e-14 -2.34268e-222 0
1.23459e-16 -2.33316e-222 0
2.68326e-18 0 0
5.3259e-20 -1.01281e-212 0
9.70652e-22 -4.59691e-210 0
1.60816e-23 -2.05212e-207 0
2.44222e-25 -9.02751e-205 0
3.42339e-27 -3.91233e-202 0
4.45564e-29 -1.66984e-199 0
5.4121e-31 -7.01699e-197 0
6.16241e-33 -2.9021e-194 0
6.60331e-35 -1.18088e-191 0
6.68191e-37 -4.72571e-189 0
6.4048e-39 -1.85916e-186 0
5.83148e-41 -7.18725e-184 0
5.05598e-43 -2.729e-181 0
4.18377e-45 -1.01723e-178 0
3.31102e-47 -3.72024e-176 0
2.51078e-49 -1.33413e-173 0
1.82751e-51 -4.68835e-171 0
1.27881e-53 -1.61334e-168 0
8.61578e-56 -5.43219e-166 0
5.59648e-58 -1.78809e-163 0
3.5093e-60 -5.74844e-161 0
2.1268e-62 -1.80295e-158 0
1.24714e-64 -5.51012e-156 0
7.08329e-67 -1.63861e-153 0
3.9004e-69 -4.73405e-151 0
2.08418e-71 -1.32628e-148 0
1.08165e-73 -3.59533e-146 0
5.45655e-76 -9.4067e-144 0
2.67769e-78 -2.36811e-141 0
1.27918e-80 -5.71493e-139 0
5.95287e-83 -1.31602e-136 0
2.70043e-85 -2.87495e-134 0
1.19487e-87 -5.91338e-132 0
5.15993e-90 -1.13377e-129 0
2.17595e-92 -1.99837e-127 0
8.96535e-95 -3.17392e-125 0
3.61096e-97 -4.4045e-123 0
1.42242e-99 -5.07067e-121 0
5.48256e-102 -4.37921e-119 0
2.07629e-104 -2.18992e-117 0
7.6277e-103 -1.50805e-115 0
0 -1.31103e-238 0
1.45296e-07 -7.3065e-236 0
2.713e-08 -3.76778e-233 0
2.43133e-09 -1.916e-230 0
1.45324e-10 -9.62365e-228 0
6.54155e-12 -4.77359e-225 0
2.36321e-13 -2.33793e-222 0
7.12166e-15 -1.13036e-219 0
1.77492e-16 -5.39406e-217 0
3.90832e-18 -2.54004e-214 0
7.79711e-20 -1.18003e-211 0
1.40412e-21 -5.40628e-209 0
2.30369e-23 -2.44247e-206 0
3.47022e-25 -1.08788e-203 0
4.83129e-27 -4.77575e-201 0
6.25166e-29 -2.06581e-198 0
7.55583e-31 -8.80241e-196 0
8.5662e-33 -3.69355e-193 0
9.14446e-35 -1.52572e-190 0
9.22261e-37 -6.20223e-188 0
8.81423e-39 -2.48028e-185 0
8.00434e-41 -9.7536e-183 0
6.92375e-43 -3.77013e-180 0
5.71741e-45 -1.43179e-177 0
4.51628e-47 -5.33975e-175 0
3.41896e-49 -1.95457e-172 0
2.48475e-51 -7.01811e-170 0
1.73632e-53 -2.47032e-167 0
1.16835e-55 -8.51822e-165 0
7.58049e-58 -2.87525e-162 0
4.74845e-60 -9.49208e-160 0
2.87505e-62 -3.06191e-157 0
1.68445e-64 -9.64058e-155 0
9.55945e-67 -2.95911e-152 0
5.26008e-69 -8.84217e-150 0
2.80886e-71 -2.56798e-147 0
1.45686e-73 -7.23498e-145 0
7.34521e-76 -1.97297e-142 0
3.60267e-78 -5.19361e-140 0
1.72024e-80 -1.3154e-137 0
8.00201e-83 -3.19236e-135 0
3.62856e-85 -7.38559e-133 0
1.60496e-87 -1.61791e-130 0
6.92856e-90 -3.32585e-128 0
2.92089e-92 -6.33551e-126 0
1.20313e-94 -1.09809e-123 0
4.8446e-97 -1.68305e-121 0
1.90793e-99 -2.17288e-119 0
7.35236e-102 -2.14647e-117 0
2.78387e-104 -1.25983e-115 0
1.02525e-102 -8.87027e-114 0
0 0 0
4.19228e-08 0 0
7.72765e-09 0 0
6.96996e-10 0 0
4.19455e-11 0 0
1.89829e-12 0 0
6.88707e-14 0 0
2.08508e-15 0 0
5.40333e-17 0 0
1.22507e-18 0 0
2.47121e-20 0 0
4.48974e-22 0 0
7.41973e-24 0 0
1.12449e-25 0 0
1.57364e-27 0 0
2.04541e-29 0 0
2.48182e-31 0 0
2.82349e-33 0 0
3.02351e-35 0 0
3.05796e-37 0 0
2.93007e-39 0 0
2.66713e-41 0 0
2.31211e-43 0 0
1.91314e-45 0 0
1.51408e-47 0 0
1.14825e-49 0 0
8.35894e-52 0 0
5.85043e-54 0 0
3.94261e-56 0 0
2.56171e-58 0 0
1.60686e-60 0 0
9.74184e-63 0 0
5.71476e-65 0 0
3.24711e-67 0 0
1.7888e-69 0 0
9.56281e-72 0 0
4.96527e-74 0 0
2.50603e-76 0 0
1.2304e-78 0 0
5.88085e-81 0 0
2.7382e-83 0 0
1.24281e-85 0 0
5.50205e-88 0 0
2.37731e-90 0 0
1.00307e-92 0 0
4.13514e-95 0 0
1.66644e-97 0 0
6.56806e-100 0 0
2.53302e-102 0 0
9.59822e-105 0 0
3.5357e-103 0 0
0 0 -2.64623e-245
5.43711e-08 0 -1.53528e-242
1.00169e-08 0 -6.46581e-240
9.04207e-10 0 -2.35655e-237
5.44616e-11 0 -7.59526e-235
2.46516e-12 0 -2.01699e-232
8.94202e-14 0 -3.53173e-230
2.70653e-15 0 -2.66037e-232
7.02852e-17 0 -2.86332e-230
1.59821e-18 0 -1.24884e-227
3.23204e-20 0 -5.35647e-225
5.88476e-22 0 -2.25981e-222
9.74334e-24 0 -9.37457e-220
1.47905e-25 0 -3.82254e-217
2.07277e-27 0 -1.53141e-214
2.69756e-29 0 -6.02523e-212
3.27676e-31 0 -2.327e-209
3.73159e-33 0 -8.81741e-207
3.99951e-35 0 -3.27622e-204
4.04836e-37 0 -1.193e-201
3.8819e-39 0 -4.25478e-199
3.53591e-41 0 -1.48522e-196
3.06712e-43 0 -5.07077e-194
2.5393e-45 0 -1.69194e-191
2.01068e-47 0 -5.51264e-189
1.52559e-49 0 -1.75225e-186
1.11108e-51 0 -5.42825e-184
7.77972e-54 0 -1.63708e-181
5.24479e-56 0 -4.80063e-179
3.40904e-58 0 -1.36697e-176
2.13908e-60 0 -3.77401e-174
1.29726e-62 0 -1.00855e-171
7.61227e-65 0 -2.60392e-169
4.32649e-67 0 -6.48131e-167
2.38405e-69 0 -1.55147e-164
1.27481e-71 0 -3.56168e-162
6.62074e-74 0 -7.81599e-160
3.3423e-76 0 -1.63335e-157
1.64134e-78 0 -3.23582e-155
7.84653e-81 0 -6.0444e-153
3.65412e-83 0 -1.05762e-150
1.65882e-85 0 -1.71939e-148
7.34502e-88 0 -2.57049e-146
3.17412e-90 0 -3.48695e-144
1.33947e-92 0 -4.21582e-142
5.52274e-95 0 -4.43044e-140
2.22592e-97 0 -3.89981e-138
8.77432e-100 0 -2.70871e-136
3.38428e-102 0 -1.32996e-134
1.28253e-104 0 -3.54024e-133
4.70048e-103 0 -2.11293e-131
0.0036 -8.16007e-244 -1.06014e-243
0.000859069 -3.76552e-239 -3.85274e-239
7.96362e-05 -2.19042e-236 -2.1792e-236
4.73424e-06 -9.70279e-234 -9.59228e-234
2.12137e-07 -3.90891e-231 -3.85052e-231
7.63063e-09 -1.38222e-228 -1.35839e-228
2.29439e-10 -3.62305e-226 -3.55646e-226
5.92735e-12 -1.49611e-228 -1.47231e-228
1.34226e-13 -5.26897e-227 -5.26926e-227
2.70549e-15 -2.34768e-224 -2.3477e-224
4.91289e-17 -1.02645e-221 -1.02645e-221
8.11652e-19 -4.41447e-219 -4.41447e-219
1.22989e-20 -1.86753e-216 -1.86753e-216
1.72106e-22 -7.76889e-214 -7.76889e-214
2.23711e-24 -3.17669e-211 -3.17669e-211
2.71471e-26 -1.27624e-208 -1.27624e-208
3.08895e-28 -5.0354e-206 -5.0354e-206
3.30846e-30 -1.95016e-203 -1.95016e-203
3.347e-32 -7.41e-201 -7.41e-201
3.20793e-34 -2.76081e-198 -2.76081e-198
2.92096e-36 -1.00802e-195 -1.00802e-195
2.533e-38 -3.60443e-193 -3.60443e-193
2.09666e-40 -1.26137e-190 -1.26137e-190
1.65995e-42 -4.31681e-188 -4.31681e-188
1.25936e-44 -1.44359e-185 -1.44359e-185
9.17155e-47 -4.7131e-183 -4.7131e-183
6.42188e-49 -1.50082e-180 -1.50082e-180
4.32958e-51 -4.65641e-178 -4.65641e-178
2.81439e-53 -1.40594e-175 -1.40594e-175
1.76616e-55 -4.12583e-173 -4.12583e-173
1.07126e-57 -1.17506e-170 -1.17506e-170
6.28718e-60 -3.24277e-168 -3.24277e-168
3.57408e-62 -8.65533e-166 -8.65533e-166
1.96988e-64 -2.22983e-163 -2.22983e-163
1.05361e-66 -5.5317e-161 -5.5317e-161
5.47337e-69 -1.31786e-158 -1.31786e-158
2.76387e-71 -3.00564e-156 -3.00564e-156
1.3577e-73 -6.53828e-154 -6.53828e-154
6.49265e-76 -1.35068e-151 -1.35068e-151
3.02465e-78 -2.63584e-149 -2.63584e-149
1.37355e-80 -4.82823e-147 -4.82823e-147
6.08414e-83 -8.23579e-145 -8.23579e-145
2.63024e-85 -1.29508e-142 -1.29508e-142
1.11039e-87 -1.85297e-140 -1.85297e-140
4.58012e-90 -2.37012e-138 -2.37012e-138
1.84678e-92 -2.64411e-136 -2.64411e-136
7.28296e-95 -2.48014e-134 -2.48014e-134
2.81031e-97 -1.84348e-132 -1.84348e-132
1.06158e-99 -9.73115e-131 -9.73115e-131
3.94143e-102 -2.79618e-129 -2.79618e-129
3.83816e-102 -5.317e-129 -5.317e-129
0.01 3.78501e-242 7.07183e-242
0.00251555 -2.94164e-237 -2.84842e-237
0.000233556 -2.35146e-234 -2.36829e-234
1.35721e-05 -1.30078e-231 -1.29828e-231
5.9809e-07 -6.91069e-229 -6.83537e-229
2.06852e-08 -3.62303e-226 -3.56321e-226
6.05282e-10 -1.87699e-223 -1.84209e-223
1.53285e-11 -3.70743e-226 -3.6478e-226
3.41952e-13 -4.47828e-225 -4.47966e-225
6.81226e-15 -2.04756e-222 -2.04765e-222
1.22546e-16 -9.05395e-220 -9.05399e-220
2.00896e-18 -3.93187e-217 -3.93187e-217
3.02445e-20 -1.67984e-214 -1.67984e-214
4.20888e-22 -7.05957e-212 -7.05957e-212
5.44464e-24 -2.9172e-209 -2.9172e-209
6.5792e-26 -1.18482e-206 -1.18482e-206
7.45821e-28 -4.72769e-204 -4.72769e-204
7.96147e-30 -1.85249e-201 -1.85249e-201
8.02981e-32 -7.12453e-199 -7.12453e-199
7.67494e-34 -2.68796e-196 -2.68796e-196
6.97069e-36 -9.9428e-194 -9.9428e-194
6.03072e-38 -3.6037e-191 -3.6037e-191
4.98104e-40 -1.27896e-188 -1.27896e-188
3.93558e-42 -4.44141e-186 -4.44141e-186
2.98017e-44 -1.50802e-183 -1.50802e-183
2.1665e-46 -5.00208e-181 -5.00208e-181
1.51443e-48 -1.61937e-178 -1.61937e-178
1.01939e-50 -5.11159e-176 -5.11159e-176
6.6164e-53 -1.57143e-173 -1.57143e-173
4.14611e-55 -4.69916e-171 -4.69916e-171
2.51135e-57 -1.36501e-168 -1.36501e-168
1.47196e-59 -3.84565e-166 -3.84565e-166
8.35711e-62 -1.04897e-163 -1.04897e-163
4.6005e-64 -2.76476e-161 -2.76476e-161
2.45775e-66 -7.02541e-159 -7.02541e-159
1.27534e-68 -1.71662e-156 -1.71662e-156
6.43305e-71 -4.02117e-154 -4.02117e-154
3.15679e-73 -8.99833e-152 -8.99833e-152
1.50808e-75 -1.91544e-149 -1.91544e-149
7.0186e-78 -3.85893e-147 -3.85893e-147
3.18425e-80 -7.31241e-145 -7.31241e-145
1.40916e-82 -1.29329e-142 -1.29329e-142
6.0865e-85 -2.11402e-140 -2.11402e-140
2.56727e-87 -3.15314e-138 -3.15314e-138
1.05804e-89 -4.21795e-136 -4.21795e-136
4.26272e-92 -4.93908e-134 -4.93908e-134
1.6797e-94 -4.88279e-132 -4.88279e-132
6.47648e-97 -3.84327e-130 -3.84327e-130
2.44459e-99 -2.15964e-128 -2.15964e-128
9.06959e-102 -6.63992e-127 -6.63992e-127
8.83277e-102 -1.26581e-126 -1.26581e-126
0.0148 6.63854e-244 9.39486e-241
0.00427184 -1.86986e-239 -1.65494e-236
0.000409007 -1.2891e-236 -1.54408e-233
2.34831e-05 -4.84728e-234 -6.21269e-231
1.02253e-06 -1.30296e-231 -1.97555e-228
1.38618e-08 -1.29813e-231 -3.56258e-226
4.00766e-10 0 -1.83854e-223
1.00576e-11 9.60845e-221 9.40925e-221
2.27182e-13 -3.00602e-223 -3.01249e-223
4.5703e-15 -1.55793e-220 -1.55834e-220
8.28624e-17 -7.0472e-218 -7.04738e-218
1.36714e-18 -3.09439e-215 -3.09439e-215
2.06917e-20 -1.33557e-212 -1.33557e-212
2.89236e-22 -5.67216e-210 -5.67216e-210
3.75577e-24 -2.36955e-207 -2.36955e-207
4.55315e-26 -9.73302e-205 -9.73302e-205
5.17593e-28 -3.9293e-202 -3.9293e-202
5.53862e-30 -1.55839e-199 -1.55839e-199
5.59803e-32 -6.06912e-197 -6.06912e-197
5.3606e-34 -2.31978e-194 -2.31978e-194
4.8767e-36 -8.69771e-192 -8.69771e-192
4.22522e-38 -3.19703e-189 -3.19703e-189
3.49428e-40 -1.15133e-186 -1.15133e-186
2.76403e-42 -4.05948e-184 -4.05948e-184
2.09516e-44 -1.40036e-181 -1.40036e-181
1.5245e-46 -4.72233e-179 -4.72233e-179
1.06652e-48 -1.55539e-176 -1.55539e-176
7.18412e-51 -4.99889e-174 -4.99889e-174
4.66591e-53 -1.566e-171 -1.566e-171
2.92554e-55 -4.77624e-169 -4.77624e-169
1.77295e-57 -1.41639e-166 -1.41639e-166
1.03965e-59 -4.07796e-164 -4.07796e-164
5.90504e-62 -1.138e-161 -1.138e-161
3.25185e-64 -3.07233e-159 -3.07233e-159
1.73781e-66 -8.00713e-157 -8.00713e-157
9.02016e-69 -2.00951e-154 -2.00951e-154
4.5511e-71 -4.84231e-152 -4.84231e-152
2.23378e-73 -1.11656e-149 -1.11656e-149
1.06734e-75 -2.45371e-147 -2.45371e-147
4.96825e-78 -5.11387e-145 -5.11387e-145
2.25435e-80 -1.00477e-142 -1.00477e-142
9.97767e-83 -1.84727e-140 -1.84727e-140
4.31004e-85 -3.14786e-138 -3.14786e-138
1.81812e-87 -4.91041e-136 -4.91041e-136
7.49348e-90 -6.89494e-134 -6.89494e-134
3.01918e-92 -8.51013e-132 -8.51013e-132
1.18974e-94 -8.91038e-130 -8.91038e-130
4.58744e-97 -7.46891e-128 -7.46891e-128
1.73158e-99 -4.49772e-126 -4.49772e-126
6.42431e-102 -1.49143e-124 -1.49143e-124
6.25631e-102 -2.85069e-124 -2.85069e-124
0.018 3.5463e-246 1.20193e-238
0.00570251 -7.62479e-242 -1.40446e-234
0.00056115 -4.68127e-239 -2.29384e-231
3.19614e-05 -1.34258e-236 -1.29216e-228
1.3788e-06 -2.43604e-234 -6.71797e-226
0 -2.42266e-234 -6.70507e-226
0 0 0
0 0 9.40928e-221
4.37095e-15 -4.87861e-218 -4.7763e-218
1.58489e-16 -9.31025e-219 -9.33003e-219
3.90289e-18 -4.71038e-216 -4.71133e-216
7.83434e-20 -2.10882e-213 -2.10882e-213
1.36213e-21 -9.19817e-211 -9.19817e-211
2.11304e-23 -3.94925e-208 -3.94925e-208
2.97666e-25 -1.6685e-205 -1.6685e-205
3.8534e-27 -6.93392e-203 -6.93392e-203
4.62396e-29 -2.83335e-200 -2.83335e-200
5.17784e-31 -1.13792e-197 -1.13792e-197
5.4398e-33 -4.48967e-195 -4.48967e-195
5.38583e-35 -1.73943e-192 -1.73943e-192
5.04426e-37 -6.61404e-190 -6.61404e-190
4.48363e-39 -2.46692e-187 -2.46692e-187
3.79304e-41 -9.02014e-185 -9.02014e-185
3.06169e-43 -3.23121e-182 -3.23121e-182
2.36336e-45 -1.1332e-179 -1.1332e-179
1.74811e-47 -3.88789e-177 -3.88789e-177
1.24129e-49 -1.30383e-174 -1.30383e-174
8.47565e-52 -4.27008e-172 -4.27008e-172
5.57349e-54 -1.36434e-169 -1.36434e-169
3.53466e-56 -4.24812e-167 -4.24812e-167
2.16471e-58 -1.28742e-164 -1.28742e-164
1.28175e-60 -3.79216e-162 -3.79216e-162
7.34593e-63 -1.08397e-159 -1.08397e-159
4.07927e-65 -3.00149e-157 -3.00149e-157
2.19702e-67 -8.03448e-155 -8.03448e-155
1.14868e-69 -2.07423e-152 -2.07423e-152
5.83513e-72 -5.1504e-150 -5.1504e-150
2.8823e-74 -1.22604e-147 -1.22604e-147
1.38547e-76 -2.78725e-145 -2.78725e-145
6.48537e-79 -6.0232e-143 -6.0232e-143
2.95835e-81 -1.2302e-140 -1.2302e-140
1.3159e-83 -2.35786e-138 -2.35786e-138
5.7111e-86 -4.20222e-136 -4.20222e-136
2.41988e-88 -6.88093e-134 -6.88093e-134
1.00158e-90 -1.01845e-131 -1.01845e-131
4.05159e-93 -1.33143e-129 -1.33143e-129
1.60263e-95 -1.48484e-127 -1.48484e-127
6.20176e-98 -1.33436e-125 -1.33436e-125
2.34895e-100 -8.68031e-124 -8.68031e-124
8.74326e-103 -3.13452e-122 -3.13452e-122
8.51047e-103 -6.00764e-122 -6.00764e-122
0.0196 3.04996e-246 1.0437e-239
0.00650038 -6.52052e-242 -2.24365e-235
0.000649649 -3.48988e-239 -2.84073e-233
3.68538e-05 -9.22395e-237 -5.35516e-231
1.58363e-06 -1.65512e-234 -1.30792e-228
2.71234e-08 -1.64593e-234 3.43194e-223
0 0 3.43195e-223
0 0 0
0 0 -4.77627e-218
2.52813e-18 2.4461e-215 2.39324e-215
9.5764e-20 -2.45225e-214 -2.45708e-214
2.40186e-21 -1.21036e-211 -1.21036e-211
4.83575e-23 -5.33709e-209 -5.33709e-209
8.35086e-25 -2.31746e-206 -2.31746e-206
1.27841e-26 -9.90592e-204 -9.90592e-204
1.76955e-28 -4.16678e-201 -4.16678e-201
2.24428e-30 -1.72413e-198 -1.72413e-198
2.63325e-32 -7.01511e-196 -7.01511e-196
2.8794e-34 -2.8055e-193 -2.8055e-193
2.95153e-36 -1.10231e-190 -1.10231e-190
2.84976e-38 -4.25314e-188 -4.25314e-188
2.60216e-40 -1.61065e-185 -1.61065e-185
2.25482e-42 -5.98331e-183 -5.98331e-183
1.85967e-44 -2.17905e-180 -2.17905e-180
1.46367e-46 -7.77497e-178 -7.77497e-178
1.10189e-48 -2.71598e-175 -2.71598e-175
7.95095e-51 -9.28146e-173 -9.28146e-173
5.50936e-53 -3.10026e-170 -3.10026e-170
3.67214e-55 -1.01126e-167 -1.01126e-167
2.358e-57 -3.21784e-165 -3.21784e-165
1.46081e-59 -9.9769e-163 -9.9769e-163
8.74238e-62 -3.01018e-160 -3.01018e-160
5.06035e-64 -8.82508e-158 -8.82508e-158
2.83615e-66 -2.50986e-155 -2.50986e-155
1.54074e-68 -6.91123e-153 -6.91123e-153
8.12089e-71 -1.83856e-150 -1.83856e-150
4.15666e-73 -4.713e-148 -4.713e-148
2.06787e-75 -1.16063e-145 -1.16063e-145
1.00066e-77 -2.73584e-143 -2.73584e-143
4.71374e-80 -6.14579e-141 -6.14579e-141
2.16305e-82 -1.3086e-138 -1.3086e-138
9.67572e-85 -2.62319e-136 -2.62319e-136
4.22175e-87 -4.90755e-134 -4.90755e-134
1.79787e-89 -8.47083e-132 -8.47083e-132
7.477e-92 -1.32805e-129 -1.32805e-129
3.03836e-94 -1.84939e-127 -1.84939e-127
1.20704e-96 -2.21154e-125 -2.21154e-125
4.69014e-99 -2.14783e-123 -2.14783e-123
1.78337e-101 -1.52411e-121 -1.52411e-121
6.66294e-104 -6.06595e-120 -6.06595e-120
6.48201e-104 -1.1659e-119 -1.1659e-119
0.0196 6.52543e-244 9.44615e-240
0.00650037 -1.82314e-239 -2.12808e-235
0.000649648 -1.01317e-236 -1.53982e-233
3.68538e-05 -3.2874e-234 -4.34257e-232
1.58517e-06 -8.74222e-232 -1.15685e-230
5.39129e-08 -1.64009e-229 -2.00934e-229
7.51506e-10 -1.63138e-229 -1.74206e-220
0 0 -1.74206e-220
0 0 0
0 0 2.39416e-215
1.30334e-21 -1.23636e-212 -1.234e-212
3.22155e-22 -5.61869e-210 -5.61869e-210
1.17537e-23 -2.50566e-207 -2.50566e-207
2.77472e-25 -1.10078e-204 -1.10078e-204
5.17359e-27 -4.76249e-202 -4.76249e-202
8.21073e-29 -2.02856e-199 -2.02856e-199
1.15174e-30 -8.50377e-197 -8.50377e-197
1.46013e-32 -3.50708e-194 -3.50708e-194
1.69771e-34 -1.4224e-191 -1.4224e-191
1.82925e-36 -5.67103e-189 -5.67103e-189
1.84072e-38 -2.22163e-186 -2.22163e-186
1.74032e-40 -8.54759e-184 -8.54759e-184
1.55351e-42 -3.22817e-181 -3.22817e-181
1.31456e-44 -1.19611e-178 -1.19611e-178
1.05804e-46 -4.34534e-176 -4.34534e-176
8.12353e-49 -1.54679e-173 -1.54679e-173
5.9649e-51 -5.39123e-171 -5.39123e-171
4.19803e-53 -1.83844e-168 -1.83844e-168
2.83748e-55 -6.12833e-166 -6.12833e-166
1.84517e-57 -1.99503e-163 -1.99503e-163
1.15626e-59 -6.33592e-161 -6.33592e-161
6.99228e-62 -1.96066e-158 -1.96066e-158
4.08612e-64 -5.90391e-156 -5.90391e-156
2.31028e-66 -1.72725e-153 -1.72725e-153
1.26523e-68 -4.901e-151 -4.901e-151
6.71864e-71 -1.34599e-148 -1.34599e-148
3.46278e-73 -3.56939e-146 -3.56939e-146
1.73378e-75 -9.11419e-144 -9.11419e-144
8.44035e-78 -2.23333e-141 -2.23333e-141
3.99823e-80 -5.23024e-139 -5.23024e-139
1.84435e-82 -1.16476e-136 -1.16476e-136
8.29076e-85 -2.45097e-134 -2.45097e-134
3.63421e-87 -4.83364e-132 -4.83364e-132
1.5544e-89 -8.83774e-130 -8.83774e-130
6.49104e-92 -1.47599e-127 -1.47599e-127
2.64795e-94 -2.20416e-125 -2.20416e-125
1.05581e-96 -2.84903e-123 -2.84903e-123
4.11679e-99 -3.01959e-121 -3.01959e-121
1.57054e-101 -2.36576e-119 -2.36576e-119
5.88623e-104 -1.05381e-117 -1.05381e-117
5.72634e-104 -2.03143e-117 -2.03143e-117
0.018 5.46473e-242 -6.68144e-240
0.00570234 -4.16248e-237 5.99349e-235
0.000561123 -2.2889e-234 3.84027e-233
3.19596e-05 -8.72134e-232 2.40672e-232
1.3809e-06 -2.94505e-229 -2.71809e-229
4.84774e-08 -8.48459e-227 -8.44691e-227
1.39354e-09 -1.7405e-224 -1.74011e-224
1.56315e-11 -1.73205e-224 8.73536e-218
0 0 8.73536e-218
0 0 0
0 -4.3139e-211 -4.31323e-211
1.99772e-20 -1.97864e-208 -1.97864e-208
5.5443e-22 -8.9273e-206 -8.9273e-206
1.07311e-23 -3.96962e-203 -3.96962e-203
1.72507e-25 -1.73913e-200 -1.73913e-200
2.43946e-27 -7.50477e-198 -7.50477e-198
3.11909e-29 -3.18882e-195 -3.18882e-195
3.66394e-31 -1.33372e-192 -1.33372e-192
3.99603e-33 -5.48888e-190 -5.48888e-190
4.07707e-35 -2.22191e-187 -2.22191e-187
3.91389e-37 -8.8433e-185 -8.8433e-185
3.55138e-39 -3.45907e-182 -3.45907e-182
3.05739e-41 -1.3291e-179 -1.3291e-179
2.50525e-43 -5.0141e-177 -5.0141e-177
1.95923e-45 -1.85621e-174 -1.85621e-174
1.46585e-47 -6.73908e-172 -6.73908e-172
1.05144e-49 -2.39792e-169 -2.39792e-169
7.24414e-52 -8.35643e-167 -8.35643e-167
4.80217e-54 -2.84983e-164 -2.84983e-164
3.06767e-56 -9.50288e-162 -9.50288e-162
1.89109e-58 -3.09535e-159 -3.09535e-159
1.12645e-60 -9.83812e-157 -9.83812e-157
6.49119e-63 -3.04743e-154 -3.04743e-154
3.62271e-65 -9.18697e-152 -9.18697e-152
1.96014e-67 -2.69114e-149 -2.69114e-149
1.0292e-69 -7.64586e-147 -7.64586e-147
5.24883e-72 -2.10235e-144 -2.10235e-144
2.6022e-74 -5.58043e-142 -5.58043e-142
1.2551e-76 -1.42556e-139 -1.42556e-139
5.89384e-79 -3.49174e-137 -3.49174e-137
2.69654e-81 -8.16277e-135 -8.16277e-135
1.2028e-83 -1.8107e-132 -1.8107e-132
5.23394e-86 -3.78264e-130 -3.78264e-130
2.22319e-88 -7.36768e-128 -7.36768e-128
9.22316e-91 -1.31959e-125 -1.31959e-125
3.73917e-93 -2.13021e-123 -2.13021e-123
1.48213e-95 -3.00539e-121 -3.00539e-121
5.74677e-98 -3.51849e-119 -3.51849e-119
2.18069e-100 -3.09084e-117 -3.09084e-117
8.13148e-103 -1.57233e-115 -1.57233e-115
7.91499e-103 -3.04025e-115 -3.04025e-115
0.0148 -1.47242e-239 -3.82641e-239
0.00426806 -6.84079e-235 -1.41536e-234
0.000408465 -3.68734e-232 -4.1508e-232
2.3446e-05 -1.63388e-229 -1.64702e-229
1.02141e-06 -6.78035e-227 -6.78315e-227
3.60988e-08 -2.60485e-224 -2.6049e-224
1.07166e-09 -8.78938e-222 -8.78939e-222
2.66481e-11 -2.19864e-219 -2.19864e-219
2.36646e-13 -2.18988e-219 -4.32684e-215
4.57226e-15 0 -2.06779e-212
8.14954e-17 -1.01303e-209 -1.01509e-209
1.3456e-18 -4.70083e-207 -4.70083e-207
2.03786e-20 -2.14673e-204 -2.14673e-204
2.85014e-22 -9.66608e-202 -9.66608e-202