# vtk DataFile Version 2.0
Tobias Weinzierl: CPU, Manycore and Cluster Computing
ASCII

DATASET STRUCTURED_POINTS
DIMENSIONS  51 11 6

ORIGIN 0 0 0 

SPACING 0.1 0.1 0.1 

POINT_DATA 3366

VECTORS velocity float
0 0 0
1.61045e-08 0 0
1.48609e-08 0 0
6.15651e-09 0 0
1.61352e-09 0 0
3.10199e-10 0 0
4.79572e-11 0 0
6.25715e-12 0 0
7.09003e-13 0 0
7.11074e-14 0 0
6.39961e-15 0 0
5.22369e-16 0 0
3.90035e-17 0 0
2.68299e-18 0 0
1.71058e-19 0 0
1.01609e-20 0 0
5.64868e-22 0 0
2.9507e-23 0 0
1.45345e-24 0 0
6.77249e-26 0 0
2.99367e-27 0 0
1.25858e-28 0 0
5.04429e-30 0 0
1.93144e-31 0 0
7.07903e-33 0 0
2.48803e-34 0 0
8.39936e-36 0 0
2.72777e-37 0 0
8.53413e-39 0 0
2.57556e-40 0 0
7.50722e-42 0 0
2.11583e-43 0 0
5.77227e-45 0 0
1.52585e-46 0 0
3.91194e-48 0 0
9.73585e-50 0 0
2.3541e-51 0 0
5.53464e-53 0 0
1.26618e-54 0 0
2.82071e-56 0 0
6.12305e-58 0 0
1.296e-59 0 0
2.67632e-61 0 0
5.39536e-63 0 0
1.06241e-64 0 0
2.04451e-66 0 0
3.84707e-68 0 0
7.08149e-70 0 0
1.27579e-71 0 0
2.2894e-73 0 0
4.08777e-71 0 0
0 -1.49335e-176 0
7.39945e-08 -1.75303e-174 0
7.55886e-08 -2.09052e-172 0
3.18566e-08 -2.13568e-170 0
8.14663e-09 -1.85526e-168 0
1.48187e-09 -1.37596e-166 0
2.18805e-10 -7.52102e-165 0
2.75834e-11 -4.30279e-166 0
3.04833e-12 -2.82166e-164 0
3.00188e-13 -2.62099e-162 0
2.66529e-14 -2.3893e-160 0
2.15337e-15 -2.14282e-158 0
1.59523e-16 -1.89066e-156 0
1.09059e-17 -1.64058e-154 0
6.91914e-19 -1.39947e-152 0
4.09372e-20 -1.17305e-150 0
2.26844e-21 -9.65736e-149 0
1.18178e-22 -7.80493e-147 0
5.80815e-24 -6.18898e-145 0
2.70122e-25 -4.8124e-143 0
1.19209e-26 -3.66717e-141 0
5.00476e-28 -2.7368e-139 0
2.00343e-29 -1.99888e-137 0
7.66297e-31 -1.42769e-135 0
2.80599e-32 -9.96363e-134 0
9.85398e-34 -6.78806e-132 0
3.32418e-35 -4.51011e-130 0
1.07886e-36 -2.91923e-128 0
3.37335e-38 -1.83852e-126 0
1.01753e-39 -1.12514e-124 0
2.96446e-41 -6.68104e-123 0
8.35143e-43 -3.8429e-121 0
2.27748e-44 -2.13719e-119 0
6.01817e-46 -1.14678e-117 0
1.54241e-47 -5.92282e-116 0
3.83752e-49 -2.93619e-114 0
9.27639e-51 -1.3927e-112 0
2.18038e-52 -6.2968e-111 0
4.98695e-54 -2.70176e-109 0
1.11071e-55 -1.09428e-107 0
2.41057e-57 -4.15682e-106 0
5.10121e-59 -1.46919e-104 0
1.05324e-60 -4.78302e-103 0
2.12293e-62 -1.41573e-101 0
4.17966e-64 -3.7443e-100 0
8.04214e-66 -8.6381e-99 0
1.51304e-67 -1.67819e-97 0
2.78476e-69 -2.59749e-96 0
5.01636e-71 -2.90364e-95 0
9.00076e-73 -1.89313e-94 0
1.6154e-70 -4.87607e-92 0
0 -2.48453e-175 0
1.64674e-07 -2.88105e-173 0
2.02066e-07 -4.37411e-171 0
9.01217e-08 -5.85659e-169 0
2.23765e-08 -6.81777e-167 0
3.42028e-09 -7.5149e-165 0
4.52804e-10 -8.11612e-163 0
5.31097e-11 -1.20554e-164 0
5.60602e-12 -5.01746e-163 0
5.35584e-13 -4.78323e-161 0
4.65808e-14 -4.41024e-159 0
3.70926e-15 -3.99409e-157 0
2.71932e-16 -3.55909e-155 0
1.84485e-17 -3.12e-153 0
1.16372e-18 -2.68963e-151 0
6.85484e-20 -2.27914e-149 0
3.78545e-21 -1.89755e-147 0
1.96679e-22 -1.5515e-145 0
9.64543e-24 -1.24516e-143 0
4.47806e-25 -9.8034e-142 0
1.97345e-26 -7.56746e-140 0
8.27552e-28 -5.72364e-138 0
3.30955e-29 -4.23883e-136 0
1.26486e-30 -3.07151e-134 0
4.62848e-32 -2.17591e-132 0
1.62449e-33 -1.50569e-130 0
5.47746e-35 -1.01676e-128 0
1.77696e-36 -6.69324e-127 0
5.55419e-38 -4.2903e-125 0
1.67483e-39 -2.67434e-123 0
4.87815e-41 -1.61883e-121 0
1.37395e-42 -9.50061e-120 0
3.74607e-44 -5.39618e-118 0
9.8971e-46 -2.9602e-116 0
2.53616e-47 -1.56476e-114 0
6.30908e-49 -7.94883e-113 0
1.5249e-50 -3.86851e-111 0
3.58383e-52 -1.79716e-109 0
8.19613e-54 -7.93537e-108 0
1.82531e-55 -3.31311e-106 0
3.96115e-57 -1.29975e-104 0
8.38194e-59 -4.75392e-103 0
1.7305e-60 -1.6052e-101 0
3.48783e-62 -4.94013e-100 0
6.86653e-64 -1.36225e-98 0
1.32114e-65 -3.28662e-97 0
2.48547e-67 -6.69976e-96 0
4.57433e-69 -1.09189e-94 0
8.23972e-71 -1.28928e-93 0
1.47839e-72 -8.87878e-93 0
2.66288e-70 -2.34569e-90 0
0 -7.43764e-177 0
2.46175e-07 -8.69901e-175 0
3.84539e-07 -1.05842e-172 0
1.90002e-07 -1.02391e-170 0
4.61306e-08 -6.15982e-169 0
2.2486e-09 -6.05848e-169 0
2.81956e-10 0 0
3.17835e-11 8.6584e-161 0
3.55349e-12 -7.03373e-162 0
3.54432e-13 -7.60321e-160 0
3.1868e-14 -7.17253e-158 0
2.60537e-15 -6.56839e-156 0
1.95113e-16 -5.9132e-154 0
1.34709e-17 -5.23871e-152 0
8.62275e-19 -4.56562e-150 0
5.14263e-20 -3.91267e-148 0
2.87029e-21 -3.29577e-146 0
1.5051e-22 -2.72743e-144 0
7.44092e-24 -2.21641e-142 0
3.47916e-25 -1.76775e-140 0
1.54292e-26 -1.38299e-138 0
6.50656e-28 -1.06068e-136 0
2.61527e-29 -7.96953e-135 0
1.00408e-30 -5.86217e-133 0
3.68941e-32 -4.21821e-131 0
1.29978e-33 -2.96675e-129 0
4.3977e-35 -2.03759e-127 0
1.43119e-36 -1.36523e-125 0
4.48643e-38 -8.91377e-124 0
1.35649e-39 -5.66441e-122 0
3.9608e-41 -3.49859e-120 0
1.11815e-42 -2.09706e-118 0
3.05521e-44 -1.21776e-116 0
8.08808e-46 -6.83745e-115 0
2.07649e-47 -3.70374e-113 0
5.17468e-49 -1.93057e-111 0
1.25278e-50 -9.65451e-110 0
2.94887e-52 -4.61586e-108 0
6.75387e-54 -2.10109e-106 0
1.50619e-55 -9.06013e-105 0
3.27288e-57 -3.67849e-103 0
6.93409e-59 -1.39559e-101 0
1.43326e-60 -4.90028e-100 0
2.89194e-62 -1.57265e-98 0
5.69939e-64 -4.53631e-97 0
1.09767e-65 -1.14884e-95 0
2.06703e-67 -2.46775e-94 0
3.80769e-69 -4.25544e-93 0
6.8647e-71 -5.33741e-92 0
1.23271e-72 -3.90719e-91 0
2.21362e-70 -1.05958e-88 0
0 -1.42728e-178 0
2.86708e-07 -1.68426e-176 0
5.67105e-07 -1.71081e-174 0
3.14536e-07 -1.33456e-172 0
7.61729e-08 -5.55956e-171 0
0 -5.42779e-171 0
0 0 0
0 0 0
2.86803e-13 -9.30888e-159 0
5.15085e-14 -9.49653e-159 0
6.17243e-15 -1.00236e-156 0
6.0194e-16 -9.36016e-155 0
5.08562e-17 -8.51584e-153 0
3.83446e-18 -7.62711e-151 0
2.62528e-19 -6.72241e-149 0
1.6512e-20 -5.82846e-147 0
9.62158e-22 -4.96901e-145 0
5.22833e-23 -4.16373e-143 0
2.66344e-24 -3.42761e-141 0
1.27761e-25 -2.77064e-139 0
5.79241e-27 -2.19794e-137 0
2.4902e-28 -1.71021e-135 0
1.01803e-29 -1.3044e-133 0
3.96772e-31 -9.74566e-132 0
1.47762e-32 -7.12743e-130 0
5.26881e-34 -5.09838e-128 0
1.8022e-35 -3.56395e-126 0
5.92338e-37 -2.4323e-124 0
1.87367e-38 -1.61895e-122 0
5.71211e-40 -1.04972e-120 0
1.68058e-41 -6.62178e-119 0
4.77768e-43 -4.05792e-117 0
1.31392e-44 -2.41183e-115 0
3.49931e-46 -1.38771e-113 0
9.03426e-48 -7.71312e-112 0
2.26313e-49 -4.13121e-110 0
5.50575e-51 -2.12618e-108 0
1.3019e-52 -1.04794e-106 0
2.99455e-54 -4.92667e-105 0
6.7051e-56 -2.19868e-103 0
1.46252e-57 -9.2599e-102 0
3.10967e-59 -3.65343e-100 0
6.44936e-61 -1.33782e-98 0
1.30548e-62 -4.49175e-97 0
2.58063e-64 -1.36031e-95 0
4.98447e-66 -3.63151e-94 0
9.41192e-68 -8.25975e-93 0
1.73828e-69 -1.51559e-91 0
3.14163e-71 -2.03261e-90 0
5.65505e-73 -1.59373e-89 0
1.00215e-70 -4.43987e-87 0
0 -3.24389e-179 0
2.9375e-07 -3.80749e-177 0
6.76818e-07 -3.40721e-175 0
4.05629e-07 -2.39884e-173 0
1.00784e-07 -9.72077e-172 0
7.13369e-09 -9.48425e-172 0
0 0 0
0 0 0
0 0 0
3.57989e-15 9.78923e-157 0
6.72816e-16 -1.09177e-155 0
8.23819e-17 -1.12442e-153 0
8.0852e-18 -1.03419e-151 0
6.80423e-19 -9.36725e-150 0
5.07407e-20 -8.35262e-148 0
3.41901e-21 -7.32948e-146 0
2.10911e-22 -6.32697e-144 0
1.20249e-23 -5.37046e-142 0
6.38299e-25 -4.48052e-140 0
3.17288e-26 -3.67234e-138 0
1.48408e-27 -2.95554e-136 0
6.55826e-29 -2.33439e-134 0
2.74759e-30 -1.80843e-132 0
1.09461e-31 -1.37323e-130 0
4.15775e-33 -1.02141e-128 0
1.5093e-34 -7.43623e-127 0
5.24727e-36 -5.2947e-125 0
1.75048e-37 -3.68365e-123 0
5.61308e-39 -2.50168e-121 0
1.73282e-40 -1.65663e-119 0
5.15762e-42 -1.06838e-117 0
1.48207e-43 -6.70102e-116 0
4.11669e-45 -4.08126e-114 0
1.1066e-46 -2.40947e-112 0
2.88179e-48 -1.3761e-110 0
7.27773e-50 -7.58523e-109 0
1.78402e-51 -4.0244e-107 0
4.24872e-53 -2.04862e-105 0
9.83847e-55 -9.96779e-104 0
2.21691e-56 -4.61446e-102 0
4.8645e-58 -2.02107e-100 0
1.04016e-59 -8.31623e-99 0
2.16883e-61 -3.18611e-97 0
4.41244e-63 -1.12326e-95 0
8.76443e-65 -3.58661e-94 0
1.70061e-66 -1.01422e-92 0
3.22518e-68 -2.45645e-91 0
5.98132e-70 -4.82822e-90 0
1.0853e-71 -6.97877e-89 0
1.96109e-73 -5.91575e-88 0
3.41117e-71 -1.69437e-85 0
0 -1.82408e-177 0
2.93552e-07 -2.12071e-175 0
6.76444e-07 -2.1029e-173 0
4.05556e-07 -1.714e-171 0
1.02421e-07 -1.01505e-169 0
1.47787e-08 -4.04007e-168 0
8.19315e-10 -3.94026e-168 0
0 0 0
0 0 0
0 0 0
4.08413e-17 -1.13615e-154 0
1.748e-17 -1.09402e-152 0
2.72127e-18 -1.01765e-150 0
2.94514e-19 -9.32483e-149 0
2.57541e-20 -8.41506e-147 0
1.93665e-21 -7.4765e-145 0
1.29417e-22 -6.53743e-143 0
7.84059e-24 -5.6236e-141 0
4.36452e-25 -4.7571e-139 0
2.25389e-26 -3.95547e-137 0
1.08767e-27 -3.23131e-135 0
4.933e-29 -2.59217e-133 0
2.11252e-30 -2.04087e-131 0
8.57518e-32 -1.57608e-129 0
3.31031e-33 -1.19309e-127 0
1.21873e-34 -8.84702e-126 0
4.28985e-36 -6.42125e-124 0
1.44685e-37 -4.55802e-122 0
4.68496e-39 -3.16131e-120 0
1.459e-40 -2.14016e-118 0
4.37692e-42 -1.41259e-116 0
1.26672e-43 -9.07872e-115 0
3.5414e-45 -5.67336e-113 0
9.57601e-47 -3.44152e-111 0
2.50731e-48 -2.02273e-109 0
6.36361e-50 -1.14936e-107 0
1.56712e-51 -6.29795e-106 0
3.74803e-53 -3.31796e-104 0
8.71331e-55 -1.67462e-102 0
1.97058e-56 -8.06216e-101 0
4.33878e-58 -3.68271e-99 0
9.30713e-60 -1.58549e-97 0
1.94642e-61 -6.37862e-96 0
3.97106e-63 -2.37123e-94 0
7.90851e-65 -8.02159e-93 0
1.53834e-66 -2.41637e-91 0
2.92426e-68 -6.27387e-90 0
5.43524e-70 -1.3315e-88 0
9.88277e-72 -2.09431e-87 0
1.78937e-73 -1.94175e-86 0
3.11182e-71 -5.72287e-84 0
0 -9.01548e-176 0
2.85284e-07 -1.03992e-173 0
5.64829e-07 -1.09281e-171 0
3.13583e-07 -9.75176e-170 0
7.83436e-08 -7.14604e-168 0
1.2884e-08 -4.33516e-166 0
1.52784e-09 -1.86857e-164 0
6.80787e-11 -1.82593e-164 0
0 0 0
0 0 0
0 -8.39557e-154 0
1.58195e-16 -8.09623e-152 0
2.10745e-17 -7.61754e-150 0
1.96423e-18 -7.06375e-148 0
1.5235e-19 -6.45378e-146 0
1.04065e-20 -5.80782e-144 0
6.43061e-22 -5.14619e-142 0
3.65128e-23 -4.48823e-140 0
1.92459e-24 -3.85137e-138 0
9.48707e-26 -3.25035e-136 0
4.39815e-27 -2.69668e-134 0
1.92621e-28 -2.19842e-132 0
7.99928e-30 -1.76016e-130 0
3.15993e-31 -1.38332e-128 0
1.19059e-32 -1.0665e-126 0
4.28893e-34 -8.06096e-125 0
1.48031e-35 -5.96898e-123 0
4.90456e-37 -4.32678e-121 0
1.56257e-38 -3.06768e-119 0
4.79456e-40 -2.12535e-117 0
1.4189e-41 -1.43736e-115 0
4.05527e-43 -9.47779e-114 0
1.12068e-44 -6.08523e-112 0
2.99801e-46 -3.79855e-110 0
7.77186e-48 -2.30131e-108 0
1.95428e-49 -1.35046e-106 0
4.77111e-51 -7.65796e-105 0
1.13187e-52 -4.18475e-103 0
2.6114e-54 -2.1964e-101 0
5.8638e-56 -1.10278e-99 0
1.28242e-57 -5.27043e-98 0
2.73354e-59 -2.38271e-96 0
5.68257e-61 -1.01083e-94 0
1.15281e-62 -3.98149e-93 0
2.28357e-64 -1.43505e-91 0
4.4194e-66 -4.63577e-90 0
8.36047e-68 -1.30063e-88 0
1.54682e-69 -3.00953e-87 0
2.80028e-71 -5.21326e-86 0
5.04876e-73 -5.36603e-85 0
8.96254e-71 -1.62891e-82 0
0 -3.24027e-174 0
2.39019e-07 -3.7097e-172 0
3.75367e-07 -4.01441e-170 0
1.85916e-07 -3.90645e-168 0
4.6014e-08 -3.44245e-166 0
7.95952e-09 -2.7722e-164 0
1.10442e-09 -1.95742e-162 0
1.16077e-10 -1.02706e-160 0
4.20706e-12 -1.00776e-160 0
3.44587e-13 0 0
2.83107e-14 -4.1643e-153 0
2.30718e-15 -4.06132e-151 0
1.72363e-16 -3.86654e-149 0
1.18789e-17 -3.62954e-147 0
7.5938e-19 -3.3584e-145 0
4.52484e-20 -3.06224e-143 0
2.52392e-21 -2.75066e-141 0
1.32296e-22 -2.43323e-139 0
6.53904e-24 -2.11896e-137 0
3.05721e-25 -1.81593e-135 0
1.35581e-26 -1.53086e-133 0
5.71802e-28 -1.26896e-131 0
2.29865e-29 -1.0338e-129 0
8.82682e-31 -8.27348e-128 0
3.24405e-32 -6.50084e-126 0
1.14315e-33 -5.0122e-124 0
3.86875e-35 -3.78955e-122 0
1.25938e-36 -2.80768e-120 0
3.94892e-38 -2.03692e-118 0
1.1943e-39 -1.44576e-116 0
3.48818e-41 -1.00301e-114 0
9.84999e-43 -6.79425e-113 0
2.69212e-44 -4.4883e-111 0
7.12878e-46 -2.8876e-109 0
1.83068e-47 -1.80645e-107 0
4.5633e-49 -1.09689e-105 0
1.10505e-50 -6.45098e-104 0
2.60178e-52 -3.66546e-102 0
5.96035e-54 -2.00615e-100 0
1.32954e-55 -1.05375e-98 0
2.8897e-57 -5.28799e-97 0
6.12364e-59 -2.52076e-95 0
1.26601e-60 -1.13304e-93 0
2.55503e-62 -4.75514e-92 0
5.03646e-64 -1.83819e-90 0
9.70192e-66 -6.41865e-89 0
1.82733e-67 -1.96488e-87 0
3.36677e-69 -5.01696e-86 0
6.07091e-71 -9.71827e-85 0
1.09037e-72 -1.1326e-83 0
1.96554e-70 -3.54462e-81 0
0 -6.34657e-173 0
1.37597e-07 -7.21168e-171 0
1.73258e-07 -7.96493e-169 0
7.7953e-08 -8.61939e-167 0
1.94617e-08 -9.21881e-165 0
3.52227e-09 -9.74356e-163 0
5.17802e-10 -1.0175e-160 0
6.36296e-11 -1.04968e-158 0
5.88365e-12 -1.06953e-156 0
5.02598e-13 -1.07615e-154 0
4.18284e-14 -1.06896e-152 0
3.2177e-15 -1.04385e-150 0
2.29517e-16 -1.00569e-148 0
1.5232e-17 -9.55789e-147 0
9.43801e-19 -8.95808e-145 0
5.47836e-20 -8.2777e-143 0
2.98863e-21 -7.53918e-141 0
1.53697e-22 -6.76595e-139 0
7.47252e-24 -5.98121e-137 0
3.44367e-25 -5.20664e-135 0
1.50796e-26 -4.46151e-133 0
6.28868e-28 -3.76179e-131 0
2.50288e-29 -3.11975e-129 0
9.52518e-31 -2.54371e-127 0
3.47252e-32 -2.03812e-125 0
1.21473e-33 -1.60393e-123 0
4.0837e-35 -1.23905e-121 0
1.32129e-36 -9.39027e-120 0
4.12005e-38 -6.9768e-118 0
1.23969e-39 -5.0781e-116 0
3.60368e-41 -3.61787e-114 0
1.01317e-42 -2.52063e-112 0
2.75792e-44 -1.71558e-110 0
7.27553e-46 -1.13932e-108 0
1.86182e-47 -7.37256e-107 0
4.6257e-49 -4.6413e-105 0
1.11672e-50 -2.8373e-103 0
2.62169e-52 -1.68059e-101 0
5.98972e-54 -9.61967e-100 0
1.33269e-55 -5.30398e-98 0
2.88959e-57 -2.80574e-96 0
6.10952e-59 -1.41675e-94 0
1.26039e-60 -6.78368e-93 0
2.53851e-62 -3.053e-91 0
4.99425e-64 -1.27567e-89 0
9.60303e-66 -4.86101e-88 0
1.80556e-67 -1.64304e-86 0
3.32116e-69 -4.7002e-85 0
5.97923e-71 -1.0387e-83 0
1.07226e-72 -1.40825e-82 0
1.94491e-70 -4.54866e-80 0
0 0 0
3.67414e-08 0 0
3.91902e-08 0 0
1.67373e-08 0 0
4.2691e-09 0 0
8.01653e-10 0 0
1.21903e-10 0 0
1.56316e-11 0 0
1.67659e-12 0 0
1.58011e-13 0 0
1.35177e-14 0 0
1.05879e-15 0 0
7.64364e-17 0 0
5.11416e-18 0 0
3.18644e-19 0 0
1.85665e-20 0 0
1.01551e-21 0 0
5.23182e-23 0 0
2.54666e-24 0 0
1.17452e-25 0 0
5.14559e-27 0 0
2.14642e-28 0 0
8.54353e-30 0 0
3.25135e-31 0 0
1.1852e-32 0 0
4.14532e-34 0 0
1.3933e-35 0 0
4.50702e-37 0 0
1.40502e-38 0 0
4.22649e-40 0 0
1.22827e-41 0 0
3.45234e-43 0 0
9.3949e-45 0 0
2.47775e-46 0 0
6.33888e-48 0 0
1.57449e-49 0 0
3.8001e-51 0 0
8.91912e-53 0 0
2.03724e-54 0 0
4.5317e-56 0 0
9.82357e-58 0 0
2.07656e-59 0 0
4.283e-61 0 0
8.62448e-63 0 0
1.69644e-64 0 0
3.26131e-66 0 0
6.13077e-68 0 0
1.1275e-69 0 0
2.02953e-71 0 0
3.63897e-73 0 0
6.60768e-71 0 0
0 0 -3.5353e-177
6.86251e-08 0 -4.14428e-175
6.85436e-08 0 -4.80236e-173
2.86221e-08 0 -4.40065e-171
7.33334e-09 0 -3.17389e-169
1.37511e-09 0 -1.80963e-167
2.08532e-10 0 -6.75128e-166
2.6833e-11 0 -1.63775e-166
3.01037e-12 0 -1.37461e-164
2.99737e-13 0 -1.27213e-162
2.68314e-14 0 -1.15835e-160
2.18119e-15 0 -1.03799e-158
1.62348e-16 0 -9.15098e-157
1.11399e-17 0 -7.93399e-155
7.08821e-19 0 -6.76219e-153
4.20354e-20 0 -5.66323e-151
2.33371e-21 0 -4.65821e-149
1.21769e-22 0 -3.76127e-147
5.99236e-24 0 -2.97976e-145
2.78992e-25 0 -2.31479e-143
1.23237e-26 0 -1.76222e-141
5.17793e-28 0 -1.31383e-139
2.07415e-29 0 -9.58611e-138
7.93812e-31 0 -6.83968e-136
2.90822e-32 0 -4.76823e-134
1.02176e-33 0 -3.24497e-132
3.4482e-35 0 -2.15361e-130
1.1195e-36 0 -1.39235e-128
3.5015e-38 0 -8.75867e-127
1.05647e-39 0 -5.35371e-125
3.0787e-41 0 -3.17508e-123
8.6752e-43 0 -1.82398e-121
2.36625e-44 0 -1.01307e-119
6.25389e-46 0 -5.42872e-118
1.60309e-47 0 -2.79994e-116
3.9891e-49 0 -1.3861e-114
9.64415e-51 0 -6.56506e-113
2.26711e-52 0 -2.96385e-111
5.18593e-54 0 -1.26975e-109
1.15515e-55 0 -5.13475e-108
2.50727e-57 0 -1.94738e-106
5.30634e-59 0 -6.87143e-105
1.09569e-60 0 -2.23322e-103
2.20867e-62 0 -6.59852e-102
4.34877e-64 0 -1.74202e-100
8.36813e-66 0 -4.0114e-99
1.57447e-67 0 -7.77846e-98
2.89801e-69 0 -1.20162e-96
5.22065e-71 0 -1.34063e-95
9.36782e-73 0 -8.72474e-95
1.67977e-70 0 -2.24522e-92
0.0036 -2.14755e-176 -1.64842e-176
0.00357613 -4.71692e-172 -4.9412e-172
0.00165709 -1.24642e-169 -1.24988e-169
0.000445597 -1.82649e-167 -1.73138e-167
8.38427e-05 -1.75439e-165 -1.6295e-165
1.22088e-05 -1.34284e-163 -1.23739e-163
1.50323e-06 -7.48216e-162 -6.86505e-162
1.62115e-07 -4.09845e-163 -3.99947e-163
1.56093e-08 -2.70112e-161 -2.70178e-161
1.35852e-09 -2.55429e-159 -2.55438e-159
1.07857e-10 -2.37133e-157 -2.37134e-157
7.86911e-12 -2.1666e-155 -2.1666e-155
5.30843e-13 -1.94824e-153 -1.94824e-153
3.32868e-14 -1.7236e-151 -1.7236e-151
1.94919e-15 -1.49963e-149 -1.49963e-149
1.07027e-16 -1.28265e-147 -1.28265e-147
5.53053e-18 -1.07798e-145 -1.07798e-145
2.69838e-19 -8.89792e-144 -8.89792e-144
1.24676e-20 -7.20968e-142 -7.20968e-142
5.46976e-22 -5.73136e-140 -5.73136e-140
2.28411e-23 -4.46744e-138 -4.46744e-138
9.09899e-25 -3.4123e-136 -3.4123e-136
3.46485e-26 -2.55226e-134 -2.55226e-134
1.26359e-27 -1.86799e-132 -1.86799e-132
4.42085e-29 -1.33674e-130 -1.33674e-130
1.48621e-30 -9.34471e-129 -9.34471e-129
4.80814e-32 -6.37551e-127 -6.37551e-127
1.49897e-33 -4.24073e-125 -4.24073e-125
4.50905e-35 -2.74689e-123 -2.74689e-123
1.31032e-36 -1.73046e-121 -1.73046e-121
3.68265e-38 -1.05873e-119 -1.05873e-119
1.00205e-39 -6.28079e-118 -6.28079e-118
2.64238e-41 -3.6064e-116 -3.6064e-116
6.75902e-43 -2.00023e-114 -2.00023e-114
1.67857e-44 -1.06911e-112 -1.06911e-112
4.05059e-46 -5.49214e-111 -5.49214e-111
9.50531e-48 -2.70328e-109 -2.70328e-109
2.17073e-49 -1.27026e-107 -1.27026e-107
4.82772e-51 -5.67386e-106 -5.67386e-106
1.04633e-52 -2.39663e-104 -2.39663e-104
2.21136e-54 -9.51321e-103 -9.51321e-103
4.56017e-56 -3.52103e-101 -3.52103e-101
9.18089e-58 -1.20322e-99 -1.20322e-99
1.80555e-59 -3.74797e-98 -3.74797e-98
3.47045e-61 -1.04616e-96 -1.04616e-96
6.52275e-63 -2.55515e-95 -2.55515e-95
1.19938e-64 -5.27321e-94 -5.27321e-94
2.15854e-66 -8.70045e-93 -8.70045e-93
3.804e-68 -1.03987e-91 -1.03987e-91
6.67822e-70 -7.24232e-91 -7.24232e-91
6.64137e-70 -1.25277e-90 -1.25277e-90
0.01 -2.56455e-175 -5.63835e-176
0.00944435 -2.05e-171 1.16994e-171
0.00480809 -1.65748e-168 -1.3156e-168
0.00132708 -4.71606e-166 -4.4223e-166
0.000238529 -6.50614e-164 -6.08016e-164
2.94263e-05 -7.47052e-162 -6.89936e-162
3.24923e-06 -8.2263e-160 -7.54036e-160
3.25399e-07 -1.18283e-161 -1.13298e-161
2.98236e-08 -4.88911e-160 -4.89585e-160
2.50888e-09 -4.74659e-158 -4.74749e-158
1.94435e-10 -4.45858e-156 -4.45866e-156
1.39378e-11 -4.11518e-154 -4.11518e-154
9.27929e-13 -3.73866e-152 -3.73866e-152
5.76043e-14 -3.34285e-150 -3.34285e-150
3.3469e-15 -2.94053e-148 -2.94053e-148
1.8264e-16 -2.5437e-146 -2.5437e-146
9.39114e-18 -2.16299e-144 -2.16299e-144
4.56357e-19 -1.80714e-142 -1.80714e-142
2.10157e-20 -1.48274e-140 -1.48274e-140
9.19456e-22 -1.19412e-138 -1.19412e-138
3.83065e-23 -9.43411e-137 -9.43411e-137
1.52299e-24 -7.3073e-135 -7.3073e-135
5.78975e-26 -5.54543e-133 -5.54543e-133
2.1084e-27 -4.12032e-131 -4.12032e-131
7.36733e-29 -2.9951e-129 -2.9951e-129
2.47407e-30 -2.12821e-127 -2.12821e-127
7.99634e-32 -1.47688e-125 -1.47688e-125
2.4908e-33 -9.99926e-124 -9.99926e-124
7.48698e-35 -6.59786e-122 -6.59786e-122
2.17425e-36 -4.23759e-120 -4.23759e-120
6.10706e-38 -2.64559e-118 -2.64559e-118
1.66084e-39 -1.60307e-116 -1.60307e-116
4.37747e-41 -9.41149e-115 -9.41149e-115
1.11924e-42 -5.34311e-113 -5.34311e-113
2.77845e-44 -2.92679e-111 -2.92679e-111
6.70231e-46 -1.54288e-109 -1.54288e-109
1.57227e-47 -7.80408e-108 -7.80408e-108
3.5895e-49 -3.77431e-106 -3.77431e-106
7.98083e-51 -1.73809e-104 -1.73809e-104
1.72926e-52 -7.5832e-103 -7.5832e-103
3.65382e-54 -3.1155e-101 -3.1155e-101
7.53308e-56 -1.1962e-99 -1.1962e-99
1.5163e-57 -4.25115e-98 -4.25115e-98
2.98144e-59 -1.38103e-96 -1.38103e-96
5.72957e-61 -4.03276e-95 -4.03276e-95
1.0767e-62 -1.03402e-93 -1.03402e-93
1.97947e-64 -2.24889e-92 -2.24889e-92
3.56195e-66 -3.92655e-91 -3.92655e-91
6.27634e-68 -4.98576e-90 -4.98576e-90
1.10171e-69 -3.69183e-89 -3.69183e-89
1.09565e-69 -6.43997e-89 -6.43997e-89
0.0148 -8.3012e-177 4.93491e-175
0.0158768 -5.49183e-173 -6.51475e-171
0.00956146 -2.0234e-170 -4.3199e-169
0.00288208 -7.58289e-168 -5.97544e-166
0.000502923 -5.78126e-166 -8.13583e-164
1.96457e-05 -5.70563e-166 -6.79922e-162
2.06077e-06 0 -7.47232e-160
1.98566e-07 8.94447e-158 8.11474e-158
1.90912e-08 -6.9794e-159 -7.04689e-159
1.66718e-09 -7.68594e-157 -7.69516e-157
1.33111e-10 -7.38937e-155 -7.39025e-155
9.77527e-12 -6.89925e-153 -6.89925e-153
6.63901e-13 -6.33505e-151 -6.33505e-151
4.19065e-14 -5.72694e-149 -5.72694e-149
2.46945e-15 -5.09521e-147 -5.09521e-147
1.36397e-16 -4.45967e-145 -4.45967e-145
7.08716e-18 -3.83853e-143 -3.83853e-143
3.47556e-19 -3.2476e-141 -3.2476e-141
1.61344e-20 -2.69956e-139 -2.69956e-139
7.10938e-22 -2.20364e-137 -2.20364e-137
2.98079e-23 -1.76553e-135 -1.76553e-135
1.19187e-24 -1.38754e-133 -1.38754e-133
4.55429e-26 -1.06902e-131 -1.06902e-131
1.66623e-27 -8.06871e-130 -8.06871e-130
5.84695e-29 -5.96191e-128 -5.96191e-128
1.97111e-30 -4.30909e-126 -4.30909e-126
6.39337e-32 -3.04389e-124 -3.04389e-124
1.99799e-33 -2.09943e-122 -2.09943e-122
6.02378e-35 -1.41237e-120 -1.41237e-120
1.75421e-36 -9.25685e-119 -9.25685e-119
4.94001e-38 -5.90315e-117 -5.90315e-117
1.34669e-39 -3.65744e-115 -3.65744e-115
3.55745e-41 -2.19803e-113 -2.19803e-113
9.1148e-43 -1.27892e-111 -1.27892e-111
2.26715e-44 -7.18921e-110 -7.18921e-110
5.47902e-46 -3.89478e-108 -3.89478e-108
1.28753e-47 -2.02772e-106 -2.02772e-106
2.94423e-49 -1.01111e-104 -1.01111e-104
6.55622e-51 -4.80969e-103 -4.80969e-103
1.42265e-52 -2.17209e-101 -2.17209e-101
3.01009e-54 -9.25814e-100 -9.25814e-100
6.21398e-56 -3.69718e-98 -3.69718e-98
1.25233e-57 -1.37047e-96 -1.37047e-96
2.46528e-59 -4.6584e-95 -4.6584e-95
4.74292e-61 -1.42842e-93 -1.42842e-93
8.9223e-63 -3.86137e-92 -3.86137e-92
1.64199e-64 -8.89385e-91 -8.89385e-91
2.95751e-66 -1.65265e-89 -1.65265e-89
5.21607e-68 -2.24424e-88 -2.24424e-88
9.16412e-70 -1.78039e-87 -1.78039e-87
9.11359e-70 -3.13335e-87 -3.13335e-87
0.018 -1.07992e-178 3.22377e-173
0.0208502 -2.0783e-174 -3.62203e-169
0.0145611 -9.51985e-173 4.06161e-167
0.00487282 -9.13123e-170 -6.11587e-165
0.000846255 -5.13079e-168 -2.38514e-162
0 -5.03957e-168 -2.37898e-162
0 0 0
0 0 8.11583e-158
1.38053e-09 -9.80094e-156 -8.89009e-156
2.19758e-10 -9.78276e-156 -9.87559e-156
2.36616e-11 -1.05274e-153 -1.05369e-153
2.09301e-12 -1.00269e-151 -1.00269e-151
1.61654e-13 -9.30851e-150 -9.30851e-150
1.1217e-14 -8.51094e-148 -8.51094e-148
7.10905e-16 -7.66142e-146 -7.66142e-146
4.16026e-17 -6.78762e-144 -6.78762e-144
2.26579e-18 -5.91609e-142 -5.91609e-142
1.1554e-19 -5.07087e-140 -5.07087e-140
5.5434e-21 -4.27238e-138 -4.27238e-138
2.51245e-22 -3.53667e-136 -3.53667e-136
1.07942e-23 -2.87499e-134 -2.87499e-134
4.40904e-25 -2.29384e-132 -2.29384e-132
1.7167e-26 -1.79522e-130 -1.79522e-130
6.38639e-28 -1.37731e-128 -1.37731e-128
2.27473e-29 -1.03515e-126 -1.03515e-126
7.77209e-31 -7.6157e-125 -7.6157e-125
2.55169e-32 -5.48021e-123 -5.48021e-123
8.06269e-34 -3.85368e-121 -3.85368e-121
2.45542e-35 -2.64555e-119 -2.64555e-119
7.21676e-37 -1.7711e-117 -1.7711e-117
2.0496e-38 -1.15484e-115 -1.15484e-115
5.63129e-40 -7.3242e-114 -7.3242e-114
1.49838e-41 -4.51112e-112 -4.51112e-112
3.865e-43 -2.6936e-110 -2.6936e-110
9.67383e-45 -1.55607e-108 -1.55607e-108
2.35155e-46 -8.67689e-107 -8.67689e-107
5.55621e-48 -4.6576e-105 -4.6576e-105
1.27706e-49 -2.39905e-103 -2.39905e-103
2.85744e-51 -1.18125e-101 -1.18125e-101
6.22846e-53 -5.53455e-100 -5.53455e-100
1.32346e-54 -2.45364e-98 -2.45364e-98
2.74311e-56 -1.02206e-96 -1.02206e-96
5.54932e-58 -3.96444e-95 -3.96444e-95
1.09635e-59 -1.41521e-93 -1.41521e-93
2.11644e-61 -4.57605e-92 -4.57605e-92
3.9943e-63 -1.31053e-90 -1.31053e-90
7.37339e-65 -3.2149e-89 -3.2149e-89
1.33197e-66 -6.40033e-88 -6.40033e-88
2.35569e-68 -9.36917e-87 -9.36917e-87
4.14989e-70 -8.03768e-86 -8.03768e-86
4.12671e-70 -1.4279e-85 -1.4279e-85
0.0196 -2.91499e-179 9.00061e-174
0.0233673 -3.88413e-175 -1.21309e-169
0.017734 -3.6394e-173 1.55168e-167
0.00636013 -1.68901e-170 -2.99801e-165
0.00112596 -9.05501e-169 -1.04213e-163
6.3296e-05 -8.88647e-169 2.93603e-160
0 0 2.93704e-160
0 0 0
0 0 -8.88351e-156
1.3903e-11 1.05131e-153 9.42387e-154
2.36291e-12 -1.16939e-152 -1.17956e-152
2.6422e-13 -1.2289e-150 -1.2289e-150
2.38472e-14 -1.15386e-148 -1.15386e-148
1.8566e-15 -1.06742e-146 -1.06742e-146
1.2875e-16 -9.72577e-145 -9.72577e-145
8.10472e-18 -8.72522e-143 -8.72522e-143
4.68984e-19 -7.70431e-141 -7.70431e-141
2.51738e-20 -6.69312e-139 -6.69312e-139
1.26217e-21 -5.71851e-137 -5.71851e-137
5.94374e-23 -4.80293e-135 -4.80293e-135
2.6408e-24 -3.96363e-133 -3.96363e-133
1.11121e-25 -3.21237e-131 -3.21237e-131
4.44275e-27 -2.55544e-129 -2.55544e-129
1.69252e-28 -1.99415e-127 -1.99415e-127
6.15912e-30 -1.52555e-125 -1.52555e-125
2.14571e-31 -1.14332e-123 -1.14332e-123
7.17056e-33 -8.38787e-122 -8.38787e-122
2.30273e-34 -6.01886e-120 -6.01886e-120
7.11785e-36 -4.22043e-118 -4.22043e-118
2.12089e-37 -2.8889e-116 -2.8889e-116
6.10027e-39 -1.92818e-114 -1.92818e-114
1.69585e-40 -1.25328e-112 -1.25328e-112
4.56186e-42 -7.92139e-111 -7.92139e-111
1.18874e-43 -4.86071e-109 -4.86071e-109
3.00374e-45 -2.89017e-107 -2.89017e-107
7.36684e-47 -1.6616e-105 -1.6616e-105
1.7552e-48 -9.21318e-104 -9.21318e-104
4.06598e-50 -4.91212e-102 -4.91212e-102
9.16509e-52 -2.5093e-100 -2.5093e-100
2.0117e-53 -1.22287e-98 -1.22287e-98
4.30277e-55 -5.65506e-97 -5.65506e-97
8.9739e-57 -2.46506e-95 -2.46506e-95
1.82615e-58 -1.00424e-93 -1.00424e-93
3.62804e-60 -3.78076e-92 -3.78076e-92
7.04101e-62 -1.29542e-90 -1.29542e-90
1.33556e-63 -3.95278e-89 -3.95278e-89
2.47728e-65 -1.03968e-87 -1.03968e-87
4.49564e-67 -2.23536e-86 -2.23536e-86
7.98574e-69 -3.56162e-85 -3.56162e-85
1.41278e-70 -3.3429e-84 -3.3429e-84
1.40474e-70 -5.99787e-84 -5.99787e-84
0.0196 -1.90389e-177 7.66854e-174
0.0233651 -1.65797e-173 -1.06419e-169
0.01773 -5.95484e-171 1.4031e-167
0.0063589 -1.32466e-168 -2.81954e-165
0.00113767 -9.63083e-167 -7.52842e-164
0.000128621 -3.99607e-165 -9.62938e-164
5.89874e-06 -3.90108e-165 -3.25566e-158
0 0 -3.25566e-158
0 0 0
0 0 9.51538e-154
1.32189e-13 -1.24196e-151 -1.23331e-151
5.42107e-14 -1.22036e-149 -1.22037e-149
7.84862e-15 -1.15939e-147 -1.15939e-147
7.90319e-16 -1.08555e-145 -1.08555e-145
6.45016e-17 -1.00154e-143 -1.00154e-143
4.54287e-18 -9.1022e-142 -9.1022e-142
2.85308e-19 -8.14583e-140 -8.14583e-140
1.6297e-20 -7.17597e-138 -7.17597e-138
8.57867e-22 -6.22039e-136 -6.22039e-136
4.20074e-23 -5.30357e-134 -5.30357e-134
1.92701e-24 -4.44576e-132 -4.44576e-132
8.32715e-26 -3.66223e-130 -3.66223e-130
3.40486e-27 -2.96313e-128 -2.96313e-128
1.32222e-28 -2.35355e-126 -2.35355e-126
4.89185e-30 -1.83404e-124 -1.83404e-124
1.72895e-31 -1.4013e-122 -1.4013e-122
5.85135e-33 -1.04902e-120 -1.04902e-120
1.90022e-34 -7.68829e-119 -7.68829e-119
5.93244e-36 -5.51196e-117 -5.51196e-117
1.78351e-37 -3.86191e-115 -3.86191e-115
5.17119e-39 -2.64157e-113 -2.64157e-113
1.44804e-40 -1.76188e-111 -1.76188e-111
3.92102e-42 -1.14437e-109 -1.14437e-109
1.02791e-43 -7.22735e-108 -7.22735e-108
2.61171e-45 -4.43056e-106 -4.43056e-106
6.43785e-47 -2.63108e-104 -2.63108e-104
1.54104e-48 -1.51004e-102 -1.51004e-102
3.58529e-50 -8.35256e-101 -8.35256e-101
8.11392e-52 -4.43799e-99 -4.43799e-99
1.7876e-53 -2.25602e-97 -2.25602e-97
3.83672e-55 -1.09177e-95 -1.09177e-95
8.02781e-57 -4.99848e-94 -4.99848e-94
1.63857e-58 -2.14771e-92 -2.14771e-92
3.26463e-60 -8.56899e-91 -8.56899e-91
6.35264e-62 -3.12885e-89 -3.12885e-89
1.20801e-63 -1.02404e-87 -1.02404e-87
2.24601e-65 -2.91116e-86 -2.91116e-86
4.08504e-67 -6.82574e-85 -6.82574e-85
7.27173e-69 -1.19803e-83 -1.19803e-83
1.28908e-70 -1.24874e-82 -1.24874e-82
1.28174e-70 -2.26418e-82 -2.26418e-82
0.018 -7.16773e-176 1.82369e-173
0.0208294 -1.98278e-171 -1.55024e-169
0.0145332 -5.72418e-169 8.93904e-168
0.00486238 -8.40768e-167 6.71691e-165
0.000861446 -6.96568e-165 1.53188e-163
0.000109637 -4.36811e-163 1.22568e-162
1.08508e-05 -1.9213e-161 -1.11759e-161
4.15376e-07 -1.87831e-161 3.52533e-156
0 0 3.52535e-156
0 0 0
0 -9.36405e-151 -9.34962e-151
5.50634e-13 -9.22088e-149 -9.22074e-149
6.71454e-14 -8.86512e-147 -8.86512e-147
5.76413e-15 -8.40443e-145 -8.40443e-145
4.14063e-16 -7.8546e-143 -7.8546e-143
2.63236e-17 -7.23443e-141 -7.23443e-141
1.52059e-18 -6.5647e-139 -6.5647e-139
8.10284e-20 -5.86698e-137 -5.86698e-137
4.02253e-21 -5.16239e-135 -5.16239e-135
1.87347e-22 -4.47057e-133 -4.47057e-133
8.22986e-24 -3.80872e-131 -3.80872e-131
3.42434e-25 -3.1909e-129 -3.1909e-129
1.35429e-26 -2.62766e-127 -2.62766e-127
5.10597e-28 -2.12584e-125 -2.12584e-125
1.83983e-29 -1.68876e-123 -1.68876e-123
6.35009e-31 -1.31652e-121 -1.31652e-121
2.1035e-32 -1.00655e-119 -1.00655e-119
6.69939e-34 -7.542e-118 -7.542e-118
2.05474e-35 -5.53418e-116 -5.53418e-116
6.07772e-37 -3.97343e-114 -3.97343e-114
1.73608e-38 -2.78877e-112 -2.78877e-112
4.79493e-40 -1.91132e-110 -1.91132e-110
1.28195e-41 -1.27765e-108 -1.27765e-108
3.32126e-43 -8.31863e-107 -8.31863e-107
8.34645e-45 -5.26717e-105 -5.26717e-105
2.03645e-46 -3.23744e-103 -3.23744e-103
4.82828e-48 -1.92755e-101 -1.92755e-101
1.11331e-49 -1.10892e-99 -1.10892e-99
2.49846e-51 -6.14578e-98 -6.14578e-98
5.46113e-53 -3.26926e-96 -3.26926e-96
1.16343e-54 -1.66169e-94 -1.66169e-94
2.41731e-56 -8.02396e-93 -8.02396e-93
4.90143e-58 -3.65389e-91 -3.65389e-91
9.70436e-60 -1.55372e-89 -1.55372e-89
1.87719e-61 -6.08627e-88 -6.08627e-88
3.54956e-63 -2.15376e-86 -2.15376e-86
6.56433e-65 -6.68227e-85 -6.68227e-85
1.18785e-66 -1.72935e-83 -1.72935e-83
2.10425e-68 -3.39521e-82 -3.39521e-82
3.71279e-70 -4.00839e-81 -4.00839e-81
3.69208e-70 -7.34945e-81 -7.34945e-81
0.0148 -6.37362e-174 -1.41704e-173
0.0157317 -1.86303e-169 2.6056e-169
0.00942775 -3.10849e-167 -1.01395e-166
0.00283708 -3.68598e-165 -9.68582e-165
0.000500545 -3.44943e-163 -4.63805e-163
6.73329e-05 -2.84881e-161 -2.9921e-161
7.71262e-06 -2.05211e-159 -2.0663e-159
7.01662e-07 -1.09809e-157 -1.09893e-157
2.23063e-08 -1.07785e-157 -3.77227e-154
1.63576e-09 0 -3.90575e-152
1.20365e-10 -4.7412e-150 -4.77987e-150
8.80421e-12 -4.72391e-148 -4.72391e-148
5.96039e-13 -4.59791e-146 -4.59791e-146
3.75267e-14 -4.41495e-144 -4.41495e-144
2.20684e-15 -4.18109e-142 -4.18109e-142
1.21694e-16 -3.90423e-140 -3.90423e-140
6.31498e-18 -3.59372e-138 -3.59372e-138
3.09369e-19 -3.25977e-136 -3.25977e-136
1.43499e-20 -2.91291e-134 -2.91291e-134
6.31898e-22 -2.56342e-132 -2.56342e-132
2.64804e-23 -2.22081e-130 -2.22081e-130
1.0584e-24 -1.89339e-128 -1.89339e-128