# vtk DataFile Version 2.0
Tobias Weinzierl: CPU, Manycore and Cluster Computing
ASCII

DATASET STRUCTURED_POINTS
DIMENSIONS  51 11 6

ORIGIN 0 0 0 

SPACING 0.1 0.1 0.1 

POINT_DATA 3366

VECTORS velocity float
0 0 0
2.99086e-13 0 0
3.98739e-10 0 0
1.11016e-09 0 0
-3.21768e-09 0 0
3.66016e-09 0 0
5.18446e-09 0 0
4.85797e-09 0 0
4.72451e-09 0 0
4.7542e-09 0 0
4.39481e-09 0 0
3.68272e-09 0 0
2.81282e-09 0 0
1.52604e-09 0 0
-4.21168e-10 0 0
-2.57465e-09 0 0
-4.20837e-09 0 0
-5.09368e-09 0 0
-5.57221e-09 0 0
-6.09459e-09 0 0
-6.87364e-09 0 0
-7.86405e-09 0 0
-8.90483e-09 0 0
-9.84756e-09 0 0
-1.06104e-08 0 0
-1.11759e-08 0 0
-1.15662e-08 0 0
-1.18198e-08 0 0
-1.19758e-08 0 0
-1.2067e-08 0 0
-1.21172e-08 0 0
-1.21406e-08 0 0
-1.21446e-08 0 0
-1.21357e-08 0 0
-1.21088e-08 0 0
-1.2027e-08 0 0
-1.18409e-08 0 0
-1.15404e-08 0 0
-1.11706e-08 0 0
-1.08011e-08 0 0
-1.04873e-08 0 0
-1.02546e-08 0 0
-1.0096e-08 0 0
-9.97528e-09 0 0
-9.84175e-09 0 0
-9.65625e-09 0 0
-9.41491e-09 0 0
-9.15668e-09 0 0
-8.9476e-09 0 0
-8.84985e-09 0 0
0.00142922 0 0
0 3.89983e-07 0
1.06862e-13 -6.55275e-10 0
5.71704e-10 -2.22213e-09 0
3.02035e-09 -6.99434e-10 0
-1.07172e-09 -3.75523e-09 0
1.0901e-08 -5.01886e-09 0
1.3006e-08 2.57171e-10 0
1.25326e-08 6.04239e-10 0
1.32111e-08 -6.79526e-10 0
1.41874e-08 -1.4825e-09 0
1.40636e-08 -1.8473e-09 0
1.27137e-08 -1.6438e-09 0
1.02486e-08 -1.69903e-10 0
6.58865e-09 2.17079e-09 0
2.06223e-09 3.77823e-09 0
-2.21939e-09 3.69981e-09 0
-5.32685e-09 2.50535e-09 0
-7.39822e-09 1.33651e-09 0
-9.30357e-09 8.08622e-10 0
-1.1757e-08 8.37426e-10 0
-1.48801e-08 1.05991e-09 0
-1.83357e-08 1.20185e-09 0
-2.16586e-08 1.17597e-09 0
-2.44994e-08 1.01848e-09 0
-2.67039e-08 8.02587e-10 0
-2.82808e-08 5.88366e-10 0
-2.93302e-08 4.08963e-10 0
-2.99811e-08 2.75218e-10 0
-3.03532e-08 1.84875e-10 0
-3.05402e-08 1.29738e-10 0
-3.06071e-08 9.89668e-11 0
-3.05887e-08 8.21857e-11 0
-3.04925e-08 7.40485e-11 0
-3.03185e-08 6.50225e-11 0
-3.00504e-08 2.27974e-11 0
-2.95964e-08 -8.54884e-11 0
-2.88155e-08 -2.40334e-10 0
-2.7652e-08 -3.72335e-10 0
-2.6197e-08 -4.2294e-10 0
-2.46204e-08 -3.84614e-10 0
-2.30761e-08 -2.9103e-10 0
-2.16598e-08 -1.90448e-10 0
-2.04024e-08 -1.28969e-10 0
-1.92675e-08 -1.36599e-10 0
-1.81718e-08 -2.10384e-10 0
-1.7045e-08 -3.0966e-10 0
-1.58907e-08 -3.72732e-10 0
-1.48122e-08 -3.44689e-10 0
-1.39755e-08 -1.98685e-10 0
-1.35318e-08 1.6861e-11 0
0.00405421 -1.08671e-05 0
0 -2.03462e-08 0
4.53435e-13 -7.67976e-10 0
1.42349e-09 -4.39413e-09 0
6.98203e-09 -8.00611e-09 0
1.0366e-08 -1.44041e-08 0
1.91885e-08 -1.12711e-08 0
1.56665e-08 -8.70101e-10 0
1.52843e-08 -8.60548e-10 0
1.68399e-08 -4.509e-09 0
1.86308e-08 -8.50112e-09 0
1.69976e-08 -1.17714e-08 0
1.34446e-08 -1.21814e-08 0
9.80872e-09 -8.3249e-09 0
5.60055e-09 -2.22178e-09 0
8.67362e-10 3.09017e-09 0
-3.42661e-09 6.47931e-09 0
-6.51392e-09 8.31235e-09 0
-8.5757e-09 9.08971e-09 0
-1.03917e-08 9.09952e-09 0
-1.26326e-08 8.54214e-09 0
-1.54873e-08 7.58389e-09 0
-1.87027e-08 6.37275e-09 0
-2.18396e-08 5.05997e-09 0
-2.45246e-08 3.7932e-09 0
-2.65723e-08 2.68645e-09 0
-2.79763e-08 1.79951e-09 0
-2.88387e-08 1.14046e-09 0
-2.92972e-08 6.82414e-10 0
-2.94788e-08 3.81987e-10 0
-2.9477e-08 1.93024e-10 0
-2.93502e-08 7.08205e-11 0
-2.91225e-08 -2.9419e-11 0
-2.87747e-08 -1.42819e-10 0
-2.8271e-08 -2.96077e-10 0
-2.75894e-08 -5.50139e-10 0
-2.66271e-08 -9.83578e-10 0
-2.51704e-08 -1.57452e-09 0
-2.30939e-08 -2.17052e-09 0
-2.04914e-08 -2.6096e-09 0
-1.75952e-08 -2.82552e-09 0
-1.4637e-08 -2.84636e-09 0
-1.1795e-08 -2.74558e-09 0
-9.18607e-09 -2.61023e-09 0
-6.84061e-09 -2.51387e-09 0
-4.70052e-09 -2.47408e-09 0
-2.68959e-09 -2.42821e-09 0
-8.04495e-10 -2.25959e-09 0
8.3931e-10 -1.85932e-09 0
2.05087e-09 -1.1815e-09 0
2.72341e-09 -2.88191e-10 0
0.00573925 -2.77621e-05 0
0 -6.45879e-07 0
2.28776e-12 -2.27744e-09 0
2.83432e-09 -8.1083e-09 0
9.76381e-09 -1.54744e-08 0
1.19087e-08 -2.15834e-08 0
1.19476e-08 -1.19448e-08 0
7.84567e-09 -6.62751e-12 0
7.60973e-09 -1.4042e-09 0
5.93066e-09 -7.27054e-09 0
4.50926e-09 -1.53946e-08 0
2.83158e-09 -2.12164e-08 0
1.76368e-10 -2.31747e-08 0
-1.9227e-09 -1.98647e-08 0
-5.55637e-09 -1.19354e-08 0
-1.07438e-08 -1.72448e-09 0
-1.58676e-08 8.16234e-09 0
-1.92208e-08 1.50837e-08 0
-2.00746e-08 1.77794e-08 0
-1.88698e-08 1.69887e-08 0
-1.67573e-08 1.43844e-08 0
-1.4842e-08 1.13211e-08 0
-1.36616e-08 8.46494e-09 0
-1.31779e-08 6.03014e-09 0
-1.30821e-08 4.05786e-09 0
-1.30797e-08 2.53839e-09 0
-1.30076e-08 1.43423e-09 0
-1.28226e-08 6.82691e-10 0
-1.25444e-08 2.0476e-10 0
-1.22079e-08 -8.30694e-11 0
-1.18349e-08 -2.58383e-10 0
-1.14267e-08 -3.89008e-10 0
-1.09718e-08 -5.43373e-10 0
-1.04214e-08 -7.84768e-10 0
-9.69489e-09 -1.14944e-09 0
-8.76916e-09 -1.70343e-09 0
-7.56937e-09 -2.56687e-09 0
-5.81734e-09 -3.73266e-09 0
-3.30454e-09 -4.96207e-09 0
-1.31236e-10 -5.95572e-09 0
3.40034e-09 -6.54333e-09 0
6.98864e-09 -6.71058e-09 0
1.03914e-08 -6.53853e-09 0
1.34245e-08 -6.16105e-09 0
1.60165e-08 -5.72289e-09 0
1.82419e-08 -5.30075e-09 0
2.023e-08 -4.84545e-09 0
2.20341e-08 -4.21457e-09 0
2.35727e-08 -3.2677e-09 0
2.46712e-08 -1.98937e-09 0
2.5331e-08 -5.93994e-10 0
0.00639187 -4.61567e-05 0
0 -1.26552e-06 0
1.02597e-12 -4.45435e-09 0
1.02606e-09 -1.24258e-08 0
3.68069e-09 -1.6448e-08 0
2.80678e-09 -1.33407e-08 0
-1.18648e-12 -4.86718e-09 0
-5.39766e-11 -6.03462e-11 0
5.72899e-11 -5.86751e-11 0
-2.42267e-09 -5.21752e-09 0
-1.20798e-08 -1.74642e-08 0
-1.70264e-08 -2.88538e-08 0
-1.6281e-08 -3.39023e-08 0
-1.69723e-08 -2.98832e-08 0
-2.03616e-08 -1.74337e-08 0
-2.49367e-08 -1.51426e-09 0
-2.89431e-08 1.26336e-08 0
-3.09557e-08 2.08883e-08 0
-2.99415e-08 2.22748e-08 0
-2.58029e-08 1.89182e-08 0
-1.96977e-08 1.38458e-08 0
-1.33443e-08 9.09969e-09 0
-8.00689e-09 5.41438e-09 0
-4.09783e-09 2.78561e-09 0
-1.42652e-09 1.00212e-09 0
3.90326e-10 -1.37092e-10 0
1.67878e-09 -7.94644e-10 0
2.64504e-09 -1.11049e-09 0
3.40397e-09 -1.20867e-09 0
4.02096e-09 -1.19696e-09 0
4.54472e-09 -1.1656e-09 0
5.02569e-09 -1.18472e-09 0
5.50082e-09 -1.32097e-09 0
6.01936e-09 -1.65194e-09 0
6.6967e-09 -2.22043e-09 0
7.57176e-09 -3.07847e-09 0
8.66936e-09 -4.38388e-09 0
1.03492e-08 -6.16849e-09 0
1.29468e-08 -8.10736e-09 0
1.63476e-08 -9.72628e-09 0
2.01532e-08 -1.07031e-08 0
2.3983e-08 -1.09511e-08 0
2.75316e-08 -1.05599e-08 0
3.0563e-08 -9.74009e-09 0
3.30066e-08 -8.75172e-09 0
3.50082e-08 -7.77113e-09 0
3.67867e-08 -6.78968e-09 0
3.84456e-08 -5.659e-09 0
3.99163e-08 -4.22895e-09 0
4.10132e-08 -2.49464e-09 0
4.17648e-08 -8.42965e-10 0
0.00657017 -6.19323e-05 0
0 -1.14633e-06 0
-2.12667e-12 -4.67897e-09 0
-1.92532e-09 -1.05395e-08 0
-2.14219e-09 -1.27442e-08 0
-4.16099e-09 -1.26019e-08 0
-3.17356e-09 -5.71921e-09 0
-5.54831e-11 5.41233e-11 0
3.17204e-12 -3.17204e-12 0
5.63299e-11 -5.82481e-11 0
-7.39143e-09 -9.32989e-09 0
-2.32917e-08 -2.85883e-08 0
-2.67249e-08 -3.90615e-08 0
-2.8994e-08 -3.35968e-08 0
-3.10773e-08 -1.85729e-08 0
-3.20045e-08 -5.74818e-10 0
-3.19215e-08 1.44865e-08 0
-3.11287e-08 2.22774e-08 0
-2.88786e-08 2.20889e-08 0
-2.41498e-08 1.67228e-08 0
-1.71966e-08 9.94796e-09 0
-9.55254e-09 4.22253e-09 0
-2.80423e-09 3.01988e-10 0
2.27387e-09 -2.01216e-09 0
5.70274e-09 -3.16395e-09 0
7.87729e-09 -3.54603e-09 0
9.22392e-09 -3.45528e-09 0
1.00633e-08 -3.11378e-09 0
1.06031e-08 -2.68547e-09 0
1.09692e-08 -2.28752e-09 0
1.12385e-08 -2.00437e-09 0
1.14744e-08 -1.89388e-09 0
1.17161e-08 -2.00249e-09 0
1.19792e-08 -2.40751e-09 0
1.23827e-08 -3.17105e-09 0
1.3006e-08 -4.33369e-09 0
1.38163e-08 -6.08608e-09 0
1.52908e-08 -8.51852e-09 0
1.79813e-08 -1.12201e-08 0
2.17398e-08 -1.35107e-08 0
2.60105e-08 -1.48822e-08 0
3.02791e-08 -1.51562e-08 0
3.41269e-08 -1.44392e-08 0
3.7263e-08 -1.30513e-08 0
3.96717e-08 -1.14044e-08 0
4.16327e-08 -9.79919e-09 0
4.3468e-08 -8.27953e-09 0
4.52915e-08 -6.69415e-09 0
4.69909e-08 -4.88017e-09 0
4.83385e-08 -2.82276e-09 0
4.93041e-08 -1.03261e-09 0
0.00652675 -7.20893e-05 0
0 -7.90267e-07 0
-9.76704e-13 -2.76149e-09 0
-1.97747e-09 -7.02868e-09 0
-1.78434e-09 -9.24618e-09 0
-5.59906e-09 -9.56767e-09 0
-7.81371e-09 -6.61017e-09 0
-3.59721e-09 -2.02107e-09 0
-5.4182e-11 5.40639e-11 0
2.27197e-12 -2.27197e-12 0
5.49708e-11 -5.76881e-11 0
-1.07625e-08 -1.65239e-08 0
-2.32474e-08 -3.5257e-08 0
-3.04652e-08 -3.11517e-08 0
-3.31668e-08 -1.58691e-08 0
-3.19699e-08 1.28448e-09 0
-2.80478e-08 1.44969e-08 0
-2.36059e-08 2.03586e-08 0
-1.96056e-08 1.86932e-08 0
-1.52443e-08 1.23692e-08 0
-9.88251e-09 5.1313e-09 0
-4.14372e-09 -5.8418e-10 0
8.08199e-10 -4.09604e-09 0
4.26565e-09 -5.7342e-09 0
6.21675e-09 -6.09271e-09 0
7.04728e-09 -5.69673e-09 0
7.20525e-09 -4.93545e-09 0
7.0345e-09 -4.07617e-09 0
6.74827e-09 -3.28894e-09 0
6.45746e-09 -2.67162e-09 0
6.2055e-09 -2.27982e-09 0
6.01525e-09 -2.15014e-09 0
5.89783e-09 -2.30915e-09 0
5.81677e-09 -2.82245e-09 0
5.85114e-09 -3.78228e-09 0
6.12969e-09 -5.24193e-09 0
6.56262e-09 -7.42115e-09 0
7.7887e-09 -1.04613e-08 0
1.07505e-08 -1.38383e-08 0
1.52515e-08 -1.66467e-08 0
2.04804e-08 -1.82364e-08 0
2.56791e-08 -1.83962e-08 0
3.02209e-08 -1.7286e-08 0
3.37673e-08 -1.53478e-08 0
3.64449e-08 -1.31289e-08 0
3.87255e-08 -1.1026e-08 0
4.10107e-08 -9.11445e-09 0
4.33598e-08 -7.23275e-09 0
4.55648e-08 -5.20489e-09 0
4.73528e-08 -3.00436e-09 0
4.85847e-08 -1.16833e-09 0
0.00635424 -7.66097e-05 0
0 -5.53876e-07 0
1.04824e-12 -1.81763e-09 0
-7.34371e-10 -4.8634e-09 0
-1.15458e-09 -6.9988e-09 0
-4.64945e-09 -6.94985e-09 0
-9.76053e-09 -3.73389e-09 0
-1.03672e-08 -4.10348e-10 0
-6.21271e-09 3.26667e-10 0
-5.70366e-11 5.10893e-11 0
5.4805e-11 4.70311e-11 0
3.43103e-12 -9.16167e-09 0
-1.4149e-08 -2.16844e-08 0
-2.82939e-08 -1.94061e-08 0
-3.56063e-08 -6.13769e-09 0
-3.44093e-08 6.76631e-09 0
-2.63479e-08 1.40001e-08 0
-1.65855e-08 1.4945e-08 0
-9.50995e-09 1.11078e-08 0
-5.74671e-09 5.13076e-09 0
-3.78397e-09 -3.95188e-10 0
-2.54313e-09 -4.0926e-09 0
-1.92039e-09 -5.86466e-09 0
-2.07503e-09 -6.23417e-09 0
-2.93589e-09 -5.78609e-09 0
-4.2184e-09 -4.96044e-09 0
-5.61349e-09 -4.04273e-09 0
-6.90667e-09 -3.20246e-09 0
-7.9964e-09 -2.53067e-09 0
-8.8653e-09 -2.06943e-09 0
-9.5478e-09 -1.83721e-09 0
-1.00901e-08 -1.85468e-09 0
-1.05301e-08 -2.15025e-09 0
-1.09526e-08 -2.78286e-09 0
-1.13447e-08 -3.86745e-09 0
-1.15529e-08 -5.49437e-09 0
-1.17255e-08 -7.88794e-09 0
-1.10583e-08 -1.11572e-08 0
-7.98326e-09 -1.45848e-08 0
-2.77292e-09 -1.71046e-08 0
3.52172e-09 -1.81803e-08 0
9.79726e-09 -1.78152e-08 0
1.52006e-08 -1.63253e-08 0
1.94288e-08 -1.42079e-08 0
2.28106e-08 -1.19865e-08 0
2.59542e-08 -1.00013e-08 0
2.92087e-08 -8.2675e-09 0
3.24767e-08 -6.58307e-09 0
3.54246e-08 -4.76315e-09 0
3.77536e-08 -2.79697e-09 0
3.92297e-08 -1.15796e-09 0
0.00603244 -7.78929e-05 0
0 -4.69602e-07 0
1.0352e-12 -9.4825e-10 0
6.02563e-11 -2.69363e-09 0
-1.19858e-09 -4.15978e-09 0
-5.99099e-09 -4.4233e-09 0
-1.27109e-08 -1.19829e-09 0
-1.54104e-08 2.50215e-09 0
-1.43205e-08 -1.79317e-09 0
-9.30151e-09 -3.48474e-09 0
-7.54438e-09 1.01556e-13 0
-6.79083e-09 -4.87572e-09 0
-1.8281e-08 -9.45652e-09 0
-3.40403e-08 -4.7954e-09 0
-4.12076e-08 4.08443e-09 0
-3.56899e-08 1.02237e-08 0
-2.21154e-08 1.06604e-08 0
-9.33349e-09 6.83531e-09 0
-3.33518e-09 1.5791e-09 0
-3.93374e-09 -2.65621e-09 0
-7.63625e-09 -4.73847e-09 0
-1.16254e-08 -4.96404e-09 0
-1.49316e-08 -4.2563e-09 0
-1.76188e-08 -3.35669e-09 0
-1.99155e-08 -2.59108e-09 0
-2.19191e-08 -2.01554e-09 0
-2.36328e-08 -1.59593e-09 0
-2.50479e-08 -1.29717e-09 0
-2.61852e-08 -1.10427e-09 0
-2.70952e-08 -1.01818e-09 0
-2.78498e-08 -1.04993e-09 0
-2.85249e-08 -1.22441e-09 0
-2.91908e-08 -1.58427e-09 0
-2.99597e-08 -2.18637e-09 0
-3.088e-08 -3.13884e-09 0
-3.18474e-08 -4.5604e-09 0
-3.30658e-08 -6.57573e-09 0
-3.35952e-08 -9.06293e-09 0
-3.11784e-08 -1.11355e-08 0
-2.64401e-08 -1.19928e-08 0
-2.03256e-08 -1.16712e-08 0
-1.42124e-08 -1.05882e-08 0
-8.9083e-09 -9.19584e-09 0
-4.42687e-09 -7.79867e-09 0
-2.93664e-10 -6.59617e-09 0
3.95419e-09 -5.66018e-09 0
8.3646e-09 -4.86913e-09 0
1.25978e-08 -4.00685e-09 0
1.6235e-08 -2.93497e-09 0
1.90035e-08 -1.71048e-09 0
2.06192e-08 -7.07837e-10 0
0.00537285 -7.36266e-05 0
0 -4.84112e-07 0
2.03737e-12 -1.24266e-10 0
4.98316e-10 -5.47223e-10 0
-1.34625e-09 -1.09422e-09 0
-6.97598e-09 -1.29448e-09 0
-1.46297e-08 -9.17596e-10 0
-1.82323e-08 6.78663e-10 0
-1.72391e-08 -1.34532e-10 0
-2.00342e-08 -1.73084e-09 0
-1.85224e-08 -6.5103e-10 0
-1.6478e-08 5.83525e-10 0
-2.08086e-08 2.69632e-09 0
-2.62519e-08 4.72435e-09 0
-2.64918e-08 5.01978e-09 0
-1.92878e-08 3.90031e-09 0
-8.8988e-09 1.72224e-09 0
-2.03741e-09 -8.81957e-10 0
-2.02235e-09 -2.81764e-09 0
-7.05797e-09 -3.35375e-09 0
-1.33721e-08 -2.72443e-09 0
-1.85012e-08 -1.69586e-09 0
-2.19142e-08 -8.57188e-10 0
-2.40583e-08 -3.84718e-10 0
-2.54895e-08 -1.99026e-10 0
-2.65593e-08 -1.64577e-10 0
-2.74306e-08 -1.8566e-10 0
-2.81689e-08 -2.19694e-10 0
-2.8809e-08 -2.58163e-10 0
-2.93855e-08 -3.08907e-10 0
-2.99438e-08 -3.86861e-10 0
-3.05401e-08 -5.11607e-10 0
-3.12429e-08 -7.0971e-10 0
-3.21559e-08 -1.01013e-09 0
-3.33601e-08 -1.47125e-09 0
-3.48707e-08 -2.17123e-09 0
-3.68111e-08 -3.0255e-09 0
-3.80922e-08 -3.71397e-09 0
-3.65446e-08 -3.75579e-09 0
-3.35629e-08 -3.13941e-09 0
-2.98056e-08 -2.33536e-09 0
-2.64882e-08 -1.67428e-09 0
-2.38713e-08 -1.28146e-09 0
-2.13948e-08 -1.08851e-09 0
-1.84978e-08 -9.93498e-10 0
-1.50353e-08 -9.36668e-10 0
-1.12734e-08 -8.58307e-10 0
-7.65475e-09 -6.96144e-10 0
-4.54825e-09 -4.25402e-10 0
-2.17265e-09 -1.15783e-10 0
-8.38268e-10 6.5642e-11 0
0.00382814 -4.84254e-05 0
0 0 0
1.51657e-12 0 0
3.1358e-10 0 0
-6.48838e-10 0 0
-3.31457e-09 0 0
-7.03807e-09 0 0
-9.59266e-09 0 0
-9.13128e-09 0 0
-1.07357e-08 0 0
-1.09782e-08 0 0
-9.6838e-09 0 0
-8.11039e-09 0 0
-6.35771e-09 0 0
-4.53375e-09 0 0
-2.23297e-09 0 0
-1.47646e-10 0 0
3.18079e-10 0 0
-1.33209e-09 0 0
-4.18307e-09 0 0
-6.92331e-09 0 0
-8.84459e-09 0 0
-9.93904e-09 0 0
-1.05006e-08 0 0
-1.08068e-08 0 0
-1.10197e-08 0 0
-1.12076e-08 0 0
-1.13918e-08 0 0
-1.15778e-08 0 0
-1.17713e-08 0 0
-1.19847e-08 0 0
-1.22382e-08 0 0
-1.2562e-08 0 0
-1.30004e-08 0 0
-1.35966e-08 0 0
-1.43929e-08 0 0
-1.53983e-08 0 0
-1.60241e-08 0 0
-1.53878e-08 0 0
-1.44212e-08 0 0
-1.34052e-08 0 0
-1.28247e-08 0 0
-1.26067e-08 0 0
-1.23024e-08 0 0
-1.16084e-08 0 0
-1.05239e-08 0 0
-9.22786e-09 0 0
-7.92691e-09 0 0
-6.77098e-09 0 0
-5.85755e-09 0 0
-5.34751e-09 0 0
0.00136767 0 0
0 0 5.41236e-07
1.26661e-13 0 2.57346e-10
-1.93805e-10 0 1.11308e-09
2.54984e-09 0 4.31665e-09
-1.14735e-08 0 1.20602e-09
5.88128e-09 0 -3.3825e-09
1.12854e-08 0 -1.45421e-09
1.18014e-08 0 -1.43528e-10
1.16965e-08 0 7.84037e-10
1.23221e-08 0 1.81293e-09
1.40866e-08 0 2.91949e-09
1.69047e-08 0 3.22648e-09
1.9613e-08 0 2.32728e-09
2.01183e-08 0 1.06389e-09
1.69435e-08 0 3.23121e-10
1.09307e-08 0 8.80474e-11
4.30846e-09 0 1.43221e-11
-1.43169e-09 0 2.79581e-11
-6.24167e-09 0 1.92901e-10
-1.07013e-08 0 4.64601e-10
-1.51466e-08 0 7.10132e-10
-1.94738e-08 0 8.29895e-10
-2.3376e-08 0 8.08076e-10
-2.66015e-08 0 6.8765e-10
-2.906e-08 0 5.26232e-10
-3.08046e-08 0 3.67852e-10
-3.19662e-08 0 2.35377e-10
-3.26946e-08 0 1.34828e-10
-3.31235e-08 0 6.27496e-11
-3.33568e-08 0 1.20255e-11
-3.34664e-08 0 -2.50162e-11
-3.34929e-08 0 -5.44216e-11
-3.34518e-08 0 -7.86211e-11
-3.33499e-08 0 -1.00513e-10
-3.31682e-08 0 -1.31243e-10
-3.28048e-08 0 -1.82253e-10
-3.21094e-08 0 -2.46091e-10
-3.10148e-08 0 -2.97684e-10
-2.95988e-08 0 -3.16175e-10
-2.80252e-08 0 -2.98584e-10
-2.6451e-08 0 -2.55269e-10
-2.49786e-08 0 -2.00745e-10
-2.36438e-08 0 -1.50284e-10
-2.24151e-08 0 -1.17553e-10
-2.1216e-08 0 -1.08579e-10
-1.99808e-08 0 -1.17117e-10
-1.87147e-08 0 -1.26784e-10
-1.75223e-08 0 -1.22587e-10
-1.65832e-08 0 -1.08129e-10
-1.60857e-08 0 -1.16807e-10
0.00401199 0 1.13873e-05
0.0036 -3.10439e-07 -6.30463e-08
0.0035998 -0.00138955 -2.29052e-05
0.00670757 -0.00393112 0.000109077
0.0136124 -0.0058909 -0.000511951
0.0235138 -0.0144583 -0.00427839
0.0463508 -0.0133909 -0.00488189
0.0498704 -0.00191816 -0.00164328
0.0496085 0.00264623 -0.000162316
0.0446203 0.00497188 0.000570767
0.0390144 0.00513895 0.00055712
0.0339124 0.0044711 0.000285891
0.0296231 0.00358735 8.79209e-06
0.026217 0.00271354 -0.000186525
0.0236319 0.00194584 -0.000283008
0.0217155 0.00133409 -0.000295849
0.0202934 0.000891199 -0.00025214
0.0192242 0.000596708 -0.000181253
0.0184133 0.000411324 -0.000108794
0.0178009 0.00029429 -5.12564e-05
0.0173461 0.000215374 -1.41218e-05
0.0170171 0.000157502 5.13872e-06
0.0167861 0.000113103 1.22658e-05
0.0166289 7.92917e-05 1.27559e-05
0.0165247 5.46646e-05 1.04648e-05
0.0164564 3.79637e-05 7.56533e-06
0.0164105 2.78474e-05 5.02935e-06
0.0163768 2.30555e-05 3.1463e-06
0.0163477 2.25955e-05 1.89534e-06
0.016317 2.58425e-05 1.15956e-06
0.0162797 3.25541e-05 8.27642e-07
0.0162307 4.28414e-05 8.35967e-07
0.016165 5.71211e-05 1.18927e-06
0.0160763 7.59707e-05 1.94091e-06
0.0159575 9.98915e-05 3.1575e-06
0.0158007 0.0001292 5.0029e-06
0.0155973 0.000163607 7.73855e-06
0.01534 0.000200867 1.1309e-05
0.0150261 0.000235898 1.49986e-05
0.0146616 0.000262059 1.77518e-05
0.0142617 0.000273845 1.88232e-05
0.0138478 0.000268955 1.81167e-05
0.0134426 0.000248645 1.60552e-05
0.013066 0.000216707 1.32627e-05
0.0127328 0.000177981 1.03291e-05
0.0124521 0.000136994 7.68422e-06
0.0122275 9.70788e-05 5.5379e-06
0.012059 6.00513e-05 3.85267e-06
0.0119438 2.64891e-05 2.31548e-06
0.0118772 -7.05153e-07 2.92298e-06
0.0118547 -8.44894e-06 1.65639e-05
0.0118547 -4.90079e-06 2.88085e-05
0.01 -1.39364e-07 -1.47082e-06
0.0100008 -0.00298784 -0.000599762
0.014786 -0.00996056 -0.000793639
0.0241765 -0.0177385 -0.0012416
0.0385693 -0.0325567 -0.00334649
0.0592528 -0.0248652 -0.00081974
0.0564899 -0.00273981 0.00317684
0.0559257 0.00508942 0.00338747
0.050143 0.0100676 0.0030075
0.0446709 0.0102151 0.00211662
0.0401724 0.00913619 0.00116702
0.0364659 0.00772127 0.000418447
0.0334979 0.00624861 -0.000101633
0.0312228 0.00488544 -0.000403824
0.0294836 0.00373183 -0.000509392
0.0281299 0.00280877 -0.000470126
0.0270681 0.00208851 -0.000353959
0.0262471 0.00153272 -0.000222123
0.025631 0.00110782 -0.000113072
0.0251852 0.000786683 -4.02492e-05
0.0248745 0.000547474 -3.75612e-07
0.0246658 0.000372746 1.64399e-05
0.0245308 0.000248597 2.00528e-05
0.0244462 0.000163757 1.75918e-05
0.0243936 0.000108983 1.32326e-05
0.0243593 7.68441e-05 8.96757e-06
0.0243327 6.16774e-05 5.49716e-06
0.0243062 5.95364e-05 2.89573e-06
0.0242736 6.80565e-05 1.00804e-06
0.0242293 8.62549e-05 -3.5498e-07
0.0241676 0.000114293 -1.33695e-06
0.024082 0.000153288 -1.97676e-06
0.0239643 0.000205034 -2.19652e-06
0.0238046 0.000271328 -1.89405e-06
0.0235909 0.000353391 -7.86817e-07
0.0233098 0.000450916 1.71429e-06
0.0229484 0.000558939 5.60172e-06
0.0225001 0.000665231 9.37941e-06
0.0219703 0.000752809 1.08413e-05
0.0213787 0.000806277 8.67213e-06
0.0207545 0.000817192 3.20267e-06
0.02013 0.00078562 -4.04666e-06
0.0195345 0.000718348 -1.12799e-05
0.0189915 0.000625752 -1.70566e-05
0.0185171 0.000518754 -2.05538e-05
0.0181207 0.000406527 -2.16315e-05
0.0178065 0.000295622 -2.0674e-05
0.0175746 0.000190214 -1.86772e-05
0.0174214 9.30797e-05 -1.43029e-05
0.0173483 1.81484e-05 1.26724e-05
0.0173482 -1.05896e-05 3.63543e-05
0.0148 -9.70776e-07 -1.76687e-06
0.0148024 -0.00529674 -0.00112688
0.0203896 -0.016434 -0.00244733
0.0275644 -0.0288513 -0.00394068
0.0322193 -0.0462394 -0.00577123
0.030685 -0.0285452 -0.00142052
0.026895 -1.24713e-05 0.00329821
0.0263344 0.00706169 0.00352291
0.0298351 0.0144107 0.00343767
0.030182 0.0138367 0.00247232
0.0293805 0.0120602 0.00150382
0.0285509 0.0102204 0.000662729
0.0279267 0.00834258 5.83742e-05
0.0276147 0.00658402 -0.000299264
0.0274893 0.00509 -0.000428537
0.0274496 0.00386032 -0.000398715
0.0274525 0.00285911 -0.00029082
0.027483 0.00206177 -0.00016864
0.0275314 0.00144847 -6.85002e-05
0.0275883 0.000993403 -2.69945e-06
0.027646 0.000665725 3.1376e-05
0.0277003 0.00043584 4.2685e-05
0.0277486 0.000279318 4.0821e-05
0.0277893 0.000177338 3.31923e-05
0.0278209 0.000115665 2.43426e-05
0.027842 8.36826e-05 1.64564e-05
0.0278514 7.38101e-05 1.02235e-05
0.0278476 8.1134e-05 5.58348e-06
0.0278288 0.000103094 2.20736e-06
0.0277925 0.000139182 -2.42569e-07
0.0277347 0.000190612 -2.01748e-06
0.0276494 0.000260032 -3.19973e-06
0.0275284 0.000351272 -3.58698e-06
0.0273606 0.000468342 -2.85557e-06
0.0271309 0.000614309 -3.95016e-07
0.0268216 0.000789985 5.10403e-06
0.0264126 0.000988237 1.37891e-05
0.0258907 0.00118818 2.24185e-05
0.0252608 0.00135925 2.60967e-05
0.0245484 0.0014729 2.19373e-05
0.0237918 0.00151255 1.06962e-05
0.0230326 0.00147647 -4.29033e-06
0.0223067 0.0013746 -1.92137e-05
0.0216421 0.00122327 -3.11701e-05
0.0210578 0.00104035 -3.85994e-05
0.0205654 0.000841474 -4.13065e-05
0.0201706 0.000638055 -4.00422e-05
0.0198758 0.000437354 -3.62442e-05
0.0196795 0.000243697 -3.01062e-05
0.0195836 6.75096e-05 4.48654e-06
0.0195835 -1.39973e-05 3.52441e-05
0.018 -1.95643e-06 -1.71527e-06
0.018003 -0.00700323 -0.00187641
0.0207824 -0.0190124 -0.00492417
0.0207381 -0.0250151 -0.00634032
0.0160977 -0.0270394 -0.0076276
-1.62231e-06 -0.0140433 -0.00433605
9.46618e-05 2.28429e-05 9.33526e-07
-2.99658e-05 3.13273e-05 0.000655009
0.00657116 0.00407889 0.00144198
0.0134288 0.00925421 0.0014117
0.0168411 0.0100617 0.00100197
0.0186189 0.00909204 0.000462498
0.0203158 0.00754552 -2.51837e-05
0.0220083 0.00591186 -0.000294699
0.0235318 0.00450866 -0.000362356
0.0248222 0.00334312 -0.00031152
0.0258857 0.00238648 -0.000214563
0.0267482 0.00163107 -0.00011549
0.0274341 0.00106811 -3.54223e-05
0.0279651 0.00067198 1.83464e-05
0.0283646 0.000405743 4.6607e-05
0.0286576 0.000233521 5.49445e-05
0.0288681 0.000127327 5.08075e-05
0.0290161 6.74601e-05 4.09293e-05
0.0291172 4.04006e-05 2.99295e-05
0.0291825 3.69504e-05 2.02128e-05
0.02922 5.1202e-05 1.2589e-05
0.0292348 8.00171e-05 7.00231e-06
0.0292296 0.000122685 3.06883e-06
0.029205 0.000180677 4.14679e-07
0.029159 0.000257396 -1.18361e-06
0.0290868 0.000357888 -1.72288e-06
0.0289806 0.000488813 -6.72177e-07
0.0288282 0.000657478 2.88675e-06
0.0286116 0.000870277 1.04437e-05
0.0283065 0.00113161 2.52415e-05
0.0278809 0.00143423 4.84014e-05
0.0273092 0.00174683 7.29969e-05
0.0265953 0.00202018 8.77234e-05
0.0257751 0.0022081 8.55041e-05
0.0249029 0.00228403 6.72986e-05
0.0240336 0.00224505 3.98907e-05
0.0232111 0.00210592 1.10847e-05
0.0224658 0.00189043 -1.33408e-05
0.0218167 0.00162423 -3.0435e-05
0.021274 0.00132976 -3.99023e-05
0.0208425 0.00102342 -4.32439e-05
0.0205235 0.000715551 -4.27689e-05
0.0203148 0.000413083 -3.95765e-05
0.0202167 0.000125418 -5.13962e-06
0.0202165 -1.31343e-05 2.69788e-05
0.0196 -2.83993e-06 -2.5878e-06
0.019601 -0.00591382 -0.00274444
0.0190567 -0.0131967 -0.00648049
0.0159419 -0.0162265 -0.00668853
0.0108866 -0.0152082 -0.00668979
0.00172417 -0.00626739 -0.00504408
6.95494e-05 -6.35627e-05 -0.00130428
3.35969e-05 -3.35969e-05 -4.19592e-08
-2.93553e-05 3.05763e-05 0.000261036
0.00390797 0.00275066 0.000557628
0.00894421 0.00643162 0.000488405
0.011859 0.00671515 0.000137796
0.0151059 0.00525678 -0.000245446
0.0182584 0.0038273 -0.000408111
0.0209583 0.00273183 -0.000400822
0.0231438 0.00186796 -0.000318661
0.0248737 0.00117202 -0.00022088
0.0262254 0.00064019 -0.000132153
0.0272617 0.000274444 -5.98646e-05
0.0280337 5.32946e-05 -6.95648e-06
0.0285895 -6.18548e-05 2.53627e-05
0.0289769 -0.000109075 3.92055e-05
0.029239 -0.000116063 3.98418e-05
0.0294116 -9.97803e-05 3.34007e-05
0.0295216 -6.97357e-05 2.473e-05
0.0295886 -3.08545e-05 1.66451e-05
0.0296258 1.49779e-05 1.02776e-05
0.0296417 6.82162e-05 5.77887e-06
0.0296413 0.000131306 2.90421e-06
0.0296265 0.000208545 1.42805e-06
0.0295965 0.000306079 1.38093e-06
0.0295473 0.000431771 3.09987e-06
0.0294712 0.000595528 7.76983e-06
0.029355 0.000808879 1.75454e-05
0.0291764 0.00108324 3.59245e-05
0.0289026 0.00143025 7.11361e-05
0.0284819 0.00184662 0.000128549
0.0278649 0.00228818 0.000194328
0.0270543 0.00267908 0.000242035
0.0261056 0.00294969 0.00025377
0.0251007 0.00306277 0.000229683
0.0241155 0.00301682 0.000183169
0.0232027 0.00283466 0.000129922
0.0223933 0.00254969 8.13316e-05
0.0217024 0.00219633 4.29935e-05
0.0211352 0.00180396 1.54076e-05
0.0206922 0.00139378 -4.06692e-06
0.0203719 0.000979398 -1.89927e-05
0.0201693 0.000570894 -3.04786e-05
0.0200805 0.00018001 -9.76876e-06
0.0200802 -9.30065e-06 1.56566e-05
0.0196 -1.3679e-06 -3.61065e-06
0.0195999 -0.00369134 -0.00312686
0.0187644 -0.00810409 -0.00652084
0.0175129 -0.00813531 -0.00605302
0.0131877 -0.00430483 -0.00554428
0.00908944 0.00257083 -0.00533234
0.00614699 0.00315447 -0.00311587
6.97229e-05 -5.74026e-05 -0.000672558
2.80472e-05 -2.80472e-05 -1.28338e-07
-2.88158e-05 2.98948e-05 9.50075e-05
0.00270734 0.00193294 0.000361015
0.00700582 0.00301961 0.000262065
0.0122752 0.00148573 -0.000162495
0.0169104 0.000490975 -0.000349105
0.0205115 3.01931e-05 -0.000354357
0.0231934 -0.000243412 -0.000287235
0.025167 -0.000457898 -0.000211707
0.0266047 -0.000606282 -0.000147512
0.0276283 -0.000662415 -9.38246e-05
0.0283294 -0.000632209 -4.9321e-05
0.0287867 -0.000547173 -1.63908e-05
0.0290697 -0.000440621 3.32058e-06
0.0292354 -0.000334251 1.16367e-05
0.029327 -0.000237645 1.26183e-05
0.029374 -0.000152695 1.02417e-05
0.0293958 -7.74052e-05 7.15557e-06
0.029404 -7.87802e-06 4.65682e-06
0.0294053 6.09185e-05 3.19952e-06
0.0294031 0.000134958 2.88951e-06
0.0293984 0.000221275 3.88266e-06
0.0293903 0.000328382 6.73977e-06
0.0293752 0.000466601 1.2507e-05
0.0293457 0.000648775 2.35259e-05
0.0292879 0.00089086 4.42145e-05
0.0291752 0.00121035 8.20411e-05
0.0289639 0.00162953 0.000156321
0.0285745 0.00215475 0.000285276
0.0279156 0.00272656 0.000442947
0.0269869 0.0032327 0.000568275
0.0258788 0.00357621 0.000618671
0.0247186 0.00371232 0.000592649
0.0236105 0.00364658 0.000516734
0.0226156 0.00341418 0.000421379
0.0217603 0.0030598 0.00032792
0.0210504 0.00262645 0.000246468
0.0204816 0.00214939 0.000178132
0.0200477 0.00165337 0.000119116
0.0197428 0.00115454 6.48378e-05
0.019559 0.000666604 1.55122e-05
0.0194867 0.00020823 -3.29629e-07
0.0194865 -1.07098e-05 6.68644e-06
0.018 -8.71565e-07 -3.60279e-06
0.0180009 -0.00201153 -0.0030496
0.0183164 -0.00388441 -0.00616084
0.0183721 -0.00267775 -0.00528734
0.0173548 0.000620202 -0.0041961
0.0170768 0.00707272 -0.00396596
0.0178121 0.0125792 -0.00300232
0.01094 0.00693064 -0.00149618
7.12107e-05 -4.35944e-05 -0.000435989
-2.18061e-05 -5.13633e-05 5.61305e-07
7.96236e-06 -0.000711504 0.000746361
0.00827541 -0.00286914 0.00108405
0.0155833 -0.00442206 0.000450794
0.0205634 -0.00407798 0.000137195
0.0237304 -0.00321118 1.80981e-05
0.0257226 -0.00248143 -2.84408e-05
0.0269712 -0.0019824 -5.87375e-05
0.0277294 -0.00162082 -8.27853e-05
0.0281516 -0.00131059 -9.20403e-05
0.028347 -0.00102259 -8.30464e-05
0.0284007 -0.000764162 -6.2769e-05
0.0283777 -0.000547857 -4.11083e-05
0.0283224 -0.000376964 -2.41079e-05
0.0282614 -0.000246006 -1.30133e-05
0.0282082 -0.000145627 -6.48877e-06
0.0281685 -6.60501e-05 -2.69229e-06
0.0281433 1.63863e-06 -1.73402e-07
0.0281321 6.54607e-05 2.05224e-06
0.028134 0.000133041 4.71898e-06
0.0281479 0.000212269 8.61721e-06
0.0281727 0.000312177 1.50674e-05
0.0282062 0.000443871 2.62133e-05
0.0282428 0.000621587 4.61773e-05
0.0282703 0.000864394 8.29979e-05
0.0282597 0.00119509 0.000151011
0.0281574 0.00164511 0.000289305
0.0278536 0.00223173 0.000542335
0.0271901 0.00288089 0.000860792
0.0261609 0.00344444 0.00111639
0.0249068 0.00380555 0.00122501
0.0236192 0.00392221 0.00118895
0.022431 0.00381524 0.00106208
0.0214019 0.00353505 0.000899402
0.0205447 0.00313546 0.000735807
0.0198501 0.00266367 0.000586079
0.0193023 0.00215596 0.000451247
0.0188887 0.0016364 0.000326133
0.0186008 0.00112074 0.000205703
0.0184307 0.000624853 9.32522e-05
0.0183677 0.000176929 1.90454e-05
0.0183675 -3.03209e-05 -2.21361e-06
0.0148 -4.89193e-07 -3.19184e-06
0.0148015 -0.00103695 -0.00282915
0.0162306 -0.00164837 -0.0054257
0.0177951 -3.31532e-05 -0.00429159
0.0191202 0.00317222 -0.00306966
0.0208598 0.00735354 -0.00284801
0.0246754 0.0129796 -0.00241176
0.0279681 0.0195129 -0.00151559
0.0229975 0.0112934 -0.000343878
0.0234493 8.17612e-11 0.000624833
0.0265936 -0.00670661 0.00155888
0.0300155 -0.0130993 0.00210926
0.0308445 -0.011032 0.00163937
0.0302768 -0.00771296 0.0011462
0.0292854 -0.00508905 0.000701901
0.0283002 -0.00337446 0.000352269
0.0274519 -0.00230202 0.000107809
0.0267536 -0.00159951 -4.05975e-05
0.0261874 -0.00110442 -0.000108109
0.0257351 -0.000744072 -0.000117579
0.0253821 -0.000486826 -9.63465e-05
0.0251152 -0.000310179 -6.67943e-05
0.0249207 -0.000191965 -4.11259e-05
0.0247851 -0.000112313 -2.29436e-05
0.0246958 -5.59577e-05 -1.13895e-05
0.024643 -1.21974e-05 -4.30886e-06
0.0246191 2.64338e-05 3.01293e-07
0.0246194 6.56441e-05 3.97292e-06
0.0246417 0.000110597 7.94105e-06
0.0246858 0.00016684 1.34925e-05
0.0247529 0.000241203 2.25603e-05
0.0248446 0.000342884 3.83882e-05
0.0249604 0.000484594 6.71205e-05
0.0250937 0.000684831 0.000121207
0.0252202 0.000966953 0.000224596
0.025286 0.0013574 0.000439517
0.0251586 0.00186763 0.000835449
0.0245936 0.00242205 0.00131534
0.0235907 0.00288496 0.00167433
0.0223252 0.00315137 0.00179806
0.0210627 0.00319048 0.00170678
0.0199403 0.00304346 0.00150266
0.0189944 0.00276772 0.00126802
0.0182152 0.00241272 0.00104364
0.0175794 0.00201624 0.000840418
0.017067 0.00160404 0.000653938
0.0166676 0.00119143 0.000475707
0.0163776 0.000788598 0.000300577
0.0161955 0.000408257 0.000135908
0.0161191 7.99491e-05 1.4738e-05
0.0161189 -6.5818e-05 -2.88158e-05
0.01 -9.34669e-07 -2.89159e-06
0.0100008 -0.000635366 -0.0023039
0.0113223 -0.000714022 -0.00414355
0.0131877 0.000551256 -0.00291097
0.0156265 0.0025209 -0.00181497
0.0195317 0.00556778 -0.00182492
0.0254529 0.00836534 -0.0023714
0.0345644 0.010121 -0.00209634
0.0461839 0.00482471 -0.000512828
0.0459363 -0.00402231 0.000986187
0.0454392 -0.00822969 0.00162428
0.0381327 -0.0084184 0.00180127
0.0311733 -0.00577915 0.00155375
0.026073 -0.00334328 0.00113298
0.0226817 -0.00174736 0.000701358
0.0204988 -0.000860011 0.000353145
0.0190977 -0.000411697 0.000118925