# vtk DataFile Version 2.0
Tobias Weinzierl: CPU, Manycore and Cluster Computing
ASCII

DATASET STRUCTURED_POINTS
DIMENSIONS  51 11 6

ORIGIN 0 0 0 

SPACING 0.1 0.1 0.1 

POINT_DATA 3366

VECTORS velocity float
0 0 0
1.47466e-08 0 0
6.84437e-09 0 0
1.5318e-09 0 0
2.27379e-10 0 0
2.53082e-11 0 0
2.26085e-12 0 0
1.68952e-13 0 0
1.086e-14 0 0
6.12611e-16 0 0
3.07916e-17 0 0
1.39562e-18 0 0
5.75959e-20 0 0
2.1816e-21 0 0
7.6356e-23 0 0
2.48363e-24 0 0
7.54502e-26 0 0
2.15003e-27 0 0
5.76891e-29 0 0
1.46244e-30 0 0
3.51325e-32 0 0
8.01985e-34 0 0
1.74388e-35 0 0
3.62014e-37 0 0
7.18916e-39 0 0
1.36831e-40 0 0
2.50025e-42 0 0
4.39305e-44 0 0
7.43301e-46 0 0
1.21274e-47 0 0
1.9104e-49 0 0
2.909e-51 0 0
4.28653e-53 0 0
6.11868e-55 0 0
8.46875e-57 0 0
1.13759e-58 0 0
1.48433e-60 0 0
1.88281e-62 0 0
2.32351e-64 0 0
2.79165e-66 0 0
3.26778e-68 0 0
3.72912e-70 0 0
4.15135e-72 0 0
4.51086e-74 0 0
4.78698e-76 0 0
4.96397e-78 0 0
5.03252e-80 0 0
4.9905e-82 0 0
4.84294e-84 0 0
4.64407e-86 0 0
4.32878e-84 0 0
0 -1.39256e-203 0
7.97889e-08 -3.12157e-201 0
3.81904e-08 -6.20023e-199 0
8.44907e-09 -1.07296e-196 0
1.23427e-09 -1.67758e-194 0
1.3433e-10 -2.29548e-192 0
1.17804e-11 -2.32731e-190 0
8.67921e-13 -3.62362e-192 0
5.51893e-14 -2.37762e-190 0
3.0875e-15 -4.09927e-188 0
1.54185e-16 -6.93498e-186 0
6.95257e-18 -1.15402e-183 0
2.85737e-19 -1.88892e-181 0
1.07863e-20 -3.04009e-179 0
3.76456e-22 -4.80899e-177 0
1.22159e-23 -7.47344e-175 0
3.7036e-25 -1.14047e-172 0
1.05355e-26 -1.70814e-170 0
2.82262e-28 -2.50962e-168 0
7.14608e-30 -3.61483e-166 0
1.71474e-31 -5.10146e-164 0
3.91033e-33 -7.04919e-162 0
8.49509e-35 -9.53041e-160 0
1.76208e-36 -1.25972e-157 0
3.49671e-38 -1.62653e-155 0
6.65087e-40 -2.04965e-153 0
1.21456e-41 -2.51818e-151 0
2.13286e-43 -3.01307e-149 0
3.60699e-45 -3.50687e-147 0
5.88232e-47 -3.96492e-145 0
9.26235e-49 -4.34816e-143 0
1.40985e-50 -4.6175e-141 0
2.07672e-52 -4.7394e-139 0
2.96335e-54 -4.6917e-137 0
4.10024e-56 -4.46862e-135 0
5.50617e-58 -4.08359e-133 0
7.18253e-60 -3.56889e-131 0
9.1084e-62 -2.97168e-129 0
1.12377e-63 -2.34695e-127 0
1.34988e-65 -1.74867e-125 0
1.57978e-67 -1.22118e-123 0
1.80245e-69 -7.92878e-122 0
2.00616e-71 -4.73756e-120 0
2.17951e-73 -2.57087e-118 0
2.31254e-75 -1.2448e-116 0
2.39766e-77 -5.24697e-115 0
2.43041e-79 -1.85675e-113 0
2.40977e-81 -5.20596e-112 0
2.3382e-83 -1.0414e-110 0
2.24189e-85 -1.16699e-109 0
2.10836e-83 -1.68361e-107 0
0 -4.70187e-202 0
2.01151e-07 -1.04251e-199 0
1.01964e-07 -2.56536e-197 0
2.23409e-08 -5.55711e-195 0
3.18907e-09 -1.14706e-192 0
3.15839e-10 -2.32714e-190 0
2.61144e-11 -4.66287e-188 0
1.84932e-12 -2.70836e-190 0
1.14502e-13 -7.82619e-189 0
6.28626e-15 -1.38458e-186 0
3.09616e-16 -2.36884e-184 0
1.38156e-17 -3.9801e-182 0
5.63173e-19 -6.57858e-180 0
2.11213e-20 -1.0695e-177 0
7.33267e-22 -1.70948e-175 0
2.36905e-23 -2.68534e-173 0
7.1561e-25 -4.14367e-171 0
2.02933e-26 -6.2779e-169 0
5.42235e-28 -9.33386e-167 0
1.36959e-29 -1.36109e-164 0
3.27972e-31 -1.9455e-162 0
7.46566e-33 -2.72408e-160 0
1.6193e-34 -3.73381e-158 0
3.35397e-36 -5.00616e-156 0
6.64708e-38 -6.56032e-154 0
1.26281e-39 -8.39521e-152 0
2.30363e-41 -1.0481e-149 0
4.04138e-43 -1.27522e-147 0
6.82838e-45 -1.51031e-145 0
1.11265e-46 -1.73894e-143 0
1.75063e-48 -1.94364e-141 0
2.66275e-50 -2.10554e-139 0
3.91959e-52 -2.20667e-137 0
5.58948e-54 -2.23278e-135 0
7.72927e-56 -2.17605e-133 0
1.03737e-57 -2.03723e-131 0
1.35248e-59 -1.82639e-129 0
1.71426e-61 -1.56221e-127 0
2.11399e-63 -1.26938e-125 0
2.53819e-65 -9.74709e-124 0
2.96918e-67 -7.028e-122 0
3.38628e-69 -4.72098e-120 0
3.76748e-71 -2.92508e-118 0
4.09146e-73 -1.6501e-116 0
4.33958e-75 -8.32897e-115 0
4.49772e-77 -3.67131e-113 0
4.55759e-79 -1.36331e-111 0
4.5174e-81 -4.02649e-110 0
4.38184e-83 -8.51762e-109 0
4.20005e-85 -1.01154e-107 0
3.96963e-83 -1.49211e-105 0
0 -8.19764e-204 0
3.44959e-07 -1.83422e-201 0
1.88049e-07 -3.60044e-199 0
4.10411e-08 -5.34388e-197 0
5.69287e-09 -5.59086e-195 0
2.06817e-10 -5.53778e-195 0
1.65948e-11 0 0
1.15035e-12 9.23103e-186 0
7.38626e-14 -2.03344e-187 0
4.16738e-15 -4.07784e-185 0
2.09652e-16 -7.1367e-183 0
9.51435e-18 -1.21233e-180 0
3.93205e-19 -2.02413e-178 0
1.49156e-20 -3.32512e-176 0
5.22807e-22 -5.37232e-174 0
1.70292e-23 -8.53341e-172 0
5.18022e-25 -1.33199e-169 0
1.47801e-26 -2.04219e-167 0
3.97043e-28 -3.07393e-165 0
1.00762e-29 -4.54006e-163 0
2.42308e-31 -6.5759e-161 0
5.53647e-33 -9.33486e-159 0
1.20493e-34 -1.29788e-156 0
2.50334e-36 -1.76613e-154 0
4.97502e-38 -2.35038e-152 0
9.47542e-40 -3.05643e-150 0
1.73251e-41 -3.88017e-148 0
3.04587e-43 -4.80403e-146 0
5.15638e-45 -5.79422e-144 0
8.41714e-47 -6.79956e-142 0
1.32654e-48 -7.7529e-140 0
2.02081e-50 -8.57579e-138 0
2.9789e-52 -9.18661e-136 0
4.25367e-54 -9.51155e-134 0
5.88937e-56 -9.49693e-132 0
7.91349e-58 -9.12062e-130 0
1.03284e-59 -8.39972e-128 0
1.31045e-61 -7.39209e-126 0
1.61756e-63 -6.19024e-124 0
1.94387e-65 -4.90784e-122 0
2.27586e-67 -3.6613e-120 0
2.59761e-69 -2.55041e-118 0
2.89219e-71 -1.64281e-116 0
3.14311e-73 -9.66181e-115 0
3.33593e-75 -5.1005e-113 0
3.45967e-77 -2.35972e-111 0
3.5078e-79 -9.23407e-110 0
3.47882e-81 -2.88678e-108 0
3.37622e-83 -6.49416e-107 0
3.23779e-85 -8.22674e-106 0
3.05318e-83 -1.2414e-103 0
0 -8.95822e-206 0
4.71035e-07 -2.02296e-203 0
2.74074e-07 -3.34763e-201 0
5.99345e-08 -3.82405e-199 0
8.10756e-09 -2.71024e-197 0
0 -2.67233e-197 0
0 0 0
0 0 0
3.68942e-15 -1.82405e-183 0
3.7141e-16 -9.43327e-184 0
2.49702e-17 -1.84651e-181 0
1.35807e-18 -3.19788e-179 0
6.36311e-20 -5.39511e-177 0
2.64823e-21 -8.95857e-175 0
9.9704e-23 -1.46359e-172 0
3.43793e-24 -2.35164e-170 0
1.09554e-25 -3.71462e-168 0
3.24899e-27 -5.76577e-166 0
9.01779e-29 -8.79013e-164 0
2.35351e-30 -1.31556e-161 0
5.79857e-32 -1.93181e-159 0
1.35332e-33 -2.7817e-157 0
3.00092e-35 -3.92528e-155 0
6.33921e-37 -5.42442e-153 0
1.27871e-38 -7.33563e-151 0
2.46823e-40 -9.70007e-149 0
4.56792e-42 -1.2531e-146 0
8.11954e-44 -1.57996e-144 0
1.38843e-45 -1.94224e-142 0
2.28736e-47 -2.32507e-140 0
3.63548e-49 -2.70696e-138 0
5.5815e-51 -3.06054e-136 0
8.28732e-53 -3.3548e-134 0
1.19132e-54 -3.55853e-132 0
1.65972e-56 -3.6448e-130 0
2.24311e-58 -3.59585e-128 0
2.94355e-60 -3.40721e-126 0
3.75371e-62 -3.09026e-124 0
4.6555e-64 -2.672e-122 0
5.61975e-66 -2.19186e-120 0
6.60728e-68 -1.69567e-118 0
7.5714e-70 -1.228e-116 0
8.46167e-72 -8.24696e-115 0
9.22844e-74 -5.07301e-113 0
9.82752e-76 -2.81117e-111 0
1.02245e-77 -1.37082e-109 0
1.03981e-79 -5.68034e-108 0
1.03419e-81 -1.89033e-106 0
1.00643e-83 -4.55244e-105 0
9.67705e-86 -6.19966e-104 0
8.98299e-84 -9.57541e-102 0
0 -3.16119e-206 0
5.43778e-07 -7.08003e-204 0
3.28703e-07 -1.0487e-201 0
7.21138e-08 -1.10152e-199 0
9.70035e-09 -7.69474e-198 0
4.50669e-10 -7.58563e-198 0
0 0 0
0 0 0
0 0 0
1.53971e-17 3.55106e-181 0
1.59673e-18 -3.72138e-180 0
1.08215e-19 -7.10505e-178 0
5.85604e-21 -1.21164e-175 0
2.70736e-22 -2.03439e-173 0
1.10577e-23 -3.36204e-171 0
4.07094e-25 -5.46659e-169 0
1.3694e-26 -8.74188e-167 0
4.25063e-28 -1.37432e-164 0
1.22675e-29 -2.12309e-162 0
3.31183e-31 -3.22138e-160 0
8.40509e-33 -4.7983e-158 0
2.0137e-34 -7.01235e-156 0
4.57062e-36 -1.00488e-153 0
9.85903e-38 -1.41112e-151 0
2.02654e-39 -1.94046e-149 0
3.97914e-41 -2.61104e-147 0
7.47957e-43 -3.43501e-145 0
1.34855e-44 -4.41422e-143 0
2.3363e-46 -5.53549e-141 0
3.89551e-48 -6.76629e-139 0
6.26062e-50 -8.05193e-137 0
9.71136e-52 -9.31541e-135 0
1.4558e-53 -1.04611e-132 0
2.11148e-55 -1.13828e-130 0
2.96627e-57 -1.19767e-128 0
4.0403e-59 -1.21569e-126 0
5.34081e-61 -1.18717e-124 0
6.8577e-63 -1.11176e-122 0
8.56036e-65 -9.94601e-121 0
1.03965e-66 -8.46083e-119 0
1.2294e-68 -6.80507e-117 0
1.41648e-70 -5.13831e-115 0
1.59121e-72 -3.60939e-113 0
1.7439e-74 -2.33079e-111 0
1.86574e-76 -1.3615e-109 0
1.94969e-78 -7.03169e-108 0
1.99113e-80 -3.10295e-106 0
1.98828e-82 -1.10656e-104 0
1.94231e-84 -2.87564e-103 0
1.87443e-86 -4.25018e-102 0
1.70599e-84 -6.72284e-100 0
0 -3.20651e-204 0
5.43722e-07 -7.11301e-202 0
3.28671e-07 -1.16603e-199 0
7.21116e-08 -1.49281e-197 0
9.77155e-09 -1.54666e-195 0
9.29141e-10 -1.12658e-193 0
3.52921e-11 -1.11126e-193 0
0 0 0
0 0 0
0 0 0
5.64404e-20 -7.21849e-179 0
1.83842e-20 -1.27708e-176 0
1.67698e-21 -2.20218e-174 0
1.02739e-22 -3.74022e-172 0
5.01641e-24 -6.25493e-170 0
2.09011e-25 -1.02962e-167 0
7.6996e-27 -1.66763e-165 0
2.56203e-28 -2.65656e-163 0
7.81106e-30 -4.16061e-161 0
2.20434e-31 -6.40346e-159 0
5.80268e-33 -9.68026e-157 0
1.43345e-34 -1.43665e-154 0
3.33936e-36 -2.092e-152 0
7.36601e-38 -2.9872e-150 0
1.54377e-39 -4.17996e-148 0
3.0832e-41 -5.72771e-146 0
5.8831e-43 -7.67987e-144 0
1.07495e-44 -1.00675e-141 0
1.88466e-46 -1.28908e-139 0
3.17636e-48 -1.61055e-137 0
5.15461e-50 -1.96112e-135 0
8.06651e-52 -2.32438e-133 0
1.21898e-53 -2.67761e-131 0
1.78105e-55 -2.99298e-129 0
2.51905e-57 -3.24001e-127 0
3.45259e-59 -3.38939e-125 0
4.59031e-61 -3.41754e-123 0
5.92562e-63 -3.31137e-121 0
7.43369e-65 -3.07209e-119 0
9.0701e-67 -2.71702e-117 0
1.07719e-68 -2.27848e-115 0
1.24615e-70 -1.79955e-113 0
1.40519e-72 -1.32706e-111 0
1.54554e-74 -9.03399e-110 0
1.65909e-76 -5.58976e-108 0
1.73924e-78 -3.07501e-106 0
1.78154e-80 -1.45473e-104 0
1.78404e-82 -5.60391e-103 0
1.74748e-84 -1.58675e-101 0
1.69075e-86 -2.57561e-100 0
1.53808e-84 -4.17487e-98 0
0 -2.64927e-202 0
4.70477e-07 -5.82444e-200 0
2.73766e-07 -1.02984e-197 0
5.98745e-08 -1.53511e-195 0
8.20338e-09 -2.01466e-193 0
8.50363e-10 -2.24928e-191 0
6.69093e-11 -1.78985e-189 0
2.01099e-12 -1.76756e-189 0
0 0 0
0 0 0
0 -9.79062e-178 0
3.52329e-19 -1.74225e-175 0
2.62391e-20 -3.03884e-173 0
1.35818e-21 -5.22279e-171 0
5.82057e-23 -8.8422e-169 0
2.18796e-24 -1.47415e-166 0
7.41663e-26 -2.41932e-164 0
2.30408e-27 -3.90716e-162 0
6.63092e-29 -6.20688e-160 0
1.78152e-30 -9.69507e-158 0
4.49489e-32 -1.48834e-155 0
1.07007e-33 -2.24448e-153 0
2.41301e-35 -3.32333e-151 0
5.17126e-37 -4.82872e-149 0
1.05623e-38 -6.88071e-147 0
2.0612e-40 -9.60929e-145 0
3.85161e-42 -1.31431e-142 0
6.90526e-44 -1.75919e-140 0
1.18988e-45 -2.3023e-138 0
1.97386e-47 -2.94327e-136 0
3.15688e-49 -3.67158e-134 0
4.87432e-51 -4.46391e-132 0
7.27494e-53 -5.28239e-130 0
1.05077e-54 -6.07481e-128 0
1.47032e-56 -6.77734e-126 0
1.99518e-58 -7.32031e-124 0
2.628e-60 -7.63681e-122 0
3.36296e-62 -7.67344e-120 0
4.18437e-64 -7.40131e-118 0
5.06628e-66 -6.82496e-116 0
5.97335e-68 -5.98668e-114 0
6.86307e-70 -4.96392e-112 0
7.68911e-72 -3.8591e-110 0
8.40547e-74 -2.78292e-108 0
8.97084e-76 -1.83431e-106 0
9.35266e-78 -1.08202e-104 0
9.53017e-80 -5.5318e-103 0
9.49627e-82 -2.32436e-101 0
9.25773e-84 -7.25785e-100 0
8.91655e-86 -1.31359e-98 0
8.2812e-84 -2.18331e-96 0
0 -1.5679e-200 0
3.40908e-07 -3.41633e-198 0
1.85951e-07 -6.47521e-196 0
4.05852e-08 -1.11491e-193 0
5.66467e-09 -1.7942e-191 0
6.01025e-10 -2.6692e-189 0
5.16156e-11 -3.48778e-187 0
3.46726e-12 -3.38194e-185 0
8.12615e-14 -3.34733e-185 0
4.10465e-15 0 0
1.97019e-16 -8.91891e-177 0
8.95706e-18 -1.60526e-174 0
3.70712e-19 -2.83319e-172 0
1.40796e-20 -4.92931e-170 0
4.94017e-22 -8.45188e-168 0
1.61061e-23 -1.42773e-165 0
4.90334e-25 -2.37537e-163 0
1.40002e-26 -3.89096e-161 0
3.76333e-28 -6.27295e-159 0
9.55617e-30 -9.9497e-157 0
2.29925e-31 -1.55201e-154 0
5.25609e-33 -2.37978e-152 0
1.14441e-34 -3.58538e-150 0
2.3786e-36 -5.3048e-148 0
4.72893e-38 -7.70375e-146 0
9.00991e-40 -1.09743e-143 0
1.64793e-41 -1.53254e-141 0
2.89808e-43 -2.09653e-139 0
4.90759e-45 -2.80741e-137 0
8.01319e-47 -3.67663e-135 0
1.2632e-48 -4.70452e-133 0
1.92477e-50 -5.87536e-131 0
2.83797e-52 -7.15285e-129 0
4.0533e-54 -8.47713e-127 0
5.61307e-56 -9.76461e-125 0
7.54366e-58 -1.09119e-122 0
9.84752e-60 -1.18046e-120 0
1.24965e-61 -1.23313e-118 0
1.54276e-63 -1.24008e-116 0
1.85427e-65 -1.19609e-114 0
2.17127e-67 -1.10145e-112 0
2.47859e-69 -9.62804e-111 0
2.76004e-71 -7.92926e-109 0
2.99988e-73 -6.09149e-107 0
3.18431e-75 -4.30573e-105 0
3.30281e-77 -2.74531e-103 0
3.34914e-79 -1.53157e-101 0
3.32183e-81 -7.10473e-100 0
3.22419e-83 -2.48429e-98 0
3.09231e-85 -5.11459e-97 0
2.9204e-83 -8.72272e-95 0
0 -5.07351e-199 0
1.79391e-07 -1.0955e-196 0
9.13373e-08 -2.23413e-194 0
1.99995e-08 -4.48171e-192 0
2.85319e-09 -8.88339e-190 0
3.08757e-10 -1.73956e-187 0
2.70667e-11 -3.36472e-185 0
1.98215e-12 -6.42726e-183 0
1.14487e-13 -1.21224e-180 0
5.94106e-15 -2.25707e-178 0
2.87785e-16 -4.14757e-176 0
1.26745e-17 -7.51144e-174 0
5.11264e-19 -1.34193e-171 0
1.90111e-20 -2.36434e-169 0
6.5535e-22 -4.10724e-167 0
2.10477e-23 -7.03288e-165 0
6.32586e-25 -1.18668e-162 0
1.78616e-26 -1.97251e-160 0
4.75478e-28 -3.22889e-158 0
1.19707e-29 -5.20335e-156 0
2.85836e-31 -8.25187e-154 0
6.49002e-33 -1.28734e-151 0
1.4045e-34 -1.97479e-149 0
2.90318e-36 -2.97744e-147 0
5.74321e-38 -4.41009e-145 0
1.08929e-39 -6.41367e-143 0
1.98412e-41 -9.15319e-141 0
3.47609e-43 -1.28107e-138 0
5.86591e-45 -1.75714e-136 0
9.54719e-47 -2.36019e-134 0
1.50055e-48 -3.10188e-132 0
2.28013e-50 -3.98502e-130 0
3.35333e-52 -4.99918e-128 0
4.77792e-54 -6.11651e-126 0
6.60181e-56 -7.28856e-124 0
8.854e-58 -8.4453e-122 0
1.15355e-59 -9.49741e-120 0
1.46117e-61 -1.0343e-117 0
1.80079e-63 -1.08785e-115 0
2.1609e-65 -1.10145e-113 0
2.52645e-67 -1.06923e-111 0
2.87989e-69 -9.90033e-110 0
3.20253e-71 -8.68569e-108 0
3.47634e-73 -7.15559e-106 0
3.68555e-75 -5.46726e-104 0
3.81828e-77 -3.80451e-102 0
3.86758e-79 -2.34419e-100 0
3.83203e-81 -1.2191e-98 0
3.71571e-83 -4.87084e-97 0
3.56032e-85 -1.17247e-95 0
3.37738e-83 -2.05321e-93 0
0 0 0
4.68297e-08 0 0
2.25404e-08 0 0
4.97387e-09 0 0
7.23846e-10 0 0
7.96229e-11 0 0
7.06825e-12 0 0
5.25873e-13 0 0
3.32258e-14 0 0
1.83641e-15 0 0
9.07658e-17 0 0
4.05721e-18 0 0
1.65512e-19 0 0
6.20859e-21 0 0
2.15516e-22 0 0
6.96082e-24 0 0
2.10179e-25 0 0
5.95764e-27 0 0
1.59114e-28 0 0
4.01713e-30 0 0
9.61545e-32 0 0
2.18786e-33 0 0
4.74358e-35 0 0
9.82151e-37 0 0
1.94581e-38 0 0
3.69547e-40 0 0
6.73932e-42 0 0
1.182e-43 0 0
1.99662e-45 0 0
3.25264e-47 0 0
5.11659e-49 0 0
7.78097e-51 0 0
1.14517e-52 0 0
1.63279e-54 0 0
2.25753e-56 0 0
3.02952e-58 0 0
3.94928e-60 0 0
5.00515e-62 0 0
6.17166e-64 0 0
7.40943e-66 0 0
8.6669e-68 0 0
9.88372e-70 0 0
1.09957e-71 0 0
1.19407e-73 0 0
1.26642e-75 0 0
1.31253e-77 0 0
1.32996e-79 0 0
1.3182e-81 0 0
1.27862e-83 0 0
1.22555e-85 0 0
1.16263e-83 0 0
0 0 -3.48821e-204
7.52868e-08 0 -7.81451e-202
3.58509e-08 0 -1.45907e-199
7.92752e-09 0 -2.18285e-197
1.15948e-09 0 -2.79088e-195
1.27662e-10 0 -2.92264e-193
1.13195e-11 0 -2.01732e-191
8.41491e-13 0 -9.26856e-193
5.38862e-14 0 -1.11228e-190
3.03122e-15 0 -1.9113e-188
1.52033e-16 0 -3.23095e-186
6.87941e-18 0 -5.37403e-184
2.8353e-19 0 -8.79243e-182
1.0728e-20 0 -1.41445e-179
3.75149e-22 0 -2.23643e-177
1.21935e-23 0 -3.47392e-175
3.70199e-25 0 -5.29878e-173
1.05437e-26 0 -7.93239e-171
2.82778e-28 0 -1.16486e-168
7.16572e-30 0 -1.67699e-166
1.72085e-31 0 -2.36542e-164
3.92709e-33 0 -3.26679e-162
8.53699e-35 0 -4.41424e-160
1.77179e-36 0 -5.83144e-158
3.51783e-38 0 -7.52515e-156
6.6942e-40 0 -9.4771e-154
1.223e-41 0 -1.16365e-151
2.14853e-43 0 -1.39148e-149
3.6348e-45 0 -1.61849e-147
5.92966e-47 0 -1.82871e-145
9.33977e-49 0 -2.00413e-143
1.42204e-50 0 -2.12682e-141
2.09523e-52 0 -2.18144e-139
2.9905e-54 0 -2.15792e-137
4.13877e-56 0 -2.0538e-135
5.55912e-58 0 -1.87541e-133
7.25306e-60 0 -1.63775e-131
9.1996e-62 0 -1.3626e-129
1.13522e-63 0 -1.07526e-127
1.36387e-65 0 -8.00478e-126
1.59641e-67 0 -5.58522e-124
1.8217e-69 0 -3.62307e-122
2.02788e-71 0 -2.16284e-120
2.20341e-73 0 -1.17256e-118
2.3382e-75 0 -5.67189e-117
2.42457e-77 0 -2.38836e-115
2.45797e-79 0 -8.44295e-114
2.43738e-81 0 -2.36472e-112
2.36524e-83 0 -4.72527e-111
2.26806e-85 0 -5.2895e-110
2.13119e-83 0 -7.62792e-108
0.0036 -3.93625e-203 -4.36088e-203
0.00209976 -1.40196e-198 -1.47067e-198
0.000497167 -4.68604e-196 -4.61044e-196
7.17205e-05 -9.07511e-194 -8.77638e-194
7.72251e-06 -1.46214e-191 -1.40502e-191
6.66448e-07 -2.04008e-189 -1.95233e-189
4.83776e-08 -2.10746e-187 -2.01108e-187
3.03691e-09 -3.17718e-189 -3.09059e-189
1.68051e-10 -2.07198e-187 -2.07226e-187
8.31505e-12 -3.63818e-185 -3.63825e-185
3.72012e-13 -6.27067e-183 -6.27068e-183
1.51866e-14 -1.06349e-180 -1.06349e-180
5.69978e-16 -1.77482e-178 -1.77482e-178
1.97934e-17 -2.91355e-176 -2.91355e-176
6.39486e-19 -4.70292e-174 -4.70292e-174
1.93133e-20 -7.46109e-172 -7.46109e-172
5.47536e-22 -1.16287e-169 -1.16287e-169
1.46251e-23 -1.77971e-167 -1.77971e-167
3.69271e-25 -2.67316e-165 -2.67316e-165
8.83949e-27 -3.93845e-163 -3.93845e-163
2.0114e-28 -5.68841e-161 -5.68841e-161
4.36115e-30 -8.04908e-159 -8.04908e-159
9.02996e-32 -1.11504e-156 -1.11504e-156
1.78904e-33 -1.51115e-154 -1.51115e-154
3.39781e-35 -2.00188e-152 -2.00188e-152
6.19664e-37 -2.59004e-150 -2.59004e-150
1.08685e-38 -3.26958e-148 -3.26958e-148
1.83595e-40 -4.02288e-146 -4.02288e-146
2.99099e-42 -4.81877e-144 -4.81877e-144
4.70515e-44 -5.61213e-142 -5.61213e-142
7.15557e-46 -6.34583e-140 -6.34583e-140
1.05317e-47 -6.95537e-138 -6.95537e-138
1.50169e-49 -7.37628e-136 -7.37628e-136
2.07638e-51 -7.55349e-134 -7.55349e-134
2.78658e-53 -7.45135e-132 -7.45135e-132
3.63281e-55 -7.06202e-130 -7.06202e-130
4.60438e-57 -6.4102e-128 -6.4102e-128
5.67788e-59 -5.55226e-126 -5.55226e-126
6.81714e-61 -4.56917e-124 -4.56917e-124
7.97472e-63 -3.55391e-122 -3.55391e-122
9.09512e-65 -2.59606e-120 -2.59606e-120
1.01193e-66 -1.767e-118 -1.767e-118
1.09899e-68 -1.10952e-116 -1.10952e-116
1.1657e-70 -6.34407e-115 -6.34407e-115
1.20825e-72 -3.24625e-113 -3.24625e-113
1.22442e-74 -1.45081e-111 -1.45081e-111
1.21373e-76 -5.46321e-110 -5.46321e-110
1.17741e-78 -1.63639e-108 -1.63639e-108
1.11827e-80 -3.51064e-107 -3.51064e-107
1.0498e-82 -4.22608e-106 -4.22608e-106
1.03885e-82 -7.73346e-106 -7.73346e-106
0.01 -1.09678e-202 3.90801e-202
0.00587719 -2.5905e-197 -1.77473e-197
0.00143572 -1.82963e-194 -1.76751e-194
0.000201054 -4.7484e-192 -4.63649e-192
2.08582e-05 -1.01762e-189 -9.84052e-190
1.6421e-06 -2.10722e-187 -2.02028e-187
1.12149e-07 -4.30358e-185 -4.10456e-185
6.74526e-09 -2.43963e-187 -2.35496e-187
3.62141e-10 -6.94564e-186 -6.95094e-186
1.75247e-11 -1.2519e-183 -1.25203e-183
7.70943e-13 -2.18293e-181 -2.18295e-181
3.10614e-14 -3.73954e-179 -3.73954e-179
1.15363e-15 -6.30452e-177 -6.30452e-177
3.97221e-17 -1.04587e-174 -1.04587e-174
1.27434e-18 -1.7066e-172 -1.7066e-172
3.82602e-20 -2.73799e-170 -2.73799e-170
1.07926e-21 -4.31712e-168 -4.31712e-168
2.87039e-23 -6.68676e-166 -6.68676e-166
7.22041e-25 -1.01691e-163 -1.01691e-163
1.72275e-26 -1.51764e-161 -1.51764e-161
3.90875e-28 -2.22139e-159 -2.22139e-159
8.45326e-30 -3.18704e-157 -3.18704e-157
1.74626e-31 -4.4789e-155 -4.4789e-155
3.45259e-33 -6.16123e-153 -6.16123e-153
6.545e-35 -8.28975e-151 -8.28975e-151
1.19159e-36 -1.09e-148 -1.09e-148
2.08669e-38 -1.39934e-146 -1.39934e-146
3.51988e-40 -1.75224e-144 -1.75224e-144
5.72675e-42 -2.13772e-142 -2.13772e-142
8.9978e-44 -2.53782e-140 -2.53782e-140
1.36682e-45 -2.92769e-138 -2.92769e-138
2.00959e-47 -3.27699e-136 -3.27699e-136
2.86259e-49 -3.55267e-134 -3.55267e-134
3.95442e-51 -3.72314e-132 -3.72314e-132
5.30235e-53 -3.76325e-130 -3.76325e-130
6.9069e-55 -3.65921e-128 -3.65921e-128
8.74731e-57 -3.41253e-126 -3.41253e-126
1.07788e-58 -3.04154e-124 -3.04154e-124
1.29325e-60 -2.57998e-122 -2.57998e-122
1.51185e-62 -2.07228e-120 -2.07228e-120
1.72317e-64 -1.56644e-118 -1.56644e-118
1.91606e-66 -1.10581e-116 -1.10581e-116
2.07971e-68 -7.21973e-115 -7.21973e-115
2.20473e-70 -4.30454e-113 -4.30454e-113
2.28402e-72 -2.30404e-111 -2.30404e-111
2.31341e-74 -1.08098e-109 -1.08098e-109
2.29208e-76 -4.29035e-108 -4.29035e-108
2.22246e-78 -1.36053e-106 -1.36053e-106
2.10988e-80 -3.1047e-105 -3.1047e-105
1.97982e-82 -3.98769e-104 -3.98769e-104
1.95926e-82 -7.33584e-104 -7.33584e-104
0.0148 -4.24648e-204 -2.92539e-201
0.0101873 -1.77858e-199 3.51473e-197
0.00271286 -2.3624e-196 -4.46074e-194
0.000377964 -4.46455e-194 -1.11698e-191
3.79381e-05 -4.87057e-192 -1.69921e-189
1.09041e-06 -4.82616e-192 -2.00812e-187
7.23786e-08 0 -4.08454e-185
4.26197e-09 8.68691e-183 8.23954e-183
2.35776e-10 -1.83855e-184 -1.84839e-184
1.16796e-11 -3.75772e-182 -3.76022e-182
5.23503e-13 -6.7052e-180 -6.70564e-180
2.1416e-14 -1.1618e-177 -1.1618e-177
8.05518e-16 -1.97936e-175 -1.97936e-175
2.80324e-17 -3.31944e-173 -3.31944e-173
9.07506e-19 -5.47755e-171 -5.47755e-171
2.74601e-20 -8.89044e-169 -8.89044e-169
7.79877e-22 -1.41872e-166 -1.41872e-166
2.08653e-23 -2.22491e-164 -2.22491e-164
5.27628e-25 -3.42743e-162 -3.42743e-162
1.26478e-26 -5.1838e-160 -5.1838e-160
2.88167e-28 -7.69336e-158 -7.69336e-158
6.25548e-30 -1.11975e-155 -1.11975e-155
1.29664e-31 -1.59732e-153 -1.59732e-153
2.57151e-33 -2.23169e-151 -2.23169e-151
4.88842e-35 -3.05161e-149 -3.05161e-149
8.92267e-37 -4.08066e-147 -4.08066e-147
1.5662e-38 -5.33159e-145 -5.33159e-145
2.6476e-40 -6.79971e-143 -6.79971e-143
4.31615e-42 -8.45615e-141 -8.45615e-141
6.79397e-44 -1.02422e-138 -1.02422e-138
1.03381e-45 -1.20664e-136 -1.20664e-136
1.52238e-47 -1.38069e-134 -1.38069e-134
2.17177e-49 -1.53189e-132 -1.53189e-132
3.00423e-51 -1.64496e-130 -1.64496e-130
4.03345e-53 -1.70587e-128 -1.70587e-128
5.26032e-55 -1.70421e-126 -1.70421e-126
6.66947e-57 -1.63546e-124 -1.63546e-124
8.22708e-59 -1.50252e-122 -1.50252e-122
9.88074e-61 -1.31618e-120 -1.31618e-120
1.15617e-62 -1.094e-118 -1.094e-118
1.31893e-64 -8.57713e-117 -8.57713e-117
1.46777e-66 -6.2961e-115 -6.2961e-115
1.59439e-68 -4.28656e-113 -4.28656e-113
1.69148e-70 -2.67362e-111 -2.67362e-111
1.75353e-72 -1.5025e-109 -1.5025e-109
1.77727e-74 -7.43142e-108 -7.43142e-108
1.76198e-76 -3.12393e-106 -3.12393e-106
1.70947e-78 -1.05476e-104 -1.05476e-104
1.62379e-80 -2.5773e-103 -2.5773e-103
1.52452e-82 -3.55966e-102 -3.55966e-102
1.50865e-82 -6.5847e-102 -6.5847e-102
0.018 -1.39576e-205 -3.72394e-199
0.0138682 6.3356e-204 4.21793e-195
0.00399279 -2.04919e-198 -1.56717e-192
0.000558983 -3.12827e-196 -6.75523e-190
5.46219e-05 -2.31909e-194 -1.48559e-187
0 -2.28801e-194 -1.47885e-187
0 0 0
0 0 8.23977e-183
1.04782e-11 -1.75056e-180 -1.65962e-180
9.38655e-13 -8.86271e-181 -8.90942e-181
5.68919e-14 -1.7695e-178 -1.77038e-178
2.81636e-15 -3.12707e-176 -3.12707e-176
1.21054e-16 -5.38573e-174 -5.38573e-174
4.65262e-18 -9.1338e-172 -9.1338e-172
1.62691e-19 -1.52478e-169 -1.52478e-169
5.2361e-21 -2.50468e-167 -2.50468e-167
1.56418e-22 -4.04685e-165 -4.04685e-165
4.36537e-24 -6.42867e-163 -6.42867e-163
1.14412e-25 -1.00362e-160 -1.00362e-160
2.82823e-27 -1.53908e-158 -1.53908e-158
6.61823e-29 -2.31723e-156 -2.31723e-156
1.47071e-30 -3.42341e-154 -3.42341e-154
3.11222e-32 -4.95991e-152 -4.95991e-152
6.28695e-34 -7.04265e-150 -7.04265e-150
1.21503e-35 -9.79367e-148 -9.79367e-148
2.25098e-37 -1.33283e-145 -1.33283e-145
4.00471e-39 -1.77363e-143 -1.77363e-143
6.85325e-41 -2.30579e-141 -2.30579e-141
1.1298e-42 -2.92556e-139 -2.92556e-139
1.79674e-44 -3.61867e-137 -3.61867e-137
2.75996e-46 -4.35817e-135 -4.35817e-135
4.09988e-48 -5.10355e-133 -5.10355e-133
5.89615e-50 -5.80195e-131 -5.80195e-131
8.21758e-52 -6.39203e-129 -6.39203e-129
1.111e-53 -6.81058e-127 -6.81058e-127
1.45841e-55 -7.00149e-125 -7.00149e-125
1.86038e-57 -6.92583e-123 -6.92583e-123
2.30798e-59 -6.57096e-121 -6.57096e-121
2.78676e-61 -5.95658e-119 -5.95658e-119
3.2773e-63 -5.13527e-117 -5.13527e-117
3.75643e-65 -4.18657e-115 -4.18657e-115
4.19911e-67 -3.20477e-113 -3.20477e-113
4.58065e-69 -2.28264e-111 -2.28264e-111
4.87908e-71 -1.49489e-109 -1.49489e-109
5.07726e-73 -8.85734e-108 -8.85734e-108
5.16453e-75 -4.64091e-106 -4.64091e-106
5.13763e-77 -2.07801e-104 -2.07801e-104
5.00073e-79 -7.52034e-103 -7.52034e-103
4.76479e-81 -1.98338e-101 -1.98338e-101
4.4868e-83 -2.97391e-100 -2.97391e-100
4.43936e-83 -5.53306e-100 -5.53306e-100
0.0196 -3.67858e-206 4.04008e-200
0.0159697 -2.27181e-202 -8.22726e-197
0.00480766 -6.64815e-199 -2.3283e-193
0.000676853 -9.16223e-197 -1.38181e-191
6.55315e-05 -6.68666e-195 -8.5154e-190
2.43013e-06 -6.5957e-195 3.00143e-185
0 0 3.00151e-185
0 0 0
0 0 -1.65944e-180
3.5331e-14 3.47735e-178 3.28557e-178
3.32878e-15 -3.63885e-177 -3.65653e-177
2.06825e-16 -7.09242e-175 -7.09242e-175
1.03311e-17 -1.23529e-172 -1.23529e-172
4.43426e-19 -2.11937e-170 -2.11937e-170
1.68985e-20 -3.5807e-168 -3.5807e-168
5.83034e-22 -5.95529e-166 -5.95529e-166
1.84514e-23 -9.74658e-164 -9.74658e-164
5.40694e-25 -1.56908e-161 -1.56908e-161
1.47773e-26 -2.48372e-159 -2.48372e-159
3.78839e-28 -3.86394e-157 -3.86394e-157
9.15309e-30 -5.90501e-155 -5.90501e-155
2.09243e-31 -8.86037e-153 -8.86037e-153
4.54118e-33 -1.30462e-150 -1.30462e-150
9.38411e-35 -1.8839e-148 -1.8839e-148
1.85115e-36 -2.6662e-146 -2.6662e-146
3.49385e-38 -3.69557e-144 -3.69557e-144
6.32226e-40 -5.01292e-142 -5.01292e-142
1.09887e-41 -6.64893e-140 -6.64893e-140
1.8376e-43 -8.6151e-138 -8.6151e-138
2.9611e-45 -1.08935e-135 -1.08935e-135
4.60429e-47 -1.34267e-133 -1.34267e-133
6.91734e-49 -1.61104e-131 -1.61104e-131
1.00532e-50 -1.87907e-129 -1.87907e-129
1.41494e-52 -2.12697e-127 -2.12697e-127
1.93059e-54 -2.33203e-125 -2.33203e-125
2.55611e-56 -2.47118e-123 -2.47118e-123
3.287e-58 -2.52443e-121 -2.52443e-121
4.10885e-60 -2.47853e-119 -2.47853e-119
4.99675e-62 -2.33039e-117 -2.33039e-117
5.91599e-64 -2.08916e-115 -2.08916e-115
6.82415e-66 -1.77616e-113 -1.77616e-113
7.6744e-68 -1.42245e-111 -1.42245e-111
8.41959e-70 -1.06384e-109 -1.06384e-109
9.01678e-72 -7.34614e-108 -7.34614e-108
9.43139e-74 -4.61153e-106 -4.61153e-106
9.64053e-76 -2.57424e-104 -2.57424e-104
9.63505e-78 -1.23598e-102 -1.23598e-102
9.42002e-80 -4.83296e-101 -4.83296e-101
9.01364e-82 -1.38916e-99 -1.38916e-99
8.52245e-84 -2.28827e-98 -2.28827e-98
8.43055e-84 -4.28327e-98 -4.28327e-98
0.0196 1.59823e-205 4.7425e-200
0.0159694 -1.12987e-199 -1.6161e-196
0.00480748 -8.00487e-197 -2.07877e-193
0.000676839 -1.27062e-194 -7.1864e-192
6.58452e-05 -1.36951e-192 -1.13446e-190
4.94296e-06 -1.01792e-190 1.42438e-190
1.54765e-07 -1.00435e-190 -6.04704e-183
0 0 -6.04704e-183
0 0 0
0 0 3.29411e-178
1.084e-16 -7.20681e-176 -7.17533e-176
3.42901e-17 -1.30193e-173 -1.30193e-173
2.91204e-18 -2.29402e-171 -2.29402e-171
1.66283e-19 -3.98324e-169 -3.98324e-169
7.59367e-21 -6.81371e-167 -6.81371e-167
2.97004e-22 -1.14789e-164 -1.14789e-164
1.03061e-23 -1.90385e-162 -1.90385e-162
3.24057e-25 -3.10764e-160 -3.10764e-160
9.36306e-27 -4.99023e-158 -4.99023e-158
2.51074e-28 -7.87998e-156 -7.87998e-156
6.29524e-30 -1.22307e-153 -1.22307e-153
1.48451e-31 -1.86507e-151 -1.86507e-151
3.30795e-33 -2.79277e-149 -2.79277e-149
6.99243e-35 -4.10421e-147 -4.10421e-147
1.40677e-36 -5.91589e-145 -5.91589e-145
2.70129e-38 -8.35842e-143 -8.35842e-143
4.963e-40 -1.15673e-140 -1.15673e-140
8.74355e-42 -1.56679e-138 -1.56679e-138
1.47994e-43 -2.07529e-136 -2.07529e-136
2.41084e-45 -2.68552e-134 -2.68552e-134
3.78568e-47 -3.39154e-132 -3.39154e-132
5.73846e-49 -4.17509e-130 -4.17509e-130
8.408e-51 -5.00326e-128 -5.00326e-128
1.19223e-52 -5.82766e-126 -5.82766e-126
1.63789e-54 -6.5861e-124 -6.5861e-124
2.18229e-56 -7.20733e-122 -7.20733e-122
2.8227e-58 -7.61912e-120 -7.61912e-120
3.54758e-60 -7.75895e-118 -7.75895e-118
4.33591e-62 -7.58604e-116 -7.58604e-116
5.15766e-64 -7.09214e-114 -7.09214e-114
5.97549e-66 -6.30827e-112 -6.30827e-112
6.74755e-68 -5.30487e-110 -5.30487e-110
7.43121e-70 -4.18353e-108 -4.18353e-108
7.98704e-72 -3.06088e-106 -3.06088e-106
8.38271e-74 -2.04732e-104 -2.04732e-104
8.59607e-76 -1.22575e-102 -1.22575e-102
8.61721e-78 -6.36155e-101 -6.36155e-101
8.44902e-80 -2.71395e-99 -2.71395e-99
8.10647e-82 -8.60487e-98 -8.60487e-98
7.68461e-84 -1.58097e-96 -1.58097e-96
7.60171e-84 -2.97817e-96 -2.97817e-96
0.018 4.07294e-203 -2.08289e-199
0.0138639 -2.05969e-197 1.72999e-195
0.00399076 -7.7849e-195 5.21576e-193
0.000558666 -1.34048e-192 1.56159e-191
5.50417e-05 -1.81827e-190 1.02967e-190
4.45195e-06 -2.07143e-188 -1.69352e-188
2.90109e-07 -1.68057e-186 -1.65518e-186
7.40466e-09 -1.66004e-186 1.20356e-180
0 0 1.20356e-180
0 0 0
0 -9.98133e-175 -9.9755e-175
7.30455e-16 -1.81474e-172 -1.81474e-172
4.99303e-17 -3.23599e-170 -3.23599e-170
2.38752e-18 -5.68883e-168 -5.68883e-168
9.50504e-20 -9.85694e-166 -9.85694e-166
3.33541e-21 -1.68281e-163 -1.68281e-163
1.05999e-22 -2.82986e-161 -2.82986e-161
3.09909e-24 -4.68582e-159 -4.68582e-159
8.42217e-26 -7.63739e-157 -7.63739e-157
2.14327e-27 -1.22484e-154 -1.22484e-154
5.13608e-29 -1.93201e-152 -1.93201e-152
1.1642e-30 -2.99607e-150 -2.99607e-150
2.50532e-32 -4.56565e-148 -4.56565e-148
5.13434e-34 -6.83352e-146 -6.83352e-146
1.00473e-35 -1.00402e-143 -1.00402e-143
1.88181e-37 -1.44723e-141 -1.44723e-141
3.38031e-39 -2.04528e-139 -2.04528e-139
5.83446e-41 -2.83193e-137 -2.83193e-137
9.69237e-43 -3.83873e-135 -3.83873e-135
1.55205e-44 -5.08972e-133 -5.08972e-133
2.399e-46 -6.59457e-131 -6.59457e-131
3.5839e-48 -8.34061e-129 -8.34061e-129
5.18082e-50 -1.02849e-126 -1.02849e-126
7.25489e-52 -1.2348e-124 -1.2348e-124
9.85131e-54 -1.44112e-122 -1.44112e-122
1.29838e-55 -1.63197e-120 -1.63197e-120
1.66241e-57 -1.78939e-118 -1.78939e-118
2.06952e-59 -1.89485e-116 -1.89485e-116
2.50687e-61 -1.932e-114 -1.932e-114
2.95699e-63 -1.88968e-112 -1.88968e-112
3.39881e-65 -1.76496e-110 -1.76496e-110
3.80934e-67 -1.56508e-108 -1.56508e-108
4.16573e-69 -1.3078e-106 -1.3078e-106
4.44743e-71 -1.01959e-104 -1.01959e-104
4.63821e-73 -7.31518e-103 -7.31518e-103
4.72769e-75 -4.73511e-101 -4.73511e-101
4.71225e-77 -2.68239e-99 -2.68239e-99
4.59517e-79 -1.26372e-97 -1.26372e-97
4.38605e-81 -4.48818e-96 -4.48818e-96
4.1371e-83 -9.3834e-95 -9.3834e-95
4.09338e-83 -1.77945e-94 -1.77945e-94
0.0148 -5.37112e-200 2.4413e-199
0.0101455 -2.0425e-195 -5.7783e-195
0.00269633 -5.37385e-193 -1.08874e-192
0.000375275 -9.99778e-191 -1.16527e-190
3.77924e-05 -1.65141e-188 -1.68121e-188
3.1291e-06 -2.50639e-186 -2.51086e-186
2.20471e-07 -3.3405e-184 -3.34107e-184
1.26623e-08 -3.305e-182 -3.30504e-182
2.5769e-10 -3.27184e-182 -2.36776e-178
1.15697e-11 0 -4.50107e-176
4.96773e-13 -9.28959e-174 -9.33437e-174
2.03386e-14 -1.70912e-171 -1.70912e-171
7.65491e-16 -3.0855e-169 -3.0855e-169
2.66542e-17 -5.49412e-167 -5.49412e-167
8.63308e-19 -9.64669e-165 -9.64669e-165
2.6134e-20 -1.66974e-162 -1.66974e-162