# vtk DataFile Version 2.0
Tobias Weinzierl: CPU, Manycore and Cluster Computing
ASCII

DATASET STRUCTURED_POINTS
DIMENSIONS  51 11 6

ORIGIN 0 0 0 

SPACING 0.1 0.1 0.1 

POINT_DATA 3366

VECTORS velocity float
0 0 0
-6.21182e-11 0 0
-2.33266e-07 0 0
-3.28391e-07 0 0
-3.32171e-07 0 0
-2.7892e-07 0 0
-3.48394e-07 0 0
-3.6291e-07 0 0
-3.4803e-07 0 0
-3.25466e-07 0 0
-3.14414e-07 0 0
-3.13001e-07 0 0
-3.16517e-07 0 0
-3.21952e-07 0 0
-3.27713e-07 0 0
-3.32962e-07 0 0
-3.37353e-07 0 0
-3.40824e-07 0 0
-3.43455e-07 0 0
-3.45369e-07 0 0
-3.46688e-07 0 0
-3.47509e-07 0 0
-3.47897e-07 0 0
-3.47885e-07 0 0
-3.47474e-07 0 0
-3.4663e-07 0 0
-3.45289e-07 0 0
-3.4335e-07 0 0
-3.4068e-07 0 0
-3.37109e-07 0 0
-3.3244e-07 0 0
-3.26462e-07 0 0
-3.18968e-07 0 0
-3.09785e-07 0 0
-2.98803e-07 0 0
-2.86006e-07 0 0
-2.71496e-07 0 0
-2.55513e-07 0 0
-2.38448e-07 0 0
-2.20809e-07 0 0
-2.03161e-07 0 0
-1.86049e-07 0 0
-1.69959e-07 0 0
-1.5529e-07 0 0
-1.4234e-07 0 0
-1.31314e-07 0 0
-1.22335e-07 0 0
-1.15468e-07 0 0
-1.10727e-07 0 0
-1.08115e-07 0 0
0.00244162 0 0
0 1.33151e-07 0
-1.22721e-10 1.64437e-07 0
-4.13459e-07 2.57347e-07 0
-4.9461e-07 1.15307e-07 0
-4.45892e-07 -1.30969e-08 0
-2.43463e-07 3.1319e-08 0
-3.93301e-07 7.5435e-08 0
-4.02455e-07 -9.90687e-09 0
-3.65643e-07 -4.06221e-08 0
-3.37764e-07 -3.13748e-08 0
-3.47486e-07 -9.14516e-09 0
-3.73526e-07 4.62581e-09 0
-3.98918e-07 1.04358e-08 0
-4.20362e-07 1.19426e-08 0
-4.37661e-07 1.1339e-08 0
-4.51098e-07 9.76147e-09 0
-4.61207e-07 7.88773e-09 0
-4.68628e-07 6.08462e-09 0
-4.73966e-07 4.50649e-09 0
-4.77717e-07 3.1831e-09 0
-4.80255e-07 2.08211e-09 0
-4.81844e-07 1.14572e-09 0
-4.82649e-07 3.08835e-10 0
-4.82762e-07 -4.93842e-10 0
-4.82206e-07 -1.32642e-09 0
-4.80945e-07 -2.25265e-09 0
-4.78885e-07 -3.33694e-09 0
-4.75876e-07 -4.64407e-09 0
-4.71712e-07 -6.23628e-09 0
-4.66129e-07 -8.16662e-09 0
-4.58823e-07 -1.0468e-08 0
-4.49462e-07 -1.3139e-08 0
-4.37732e-07 -1.61306e-08 0
-4.23377e-07 -1.93394e-08 0
-4.06255e-07 -2.26113e-08 0
-3.86374e-07 -2.57524e-08 0
-3.63921e-07 -2.85397e-08 0
-3.39293e-07 -3.07351e-08 0
-3.13121e-07 -3.21241e-08 0
-2.86224e-07 -3.25714e-08 0
-2.5947e-07 -3.2049e-08 0
-2.33663e-07 -3.06197e-08 0
-2.095e-07 -2.84041e-08 0
-1.87543e-07 -2.55553e-08 0
-1.68202e-07 -2.22356e-08 0
-1.51743e-07 -1.85938e-08 0
-1.38313e-07 -1.47542e-08 0
-1.27974e-07 -1.08215e-08 0
-1.20739e-07 -6.87728e-09 0
-1.16647e-07 -2.55356e-09 0
0.00518973 -4.3007e-07 0
0 -4.06929e-09 0
-1.05712e-10 2.08496e-07 0
-4.06745e-07 3.20723e-07 0
-3.26685e-07 1.32943e-07 0
-2.49984e-07 -1.24289e-07 0
-3.36085e-07 -3.99141e-09 0
-3.34246e-07 1.35437e-07 0
-3.77579e-07 -5.16634e-08 0
-2.08512e-08 -6.66282e-08 0
-8.65797e-09 -2.18823e-09 0
-5.66426e-08 5.02138e-08 0
-1.15212e-07 6.05374e-08 0
-1.58294e-07 5.17436e-08 0
-1.88148e-07 4.1097e-08 0
-2.0911e-07 3.17364e-08 0
-2.23671e-07 2.38979e-08 0
-2.33659e-07 1.75963e-08 0
-2.4047e-07 1.27061e-08 0
-2.45106e-07 8.98867e-09 0
-2.48251e-07 6.17172e-09 0
-2.50349e-07 4.0028e-09 0
-2.51686e-07 2.26906e-09 0
-2.52432e-07 7.96711e-10 0
-2.52684e-07 -5.57633e-10 0
-2.52478e-07 -1.91716e-09 0
-2.51805e-07 -3.39362e-09 0
-2.50611e-07 -5.09317e-09 0
-2.48801e-07 -7.11828e-09 0
-2.46232e-07 -9.56447e-09 0
-2.42714e-07 -1.25101e-08 0
-2.38011e-07 -1.59992e-08 0
-2.31858e-07 -2.0018e-08 0
-2.23987e-07 -2.4474e-08 0
-2.14181e-07 -2.91893e-08 0
-2.02331e-07 -3.39167e-08 0
-1.88459e-07 -3.83708e-08 0
-1.72724e-07 -4.22417e-08 0
-1.55444e-07 -4.51977e-08 0
-1.37161e-07 -4.69385e-08 0
-1.18586e-07 -4.73e-08 0
-1.00393e-07 -4.62963e-08 0
-8.31009e-08 -4.40555e-08 0
-6.71195e-08 -4.07577e-08 0
-5.27643e-08 -3.66187e-08 0
-4.02373e-08 -3.18672e-08 0
-2.9633e-08 -2.67132e-08 0
-2.09674e-08 -2.13255e-08 0
-1.42154e-08 -1.58258e-08 0
-9.3496e-09 -1.02625e-08 0
-6.42434e-09 -3.95179e-09 0
0.00544487 -6.84893e-07 0
0 -1.63678e-07 0
-7.15733e-11 1.77007e-07 0
-4.95089e-07 2.73272e-07 0
-2.89467e-07 1.56406e-07 0
-1.85695e-07 1.69435e-07 0
-3.71533e-07 1.0932e-07 0
-2.8933e-07 4.30713e-11 0
-3.38041e-07 -4.05745e-07 0
-4.18124e-07 -4.27571e-07 0
-1.91953e-07 3.41629e-08 0
-1.48428e-07 1.24729e-07 0
-1.58342e-07 1.21475e-07 0
-1.78287e-07 9.08679e-08 0
-1.95861e-07 6.60418e-08 0
-2.09053e-07 4.80678e-08 0
-2.18115e-07 3.46037e-08 0
-2.24161e-07 2.4628e-08 0
-2.28212e-07 1.73636e-08 0
-2.30971e-07 1.21023e-08 0
-2.32874e-07 8.25474e-09 0
-2.34182e-07 5.36709e-09 0
-2.3505e-07 3.10154e-09 0
-2.35565e-07 1.2052e-09 0
-2.35775e-07 -5.18572e-10 0
-2.35689e-07 -2.23264e-09 0
-2.3529e-07 -4.08222e-09 0
-2.34524e-07 -6.20541e-09 0
-2.33299e-07 -8.7377e-09 0
-2.31474e-07 -1.18095e-08 0
-2.28842e-07 -1.55341e-08 0
-2.25124e-07 -1.99835e-08 0
-2.19971e-07 -2.51528e-08 0
-2.12993e-07 -3.09219e-08 0
-2.03835e-07 -3.70381e-08 0
-1.92276e-07 -4.3146e-08 0
-1.783e-07 -4.88548e-08 0
-1.62064e-07 -5.37684e-08 0
-1.43904e-07 -5.74497e-08 0
-1.2452e-07 -5.9484e-08 0
-1.04923e-07 -5.96887e-08 0
-8.59697e-08 -5.81773e-08 0
-6.81662e-08 -5.51769e-08 0
-5.19003e-08 -5.09189e-08 0
-3.74721e-08 -4.56693e-08 0
-2.50416e-08 -3.97194e-08 0
-1.46384e-08 -3.33329e-08 0
-6.21098e-09 -2.67107e-08 0
3.22533e-10 -1.99803e-08 0
5.03855e-09 -1.31524e-08 0
7.93508e-09 -5.17492e-09 0
0.00529797 -8.57402e-07 0
0 -2.77651e-07 0
-4.50436e-11 9.4951e-08 0
-6.04926e-07 1.22278e-07 0
-3.61976e-07 8.52072e-08 0
-1.67043e-07 1.39664e-07 0
2.25317e-11 8.18022e-08 0
2.13854e-11 2.8507e-11 0
-4.7115e-11 -5.53371e-12 0
-4.14892e-07 -2.54749e-07 0
-4.52105e-07 -2.72806e-07 0
-2.63897e-07 3.14539e-08 0
-2.37017e-07 1.02808e-07 0
-2.30516e-07 9.60078e-08 0
-2.31146e-07 7.4576e-08 0
-2.32571e-07 5.46352e-08 0
-2.33487e-07 3.88399e-08 0
-2.34129e-07 2.73106e-08 0
-2.3469e-07 1.91408e-08 0
-2.3522e-07 1.33425e-08 0
-2.35708e-07 9.14324e-09 0
-2.36129e-07 5.99565e-09 0
-2.36465e-07 3.51667e-09 0
-2.36701e-07 1.42988e-09 0
-2.36824e-07 -4.76964e-10 0
-2.36817e-07 -2.38096e-09 0
-2.36649e-07 -4.44364e-09 0
-2.36266e-07 -6.82384e-09 0
-2.35581e-07 -9.68444e-09 0
-2.34449e-07 -1.31916e-08 0
-2.32648e-07 -1.75025e-08 0
-2.29843e-07 -2.27358e-08 0
-2.25574e-07 -2.89197e-08 0
-2.19271e-07 -3.59254e-08 0
-2.10361e-07 -4.34193e-08 0
-1.98457e-07 -5.08996e-08 0
-1.83516e-07 -5.78379e-08 0
-1.65751e-07 -6.37648e-08 0
-1.4549e-07 -6.81369e-08 0
-1.23654e-07 -7.03634e-08 0
-1.01838e-07 -7.02525e-08 0
-8.11887e-08 -6.81333e-08 0
-6.2091e-08 -6.43829e-08 0
-4.48948e-08 -5.92461e-08 0
-2.98975e-08 -5.30163e-08 0
-1.72019e-08 -4.60442e-08 0
-6.74471e-09 -3.86437e-08 0
1.6188e-09 -3.10379e-08 0
8.04707e-09 -2.33505e-08 0
1.2677e-08 -1.55533e-08 0
1.55621e-08 -6.20573e-09 0
0.00507705 -9.45783e-07 0
0 -2.30334e-07 0
-2.06684e-11 4.11361e-08 0
-6.85648e-07 6.35876e-08 0
-4.70245e-07 2.20776e-08 0
-2.80932e-07 -5.00284e-09 0
-1.33432e-07 -4.63592e-09 0
2.11749e-11 -1.72497e-11 0
-3.18478e-11 3.18478e-11 0
-5.76955e-11 3.70224e-11 0
-2.56519e-07 -1.40046e-07 0
-2.79655e-07 -9.59671e-08 0
-3.02389e-07 9.37646e-08 0
-2.86945e-07 8.99909e-08 0
-2.6937e-07 6.98105e-08 0
-2.56381e-07 5.03143e-08 0
-2.48254e-07 3.54936e-08 0
-2.43589e-07 2.51405e-08 0
-2.41023e-07 1.79058e-08 0
-2.39659e-07 1.27202e-08 0
-2.38967e-07 8.87983e-09 0
-2.38649e-07 5.92371e-09 0
-2.38537e-07 3.53525e-09 0
-2.38538e-07 1.48105e-09 0
-2.38599e-07 -4.26418e-10 0
-2.38684e-07 -2.35256e-09 0
-2.3876e-07 -4.45712e-09 0
-2.38785e-07 -6.90612e-09 0
-2.38682e-07 -9.87986e-09 0
-2.38321e-07 -1.3575e-08 0
-2.37473e-07 -1.81957e-08 0
-2.3576e-07 -2.39231e-08 0
-2.326e-07 -3.08516e-08 0
-2.2719e-07 -3.88838e-08 0
-2.18623e-07 -4.76232e-08 0
-2.06227e-07 -5.63867e-08 0
-1.8996e-07 -6.44621e-08 0
-1.70229e-07 -7.13503e-08 0
-1.47239e-07 -7.64278e-08 0
-1.22056e-07 -7.87722e-08 0
-9.74203e-08 -7.8147e-08 0
-7.49041e-08 -7.53243e-08 0
-5.44516e-08 -7.09073e-08 0
-3.63647e-08 -6.50572e-08 0
-2.09424e-08 -5.80623e-08 0
-8.18245e-09 -5.0336e-08 0
2.12176e-09 -4.22354e-08 0
1.0241e-08 -3.39902e-08 0
1.64246e-08 -2.5705e-08 0
2.08728e-08 -1.73012e-08 0
2.36905e-08 -6.97101e-09 0
0.00480236 -9.51719e-07 0
0 -1.49324e-07 0
-1.16488e-11 -1.48611e-08 0
-6.814e-07 -1.42578e-08 0
-4.7038e-07 -1.00839e-08 0
-3.30906e-07 -1.80714e-08 0
-2.51005e-07 -1.33634e-07 0
-1.99153e-07 -1.26255e-07 0
5.30275e-12 -2.90673e-11 0
-3.0302e-11 3.0302e-11 0
-5.76943e-11 5.785e-11 0
-1.40621e-07 7.31386e-08 0
-4.22791e-07 1.15082e-07 0
-3.62601e-07 6.89764e-08 0
-3.00288e-07 4.61397e-08 0
-2.70442e-07 3.34443e-08 0
-2.56226e-07 2.53023e-08 0
-2.48968e-07 1.93323e-08 0
-2.4504e-07 1.46391e-08 0
-2.4282e-07 1.0886e-08 0
-2.41535e-07 7.85838e-09 0
-2.40798e-07 5.37626e-09 0
-2.40409e-07 3.27929e-09 0
-2.40261e-07 1.42089e-09 0
-2.40298e-07 -3.37491e-10 0
-2.40487e-07 -2.13328e-09 0
-2.40808e-07 -4.11058e-09 0
-2.41234e-07 -6.42879e-09 0
-2.41715e-07 -9.27097e-09 0
-2.42146e-07 -1.28499e-08 0
-2.42312e-07 -1.74063e-08 0
-2.41813e-07 -2.31871e-08 0
-2.39957e-07 -3.03828e-08 0
-2.3567e-07 -3.89964e-08 0
-2.27584e-07 -4.86569e-08 0
-2.14548e-07 -5.85409e-08 0
-1.96521e-07 -6.77386e-08 0
-1.74433e-07 -7.58041e-08 0
-1.48086e-07 -8.20318e-08 0
-1.18216e-07 -8.46986e-08 0
-9.0057e-08 -8.33449e-08 0
-6.57543e-08 -7.96843e-08 0
-4.40939e-08 -7.46942e-08 0
-2.53994e-08 -6.82751e-08 0
-9.94971e-09 -6.07076e-08 0
2.4562e-09 -5.24875e-08 0
1.2235e-08 -4.40029e-08 0
1.98103e-08 -3.54666e-08 0
2.55255e-08 -2.69427e-08 0
2.96384e-08 -1.82886e-08 0
3.23037e-08 -7.41551e-09 0
0.00448993 -9.19147e-07 0
0 -9.9614e-08 0
-3.69982e-11 -6.58376e-08 0
-6.21409e-07 -8.50417e-08 0
-4.4663e-07 -3.3833e-08 0
-3.34509e-07 -4.98666e-08 0
-2.8359e-07 -6.84309e-08 0
-3.26897e-07 -2.27339e-07 0
-2.4793e-07 -1.9416e-07 0
-3.51043e-11 -9.39452e-11 0
-3.21503e-11 -1.00752e-10 0
-7.33521e-12 3.20394e-07 0
-5.74461e-07 3.18943e-07 0
-4.26887e-07 -1.76377e-08 0
-3.05873e-07 -1.46289e-08 0
-2.67604e-07 8.39533e-09 0
-2.55302e-07 1.4119e-08 0
-2.50076e-07 1.35812e-08 0
-2.47181e-07 1.13833e-08 0
-2.45313e-07 8.92895e-09 0
-2.44041e-07 6.65073e-09 0
-2.43189e-07 4.64848e-09 0
-2.42671e-07 2.89528e-09 0
-2.42441e-07 1.31432e-09 0
-2.42471e-07 -1.92002e-10 0
-2.42753e-07 -1.73331e-09 0
-2.43282e-07 -3.43192e-09 0
-2.44056e-07 -5.42856e-09 0
-2.45051e-07 -7.89103e-09 0
-2.46195e-07 -1.10238e-08 0
-2.47302e-07 -1.50752e-08 0
-2.47973e-07 -2.03321e-08 0
-2.47439e-07 -2.70817e-08 0
-2.4437e-07 -3.55011e-08 0
-2.36859e-07 -4.54392e-08 0
-2.23064e-07 -5.62199e-08 0
-2.02885e-07 -6.69896e-08 0
-1.78243e-07 -7.75604e-08 0
-1.47761e-07 -8.67936e-08 0
-1.10409e-07 -9.06371e-08 0
-7.79875e-08 -8.81951e-08 0
-5.23046e-08 -8.33454e-08 0
-2.99011e-08 -7.75888e-08 0
-1.12476e-08 -7.03939e-08 0
3.48965e-09 -6.21223e-08 0
1.48579e-08 -5.33889e-08 0
2.35484e-08 -4.45888e-08 0
3.01451e-08 -3.58881e-08 0
3.50721e-08 -2.72861e-08 0
3.86323e-08 -1.85619e-08 0
4.10312e-08 -7.53246e-09 0
0.0041669 -9.5886e-07 0
0 -9.9422e-08 0
-7.58353e-11 -9.8833e-08 0
-5.24182e-07 -1.30712e-07 0
-4.12014e-07 -4.22643e-08 0
-3.35032e-07 -2.01778e-08 0
-3.35194e-07 -6.72246e-08 0
-3.66658e-07 -1.29122e-07 0
-5.40932e-07 -3.15667e-07 0
-5.18328e-07 -2.4398e-07 0
-3.51868e-07 -1.66297e-11 0
-2.00055e-07 6.11138e-07 0
-6.54604e-08 5.16736e-07 0
-1.7385e-07 -1.78303e-07 0
-2.37459e-07 -9.92477e-08 0
-2.5984e-07 -1.22522e-08 0
-2.66491e-07 9.06182e-09 0
-2.67617e-07 1.1406e-08 0
-2.66865e-07 9.78927e-09 0
-2.65607e-07 7.60645e-09 0
-2.64379e-07 5.60077e-09 0
-2.63388e-07 3.89218e-09 0
-2.62705e-07 2.44156e-09 0
-2.62349e-07 1.16866e-09 0
-2.62323e-07 -1.67278e-11 0
-2.62632e-07 -1.20869e-09 0
-2.63284e-07 -2.50756e-09 0
-2.64288e-07 -4.0264e-09 0
-2.6564e-07 -5.90007e-09 0
-2.67289e-07 -8.29658e-09 0
-2.6907e-07 -1.14299e-08 0
-2.70585e-07 -1.55709e-08 0
-2.71e-07 -2.1048e-08 0
-2.68767e-07 -2.82146e-08 0
-2.61466e-07 -3.73479e-08 0
-2.46477e-07 -4.85027e-08 0
-2.23494e-07 -6.1713e-08 0
-1.95704e-07 -7.75881e-08 0
-1.58498e-07 -9.35385e-08 0
-1.05686e-07 -9.96767e-08 0
-6.79403e-08 -9.51696e-08 0
-4.1109e-08 -8.86364e-08 0
-1.80565e-08 -8.16237e-08 0
1.63952e-10 -7.31379e-08 0
1.37377e-08 -6.37695e-08 0
2.36686e-08 -5.42317e-08 0
3.09466e-08 -4.48926e-08 0
3.63006e-08 -3.58548e-08 0
4.02157e-08 -2.70476e-08 0
4.30379e-08 -1.81811e-08 0
4.50502e-08 -7.30522e-09 0
0.00386833 -1.19743e-06 0
0 -1.31926e-07 0
-1.04419e-10 -9.11642e-08 0
-4.93465e-07 -1.17874e-07 0
-5.08173e-07 -3.41456e-08 0
-4.92825e-07 2.05413e-09 0
-4.8485e-07 4.57129e-08 0
-5.10979e-07 3.83584e-08 0
-5.38658e-07 -2.34308e-08 0
-7.72024e-07 -2.36053e-07 0
-8.26453e-07 -4.24083e-07 0
-9.01517e-07 -8.53462e-08 0
-3.3608e-07 2.43237e-07 0
-4.34482e-07 1.73595e-07 0
-5.13122e-07 8.71498e-08 0
-5.25159e-07 4.35066e-08 0
-5.20718e-07 2.37254e-08 0
-5.14353e-07 1.43636e-08 0
-5.08857e-07 9.35295e-09 0
-5.04584e-07 6.30853e-09 0
-5.01418e-07 4.27817e-09 0
-4.99178e-07 2.83114e-09 0
-4.97704e-07 1.7369e-09 0
-4.96879e-07 8.51519e-10 0
-4.96627e-07 7.26101e-11 0
-4.96909e-07 -6.82279e-10 0
-4.97717e-07 -1.48839e-09 0
-4.99064e-07 -2.42354e-09 0
-5.00967e-07 -3.57735e-09 0
-5.03403e-07 -5.06171e-09 0
-5.06244e-07 -7.02396e-09 0
-5.0911e-07 -9.66498e-09 0
-5.11129e-07 -1.32654e-08 0
-5.10565e-07 -1.823e-08 0
-5.045e-07 -2.51698e-08 0
-4.89295e-07 -3.50151e-08 0
-4.63142e-07 -4.90002e-08 0
-4.27338e-07 -6.8062e-08 0
-3.69319e-07 -8.81896e-08 0
-2.75043e-07 -9.63386e-08 0
-2.06136e-07 -9.00938e-08 0
-1.6131e-07 -8.21185e-08 0
-1.21103e-07 -7.56665e-08 0
-8.93565e-08 -6.77373e-08 0
-6.5874e-08 -5.88814e-08 0
-4.87652e-08 -4.98519e-08 0
-3.63432e-08 -4.09986e-08 0
-2.74162e-08 -3.24193e-08 0
-2.11965e-08 -2.40581e-08 0
-1.71183e-08 -1.56867e-08 0
-1.47013e-08 -6.13602e-09 0
0.00344536 -1.48052e-06 0
0 0 0
-5.60213e-11 0 0
-2.5855e-07 0 0
-3.0968e-07 0 0
-3.24717e-07 0 0
-3.15687e-07 0 0
-2.72054e-07 0 0
-2.45653e-07 0 0
-2.53752e-07 0 0
-4.74566e-07 0 0
-7.01463e-07 0 0
-5.91317e-07 0 0
-4.8374e-07 0 0
-4.25595e-07 0 0
-3.96183e-07 0 0
-3.8065e-07 0 0
-3.7166e-07 0 0
-3.66013e-07 0 0
-3.62285e-07 0 0
-3.59775e-07 0 0
-3.581e-07 0 0
-3.57032e-07 0 0
-3.56432e-07 0 0
-3.56219e-07 0 0
-3.56352e-07 0 0
-3.56818e-07 0 0
-3.57625e-07 0 0
-3.58788e-07 0 0
-3.60308e-07 0 0
-3.62137e-07 0 0
-3.64097e-07 0 0
-3.65751e-07 0 0
-3.66187e-07 0 0
-3.63816e-07 0 0
-3.56503e-07 0 0
-3.42665e-07 0 0
-3.21688e-07 0 0
-2.84484e-07 0 0
-2.21984e-07 0 0
-1.7346e-07 0 0
-1.42352e-07 0 0
-1.13895e-07 0 0
-9.11606e-08 0 0
-7.41783e-08 0 0
-6.16791e-08 0 0
-5.25447e-08 0 0
-4.59813e-08 0 0
-4.14568e-08 0 0
-3.85904e-08 0 0
-3.70687e-08 0 0
0.00158051 0 0
0 0 1.01363e-07
-1.13301e-10 0 6.87084e-08
-4.39529e-07 0 7.08556e-08
-5.14001e-07 0 -1.65343e-08
-4.24501e-07 0 -3.65059e-08
-2.08597e-07 0 -1.52206e-08
-3.10395e-07 0 8.44018e-09
-3.23291e-07 0 9.43712e-09
-3.13351e-07 0 3.07892e-09
-3.07595e-07 0 -2.33944e-09
-3.26803e-07 0 -3.41934e-09
-3.56927e-07 0 -2.62223e-09
-3.867e-07 0 -1.58337e-09
-4.11955e-07 0 -8.42836e-10
-4.32045e-07 0 -4.20863e-10
-4.47392e-07 0 -2.09278e-10
-4.58774e-07 0 -1.0982e-10
-4.67024e-07 0 -6.27831e-11
-4.72886e-07 0 -3.83028e-11
-4.76953e-07 0 -2.3174e-11
-4.79663e-07 0 -1.20465e-11
-4.8132e-07 0 -2.91855e-12
-4.82117e-07 0 4.79615e-12
-4.82154e-07 0 1.09283e-11
-4.81459e-07 0 1.46304e-11
-4.79991e-07 0 1.41762e-11
-4.77647e-07 0 6.60825e-12
-4.74268e-07 0 -1.26865e-11
-4.69633e-07 0 -5.03617e-11
-4.63476e-07 0 -1.15267e-10
-4.55491e-07 0 -2.18097e-10
-4.45369e-07 0 -3.70247e-10
-4.32831e-07 0 -5.81714e-10
-4.17688e-07 0 -8.58076e-10
-3.99876e-07 0 -1.19658e-09
-3.79494e-07 0 -1.58121e-09
-3.56814e-07 0 -1.97795e-09
-3.3229e-07 0 -2.33581e-09
-3.06559e-07 0 -2.60028e-09
-2.80383e-07 0 -2.73382e-09
-2.54543e-07 0 -2.72746e-09
-2.29751e-07 0 -2.59593e-09
-2.06619e-07 0 -2.36708e-09
-1.85645e-07 0 -2.07421e-09
-1.672e-07 0 -1.74953e-09
-1.51537e-07 0 -1.41881e-09
-1.38804e-07 0 -1.09832e-09
-1.2907e-07 0 -7.92627e-10
-1.22325e-07 0 -4.81637e-10
-1.18502e-07 0 -5.33966e-11
0.00521832 0 3.84171e-07
0.0036 1.91597e-07 1.00334e-07
0.00359964 -0.00507481 -0.00256603
0.0141013 -0.00950444 -0.0041868
0.0239148 -0.00871658 -0.00253745
0.0337286 -0.00827076 -0.00143542
0.0446211 -0.00499831 -0.000729043
0.0461113 -0.000663888 -0.000308613
0.0456059 0.00225715 -0.000148647
0.0402875 0.0040391 -9.51897e-05
0.0353313 0.00393375 -7.36036e-05
0.0314014 0.00311611 -4.52705e-05
0.0286868 0.00218802 -2.52078e-05
0.026973 0.00141319 -1.3314e-05
0.0259566 0.000855624 -6.76997e-06
0.0253865 0.000489103 -3.36011e-06
0.025086 0.000263318 -1.65564e-06
0.0249396 0.000131802 -8.22847e-07
0.0248766 5.9498e-05 -4.15297e-07
0.0248555 2.26015e-05 -2.08895e-07
0.0248529 6.07566e-06 -9.50705e-08
0.0248561 9.6809e-07 -2.08777e-08
0.024858 2.26678e-06 4.18745e-08
0.0248548 7.40572e-06 1.12188e-07
0.0248438 1.53112e-05 2.08467e-07
0.0248227 2.58358e-05 3.54705e-07
0.0247888 3.94476e-05 5.86793e-07
0.0247384 5.70778e-05 9.60532e-07
0.0246664 8.00556e-05 1.56232e-06
0.0245663 0.000110077 2.52269e-06
0.0244292 0.000149155 4.03105e-06
0.0242437 0.000199488 6.34624e-06
0.0239956 0.000263165 9.79132e-06
0.0236685 0.000341634 1.47128e-05
0.0232441 0.000434875 2.13809e-05
0.0227051 0.000540402 2.98224e-05
0.022038 0.000652424 3.96279e-05
0.0212385 0.000761791 4.98479e-05
0.0203151 0.000857223 5.91153e-05
0.0192912 0.000927734 6.60126e-05
0.0182028 0.000965323 6.95306e-05
0.017093 0.00096675 6.93901e-05
0.0160053 0.000933587 6.60325e-05
0.0149772 0.000870788 6.0298e-05
0.0140388 0.000784766 5.30626e-05
0.0132115 0.000681873 4.50307e-05
0.0125098 0.000567527 3.66793e-05
0.011943 0.000445874 2.82844e-05
0.0115162 0.000319735 1.9975e-05
0.0112325 0.000190679 1.18087e-05
0.011093 6.28032e-05 4.27848e-06
0.011093 6.23943e-08 7.89773e-07
0.01 1.89933e-07 1.17712e-07
0.0100002 -0.00809163 -0.00456113
0.0178684 -0.0161634 -0.00720349
0.0259447 -0.016822 -0.00395395
0.0352714 -0.0190121 -0.00197666
0.052722 -0.0114304 -0.000802396
0.0520094 -0.000489013 -0.000192524
0.0525338 0.00609028 -7.76473e-05
0.0427158 0.0104209 -7.96505e-05
0.0358687 0.00897032 -9.83656e-05
0.031621 0.00669093 -6.28479e-05
0.0290749 0.00445318 -3.24289e-05
0.0277018 0.00274321 -1.6093e-05
0.0270072 0.00159311 -7.59796e-06
0.0266824 0.000873982 -3.39393e-06
0.0265498 0.000448673 -1.44003e-06
0.026511 0.000210218 -5.81355e-07
0.0265135 8.44976e-05 -2.21163e-07
0.0265307 2.38879e-05 -7.46397e-08
0.0265498 -4.4325e-07 -1.34822e-08
0.0265649 -5.02928e-06 1.87485e-08
0.0265733 1.22704e-06 4.8587e-08
0.0265736 1.40068e-05 9.28311e-08
0.0265647 3.17243e-05 1.69165e-07
0.0265452 5.44744e-05 3.03824e-07
0.0265126 8.34823e-05 5.40029e-07
0.0264637 0.000120852 9.49772e-07
0.0263936 0.000169478 1.65115e-06
0.0262955 0.000233017 2.83292e-06
0.0261605 0.000315814 4.78612e-06
0.0259763 0.000422665 7.93721e-06
0.0257276 0.000558239 1.28654e-05
0.0253955 0.000725975 2.02665e-05
0.024958 0.000926305 3.08015e-05
0.0243925 0.00115434 4.47752e-05
0.0236797 0.00139778 6.16809e-05
0.0228101 0.00163639 7.98589e-05
0.0217911 0.00184471 9.6653e-05
0.0206501 0.00199774 0.000109192
0.0194325 0.00207749 0.000115427
0.0181925 0.00207727 0.000114893
0.0169831 0.00200162 0.000108651
0.0158478 0.00186248 9.84719e-05
0.0148188 0.00167453 8.60323e-05
0.0139178 0.00145177 7.25659e-05
0.0131582 0.00120583 5.8837e-05
0.0125477 0.000945454 4.52405e-05
0.0120901 0.000676651 3.19125e-05
0.0117868 0.000403324 1.88272e-05
0.0116378 0.000133221 6.53998e-06
0.0116376 5.32188e-07 7.44921e-07
0.0148 -1.64198e-07 2.79986e-07
0.0148005 -0.00892038 -0.00620257
0.0198727 -0.0186016 -0.00983888
0.0242257 -0.0217443 -0.0053316
0.0263958 -0.0326343 -0.00252327
0.0279368 -0.0205759 -0.000851081
0.0268987 -2.68917e-06 -2.61043e-05
0.0276485 0.0118153 -1.03014e-06
0.0331106 0.0208504 -1.16021e-05
0.0299375 0.015118 -3.75734e-05
0.0274962 0.00995945 -4.21359e-05
0.0263148 0.00613335 -2.77433e-05
0.0259469 0.00349432 -1.45038e-05
0.0259601 0.00188189 -6.44458e-06
0.0261009 0.000949904 -2.41822e-06
0.0262571 0.00043636 -7.11055e-07
0.0263887 0.000168927 -9.35226e-08
0.0264875 4.01601e-05 8.11435e-08
0.0265572 -1.35404e-05 1.01985e-07
0.026604 -2.80261e-05 8.38868e-08
0.0266335 -2.24997e-05 6.83641e-08
0.0266499 -6.53545e-06 7.09364e-08
0.0266555 1.5759e-05 1.02263e-07
0.0266516 4.34095e-05 1.7885e-07
0.0266381 7.7347e-05 3.31603e-07
0.0266137 0.000119826 6.17044e-07
0.026576 0.000174213 1.13516e-06
0.0265211 0.000244973 2.05821e-06
0.0264431 0.00033773 3.67558e-06
0.0263338 0.000459275 6.45892e-06
0.0261817 0.000617346 1.11454e-05
0.0259708 0.000819936 1.88177e-05
0.0256801 0.00107375 3.09124e-05
0.0252831 0.00138142 4.90127e-05
0.0247488 0.00173741 7.4224e-05
0.0240467 0.00212358 0.000106071
0.0231563 0.00250706 0.00014143
0.0220796 0.0028442 0.000174628
0.020849 0.00309123 0.000199291
0.0195239 0.00321708 0.000210914
0.0181767 0.00321172 0.000208788
0.0168739 0.00308551 0.000195716
0.0156652 0.0028608 0.000175735
0.0145829 0.00256296 0.000152259
0.0136458 0.00221482 0.00012755
0.0128634 0.00183447 0.000102874
0.0122395 0.001435 7.87962e-05
0.0117746 0.00102511 5.5432e-05
0.0114679 0.000610279 3.26156e-05
0.0113178 0.000201621 1.09524e-05
0.0113176 1.07766e-06 5.94153e-07
0.018 -4.93292e-07 2.59835e-07
0.0180004 -0.00777768 -0.0073941
0.0204979 -0.0162536 -0.0118222
0.0208438 -0.0172938 -0.00635135
0.0160105 -0.0194225 -0.00289706
-6.01851e-08 -0.0106063 -0.000973559
3.14876e-05 1.35139e-05 2.54815e-08
-1.39924e-05 1.55231e-05 -1.90387e-06
0.0118252 0.00821729 1.16389e-05
0.0208717 0.0146401 1.73965e-05
0.0216118 0.0103493 -5.10504e-06
0.0225048 0.00602346 -1.67718e-05
0.0236898 0.00310932 -1.13814e-05
0.024701 0.00144495 -4.65673e-06
0.0254379 0.000579772 -1.21083e-06
0.0259296 0.000162193 5.16018e-08
0.026241 -1.95373e-05 3.51687e-07
0.0264322 -8.37111e-05 3.24864e-07
0.0265475 -9.2483e-05 2.28679e-07
0.0266159 -7.67762e-05 1.4733e-07
0.0266555 -5.09645e-05 1.00663e-07
0.0266772 -2.0877e-05 9.17673e-08
0.0266869 1.20591e-05 1.26381e-07
0.0266881 4.87797e-05 2.22732e-07
0.0266819 9.16643e-05 4.21319e-07
0.0266682 0.000144214 8.00588e-07
0.0266458 0.000211052 1.50446e-06
0.026612 0.000298101 2.78988e-06
0.0265622 0.000412833 5.10625e-06
0.0264897 0.000564486 9.22152e-06
0.0263841 0.000764054 1.64068e-05
0.0262296 0.00102374 2.86659e-05
0.0260033 0.00135528 4.89105e-05
0.0256725 0.00176632 8.07852e-05
0.0251945 0.00225402 0.000127558
0.02452 0.00279648 0.00018954
0.0236081 0.00334646 0.000260859
0.0224489 0.00383552 0.000328915
0.0210827 0.00419282 0.000378976
0.0195941 0.00436887 0.000400849
0.0180881 0.00435122 0.000393835
0.0166528 0.00416174 0.00036545
0.0153447 0.00383897 0.000324942
0.0141936 0.00342226 0.000279223
0.0132125 0.00294439 0.000232403
0.012404 0.00242977 0.000186536
0.0117661 0.00189505 0.000142381
0.0112946 0.00135069 9.99262e-05
0.0109855 0.000802788 5.87046e-05
0.010835 0.000265085 1.93735e-05
0.0108348 1.65732e-06 4.25054e-07
0.0196 -4.99768e-07 6.76156e-08
0.0196001 -0.0050086 -0.00801895
0.0207363 -0.0101599 -0.012854
0.0195416 -0.00988628 -0.00682717
0.0146061 -0.00788986 -0.00296614
0.00435516 -0.00315534 -0.00122021
2.46664e-05 -2.28229e-05 -0.000246243
8.83043e-06 -8.83043e-06 -9.28012e-09
-1.34239e-05 1.4561e-05 -1.92178e-06
0.00822024 0.00535017 2.15146e-06
0.0146474 0.0083431 -1.56173e-06
0.0183011 0.00406906 -1.35958e-05
0.0215288 0.00130694 -1.16338e-05
0.0237052 0.000138467 -4.70863e-06
0.0250282 -0.000276488 -1.05287e-06
0.025791 -0.000365677 2.09531e-07
0.0262191 -0.000333222 4.38063e-07
0.026456 -0.000266147 3.52658e-07
0.0265859 -0.000197151 2.27077e-07
0.0266567 -0.00013608 1.374e-07
0.0266949 -8.38368e-05 9.43792e-08
0.0267154 -3.80886e-05 9.69578e-08
0.0267258 4.572e-06 1.52017e-07
0.0267306 4.79554e-05 2.84681e-07
0.0267317 9.62235e-05 5.50877e-07
0.02673 0.000154111 1.0599e-06
0.0267253 0.000227282 2.01613e-06
0.0267163 0.000322786 3.79439e-06
0.0267005 0.000449567 7.07277e-06
0.0266732 0.000618993 1.30592e-05
0.0266261 0.000845257 2.38592e-05
0.0265451 0.00114532 4.30177e-05
0.0264063 0.00153766 7.61487e-05
0.0261714 0.00203844 0.000131163
0.0257827 0.00265287 0.000216696
0.0251633 0.00336042 0.000336542
0.0242351 0.00409908 0.000480456
0.0229635 0.00476639 0.000620264
0.0214005 0.00525135 0.00072147
0.0196747 0.00547819 0.000761214
0.0179479 0.005435 0.000740601
0.0163392 0.00516536 0.000679312
0.0149084 0.00473205 0.000597844
0.0136777 0.00419148 0.000509541
0.0126488 0.00358638 0.000421479
0.0118146 0.0029462 0.000336757
0.0111648 0.00228966 0.000256207
0.0106893 0.00162755 0.000179423
0.0103798 0.000965395 0.000105295
0.01023 0.000318489 3.45112e-05
0.0102298 2.21489e-06 2.98755e-07
0.0196 -3.21919e-07 -1.35776e-07
0.0196001 -0.00197098 -0.00803652
0.0210478 -0.0039102 -0.0128536
0.0208029 -0.00319419 -0.00681472
0.0178108 -0.000249615 -0.00290918
0.0135235 0.00572025 -0.00138877
0.00851489 0.00471521 -0.000604499
2.48014e-05 -2.08443e-05 -0.000127434
7.42047e-06 -7.42047e-06 -6.69085e-09
-1.29482e-05 1.38995e-05 -8.78389e-07
0.00535091 0.000277547 1.14925e-06
0.0141459 -0.000848036 -1.39593e-05
0.0203586 -0.00228689 -2.49561e-05
0.0236046 -0.00204987 -1.20833e-05
0.0252127 -0.00150384 -3.91405e-06
0.0260072 -0.00102773 -9.13374e-07
0.0263996 -0.000684041 -8.00261e-08
0.0265926 -0.000450269 7.51243e-08
0.0266866 -0.000293117 6.85323e-08
0.0267316 -0.000185858 4.83732e-08
0.0267531 -0.000109722 5.09196e-08
0.0267639 -5.19171e-05 8.84783e-08
0.0267706 -3.50547e-06 1.78875e-07
0.0267768 4.22364e-05 3.60473e-07
0.0267843 9.10064e-05 7.10314e-07
0.0267945 0.000148374 1.3765e-06
0.0268082 0.000220535 2.63888e-06
0.0268258 0.00031503 5.02182e-06
0.026847 0.000441524 9.50168e-06
0.0268701 0.00061267 1.78819e-05
0.0268903 0.000845025 3.34533e-05
0.0268967 0.00115979 6.20957e-05
0.0268674 0.00158269 0.000113891
0.0267609 0.0021412 0.000204703
0.0265044 0.00285523 0.000355034
0.0259841 0.00371521 0.000579662
0.0250604 0.00464926 0.000863635
0.0236452 0.00551106 0.00114527
0.0218078 0.00613184 0.0013444
0.019753 0.00640004 0.00141171
0.0177396 0.00631122 0.00135697
0.0159234 0.00594625 0.0012289
0.014357 0.00540041 0.0010703
0.0130449 0.00474699 0.000905007
0.0119722 0.00403586 0.000744223
0.011118 0.00329852 0.000592096
0.0104621 0.00255328 0.000449094
0.00998726 0.00180945 0.000313843
0.00968064 0.00107081 0.000183993
0.0095333 0.000352799 6.02028e-05
0.00953302 2.5896e-06 3.25742e-07
0.018 -2.17603e-07 -2.58035e-07
0.0180002 0.000496799 -0.00751278
0.0206876 0.000899647 -0.0119541
0.0221396 0.00127337 -0.00632081
0.0216782 0.00328875 -0.00273746
0.0211337 0.00812411 -0.00130428
0.0218758 0.0144042 -0.000679978
0.0139219 0.00869809 -0.000299274
2.53574e-05 -1.63313e-05 -6.52683e-05
-1.09547e-05 -1.77209e-05 1.41794e-07
1.67436e-06 -0.00580078 4.46039e-05
0.0141336 -0.0109304 2.11994e-05
0.02212 -0.00814115 -3.88391e-05
0.0251443 -0.00470891 -2.13658e-05
0.0262369 -0.00267574 -7.8062e-06
0.0266424 -0.00155112 -2.60955e-06
0.0267878 -0.000918049 -8.93561e-07
0.0268316 -0.000552784 -3.3519e-07
0.0268368 -0.000336009 -1.38624e-07
0.0268296 -0.000202611 -5.02205e-08
0.0268209 -0.000116199 1.44013e-08
0.0268152 -5.57914e-05 9.35558e-08
0.0268145 -8.68607e-06 2.22539e-07
0.02682 3.34723e-05 4.56548e-07
0.0268325 7.6951e-05 8.9667e-07
0.0268535 0.000127336 1.73427e-06
0.0268845 0.000190539 3.33415e-06
0.0269278 0.000273668 6.39251e-06
0.0269855 0.000385948 1.22374e-05
0.0270594 0.000539815 2.33974e-05
0.0271494 0.000752252 4.46669e-05
0.0272502 0.00104635 8.50498e-05
0.027345 0.00145266 0.000161069
0.0273943 0.00200889 0.000301332
0.027315 0.00275313 0.000548531
0.026953 0.00369878 0.000944063
0.0260764 0.00477906 0.00147372
0.0244937 0.00580403 0.00201155
0.0222963 0.00653574 0.00238281
0.0198087 0.00681855 0.00248621
0.0174543 0.00666483 0.00235716
0.0154164 0.0062104 0.00210732
0.0137179 0.00558401 0.00181773
0.0123346 0.00486747 0.00152641
0.0112293 0.00411057 0.00124908
0.010365 0.00334189 0.000990291
0.00971062 0.0025763 0.000749233
0.00924213 0.00181998 0.000522641
0.00894212 0.00107423 0.00030608
0.00879891 0.000353192 0.000100146
0.00879863 2.42001e-06 5.89979e-07
0.0148 -1.95971e-07 -3.3917e-07
0.0148004 0.00186356 -0.00654652
0.0193929 0.00335625 -0.0103286
0.0227437 0.00313067 -0.00543959
0.0245515 0.0043891 -0.00244457
0.0262433 0.00737 -0.00121724
0.0294386 0.01292 -0.000663166
0.0342433 0.022311 -0.000329944
0.0294484 0.0140101 -3.72494e-05
0.0304581 -3.22381e-11 0.000141186
0.0330827 -0.0138601 0.000143126
0.0316245 -0.0229639 3.96199e-05
0.0296594 -0.0132834 -3.809e-05
0.0285374 -0.00615697 -2.29508e-05
0.0278842 -0.00299707 -8.86023e-06
0.0274767 -0.00157648 -3.13648e-06
0.0272153 -0.000872267 -1.10934e-06
0.0270461 -0.00049878 -3.91837e-07
0.0269367 -0.000290945 -1.22477e-07
0.0268668 -0.000169909 -4.01631e-09
0.0268238 -9.53942e-05 7.33988e-08
0.0267999 -4.57628e-05 1.62871e-07
0.0267909 -8.72573e-06 3.10349e-07
0.0267946 2.32959e-05 5.83252e-07
0.0268108 5.56345e-05 1.10322e-06
0.0268405 9.28016e-05 2.10188e-06
0.0268861 0.000139441 4.02629e-06
0.0269512 0.000201124 7.74354e-06
0.0270406 0.000285191 1.49401e-05
0.0271596 0.000401801 2.89035e-05
0.0273134 0.000565339 5.60524e-05
0.0275036 0.000796292 0.000108899
0.0277217 0.00112352 0.000211579
0.0279357 0.00158612 0.000408944
0.0280616 0.00223148 0.000775495
0.0279125 0.00309585 0.0013987
0.0271456 0.00413776 0.0022778
0.0254044 0.00515873 0.00318906
0.0228244 0.00590539 0.00382593
0.0198009 0.0061659 0.00397867
0.017102 0.00595424 0.00371659
0.0148638 0.00547903 0.00328509
0.0130581 0.0048763 0.00281274
0.0116245 0.00421684 0.00235073
0.0105017 0.00353931 0.00191778
0.0096376 0.00286382 0.00151742
0.00899131 0.00219945 0.00114644
0.00853283 0.00154881 0.000798787
0.00824134 0.000911271 0.000467289
0.00810316 0.000298363 0.00015273
0.00810289 1.13469e-06 8.19678e-07
0.01 -2.99281e-07 -4.57188e-07
0.0100001 0.00167008 -0.00522172
0.0167026 0.00290426 -0.00810678
0.0214765 0.00243055 -0.00422001
0.024855 0.00301107 -0.00199553
0.0285293 0.00491844 -0.00104135
0.0336655 0.00731665 -0.000632019
0.0422668 0.0091699 -0.000361799
0.0564276 0.00395905 -6.13024e-05
0.0564716 -0.00362639 0.000143069
0.0564786 -0.0069736 0.000142168
0.0426196 -0.00750178 4.35801e-05
0.0335233 -0.00503685 -1.46297e-05
0.0293503 -0.0029221 -1.61516e-05
0.0273767 -0.00160924 -8.39767e-06
0.026359 -0.000879474 -3.57871e-06