# vtk DataFile Version 2.0
Tobias Weinzierl: CPU, Manycore and Cluster Computing
ASCII

DATASET STRUCTURED_POINTS
DIMENSIONS  51 11 6

ORIGIN 0 0 0 

SPACING 0.1 0.1 0.1 

POINT_DATA 3366

VECTORS velocity float
0 0 0
2.436e-14 0 0
-2.00044e-10 0 0
-2.60441e-10 0 0
-1.77068e-09 0 0
1.46026e-09 0 0
2.15591e-09 0 0
2.22283e-09 0 0
2.51572e-09 0 0
3.13225e-09 0 0
3.82995e-09 0 0
4.28323e-09 0 0
4.28445e-09 0 0
3.80598e-09 0 0
2.87844e-09 0 0
1.63445e-09 0 0
3.54465e-10 0 0
-6.86066e-10 0 0
-1.41797e-09 0 0
-1.97781e-09 0 0
-2.54772e-09 0 0
-3.22248e-09 0 0
-3.98576e-09 0 0
-4.7592e-09 0 0
-5.46099e-09 0 0
-6.03944e-09 0 0
-6.47901e-09 0 0
-6.7906e-09 0 0
-6.99829e-09 0 0
-7.12897e-09 0 0
-7.20671e-09 0 0
-7.24983e-09 0 0
-7.26939e-09 0 0
-7.27316e-09 0 0
-7.26917e-09 0 0
-7.25371e-09 0 0
-7.20324e-09 0 0
-7.09592e-09 0 0
-6.93911e-09 0 0
-6.77054e-09 0 0
-6.6363e-09 0 0
-6.56964e-09 0 0
-6.58121e-09 0 0
-6.65652e-09 0 0
-6.75945e-09 0 0
-6.84604e-09 0 0
-6.88574e-09 0 0
-6.87983e-09 0 0
-6.86154e-09 0 0
-6.8661e-09 0 0
0.00140381 0 0
0 3.90258e-07 0
2.45071e-16 -5.65091e-11 0
-3.1198e-10 -5.23281e-10 0
1.20829e-10 -1.57949e-10 0
-8.02351e-10 -1.2106e-09 0
4.64401e-09 -1.21131e-09 0
5.419e-09 9.90624e-10 0
5.32795e-09 7.18194e-10 0
6.64759e-09 -7.12372e-10 0
9.03119e-09 -2.07699e-09 0
1.13862e-08 -2.9277e-09 0
1.28643e-08 -3.06021e-09 0
1.29512e-08 -2.29905e-09 0
1.15894e-08 -7.63256e-10 0
9.18172e-09 8.91381e-10 0
6.36984e-09 1.902e-09 0
3.71586e-09 2.0189e-09 0
1.46927e-09 1.5721e-09 0
-4.87827e-10 1.06314e-09 0
-2.45301e-09 7.83391e-10 0
-4.64861e-09 7.4221e-10 0
-7.09301e-09 8.07052e-10 0
-9.62738e-09 8.51993e-10 0
-1.20242e-08 8.20807e-10 0
-1.40925e-08 7.18697e-10 0
-1.57327e-08 5.7887e-10 0
-1.69371e-08 4.35239e-10 0
-1.776e-08 3.10103e-10 0
-1.82832e-08 2.13033e-10 0
-1.85887e-08 1.4478e-10 0
-1.87453e-08 1.01108e-10 0
-1.88033e-08 7.46215e-11 0
-1.87898e-08 5.89486e-11 0
-1.87139e-08 5.21714e-11 0
-1.85835e-08 4.59258e-11 0
-1.83851e-08 1.8044e-11 0
-1.80555e-08 -4.27112e-11 0
-1.75273e-08 -1.11704e-10 0
-1.68016e-08 -1.44655e-10 0
-1.59619e-08 -1.14213e-10 0
-1.51244e-08 -2.62072e-11 0
-1.43863e-08 8.96903e-11 0
-1.38009e-08 1.94969e-10 0
-1.33683e-08 2.54016e-10 0
-1.30359e-08 2.47388e-10 0
-1.27236e-08 1.84196e-10 0
-1.23736e-08 1.02897e-10 0
-1.19976e-08 5.46752e-11 0
-1.16832e-08 7.45358e-11 0
-1.15307e-08 1.34847e-10 0
0.0040135 -1.03707e-05 0
0 -1.92523e-08 0
3.94031e-13 -1.49932e-10 0
4.48225e-10 -1.63684e-09 0
2.51821e-09 -3.77028e-09 0
4.83854e-09 -6.65414e-09 0
8.57588e-09 -4.74607e-09 0
6.61373e-09 9.11766e-11 0
5.31479e-09 -3.66352e-10 0
6.58044e-09 -3.0943e-09 0
1.04335e-08 -5.73306e-09 0
1.42619e-08 -7.99523e-09 0
1.62833e-08 -9.53439e-09 0
1.6108e-08 -9.31809e-09 0
1.38571e-08 -6.84939e-09 0
1.05003e-08 -2.98448e-09 0
7.02339e-09 9.33844e-10 0
3.93588e-09 3.99582e-09 0
1.29636e-09 5.86652e-09 0
-1.07054e-09 6.62032e-09 0
-3.3744e-09 6.55691e-09 0
-5.75235e-09 6.01497e-09 0
-8.22322e-09 5.241e-09 0
-1.06827e-08 4.3723e-09 0
-1.29539e-08 3.48768e-09 0
-1.48705e-08 2.6491e-09 0
-1.63404e-08 1.90919e-09 0
-1.73603e-08 1.30219e-09 0
-1.79917e-08 8.38334e-10 0
-1.83244e-08 5.06658e-10 0
-1.84459e-08 2.83201e-10 0
-1.84241e-08 1.39503e-10 0
-1.83044e-08 4.40419e-11 0
-1.81035e-08 -3.5999e-11 0
-1.78049e-08 -1.23155e-10 0
-1.73907e-08 -2.39677e-10 0
-1.68357e-08 -4.29744e-10 0
-1.60526e-08 -7.21167e-10 0
-1.49346e-08 -1.06618e-09 0
-1.34623e-08 -1.36051e-09 0
-1.17372e-08 -1.51833e-09 0
-9.92009e-09 -1.51819e-09 0
-8.16224e-09 -1.39534e-09 0
-6.57529e-09 -1.21557e-09 0
-5.21578e-09 -1.0522e-09 0
-4.0703e-09 -9.56637e-10 0
-3.07341e-09 -9.25811e-10 0
-2.16548e-09 -8.92796e-10 0
-1.35957e-09 -7.58176e-10 0
-7.6074e-10 -4.43591e-10 0
-4.49974e-10 4.87568e-11 0
0.00574246 -2.68577e-05 0
0 -6.45232e-07 0
9.98838e-13 -9.9614e-10 0
1.18196e-09 -3.72901e-09 0
3.96122e-09 -7.25197e-09 0
5.57695e-09 -9.83145e-09 0
5.39211e-09 -5.31409e-09 0
3.3495e-09 -3.38078e-12 0
2.20968e-09 -1.19375e-09 0
1.38072e-09 -4.30141e-09 0
3.18526e-09 -8.4821e-09 0
6.4929e-09 -1.29993e-08 0
8.31387e-09 -1.64868e-08 0
8.33159e-09 -1.68571e-08 0
6.24302e-09 -1.34483e-08 0
2.82287e-09 -7.37299e-09 0
-1.05047e-09 -1.24028e-10 0
-4.68011e-09 6.57369e-09 0
-7.5117e-09 1.11422e-08 0
-9.19891e-09 1.29193e-08 0
-9.74456e-09 1.23673e-08 0
-9.50418e-09 1.05092e-08 0
-8.96688e-09 8.25288e-09 0
-8.48985e-09 6.11558e-09 0
-8.1919e-09 4.29712e-09 0
-8.02017e-09 2.83935e-09 0
-7.87284e-09 1.7269e-09 0
-7.67959e-09 9.23064e-10 0
-7.41971e-09 3.78446e-10 0
-7.10577e-09 3.5187e-11 0
-6.75955e-09 -1.67929e-10 0
-6.39213e-09 -2.88131e-10 0
-6.00253e-09 -3.78274e-10 0
-5.57599e-09 -4.93845e-10 0
-5.06114e-09 -6.78546e-10 0
-4.40446e-09 -9.6368e-10 0
-3.57091e-09 -1.40521e-09 0
-2.45404e-09 -2.04103e-09 0
-9.12917e-10 -2.79434e-09 0
1.07999e-09 -3.48836e-09 0
3.39054e-09 -3.95721e-09 0
5.80775e-09 -4.12642e-09 0
8.13304e-09 -4.01578e-09 0
1.02112e-08 -3.7085e-09 0
1.19478e-08 -3.31877e-09 0
1.334e-08 -2.94462e-09 0
1.44654e-08 -2.61059e-09 0
1.54119e-08 -2.24611e-09 0
1.61979e-08 -1.72674e-09 0
1.67355e-08 -9.80019e-10 0
1.70317e-08 -8.941e-11 0
0.00645994 -4.53375e-05 0
0 -1.26697e-06 0
1.87208e-13 -1.9273e-09 0
2.49848e-10 -5.45024e-09 0
1.23011e-09 -7.24576e-09 0
1.29315e-09 -5.85917e-09 0
-4.36075e-13 -2.13751e-09 0
-3.23031e-11 -3.18092e-11 0
3.0648e-11 -3.12335e-11 0
-1.06784e-09 -2.35283e-09 0
-4.1677e-09 -8.45851e-09 0
-5.55125e-09 -1.55512e-08 0
-4.57089e-09 -2.09449e-08 0
-4.58607e-09 -2.21137e-08 0
-6.25224e-09 -1.7833e-08 0
-8.97146e-09 -9.40432e-09 0
-1.20304e-08 8.78041e-10 0
-1.47377e-08 9.99376e-09 0
-1.63781e-08 1.54567e-08 0
-1.63444e-08 1.65891e-08 0
-1.44908e-08 1.44945e-08 0
-1.13035e-08 1.09444e-08 0
-7.62888e-09 7.33179e-09 0
-4.21225e-09 4.33672e-09 0
-1.43374e-09 2.11645e-09 0
6.64332e-10 5.93088e-10 0
2.21202e-09 -3.71976e-10 0
3.36897e-09 -9.16026e-10 0
4.26069e-09 -1.16261e-09 0
4.97083e-09 -1.2201e-09 0
5.55411e-09 -1.18275e-09 0
6.05752e-09 -1.12897e-09 0
6.52695e-09 -1.12106e-09 0
6.99848e-09 -1.2221e-09 0
7.5398e-09 -1.48864e-09 0
8.23443e-09 -1.95581e-09 0
9.12667e-09 -2.68735e-09 0
1.03569e-08 -3.72991e-09 0
1.21188e-08 -4.96786e-09 0
1.44358e-08 -6.13147e-09 0
1.71091e-08 -6.94947e-09 0
1.9851e-08 -7.27215e-09 0
2.2406e-08 -7.09572e-09 0
2.45875e-08 -6.53135e-09 0
2.62974e-08 -5.75742e-09 0
2.7566e-08 -4.9452e-09 0
2.85291e-08 -4.16992e-09 0
2.93259e-08 -3.38033e-09 0
3.00063e-08 -2.45705e-09 0
3.04893e-08 -1.33482e-09 0
3.08233e-08 -2.17866e-10 0
0.00668732 -6.15699e-05 0
0 -1.14852e-06 0
-8.69674e-13 -1.85961e-09 0
-1.0199e-09 -4.31034e-09 0
-1.25913e-09 -5.53999e-09 0
-1.90865e-09 -5.75757e-09 0
-1.34745e-09 -2.66867e-09 0
-3.14265e-11 3.09524e-11 0
-3.02623e-13 3.02623e-13 0
3.10234e-11 -3.02721e-11 0
-2.81841e-09 -3.99165e-09 0
-9.77449e-09 -1.39015e-08 0
-1.28415e-08 -2.23319e-08 0
-1.50385e-08 -2.36845e-08 0
-1.71147e-08 -1.84865e-08 0
-1.86671e-08 -8.75383e-09 0
-1.94834e-08 2.49402e-09 0
-1.95126e-08 1.17307e-08 0
-1.86288e-08 1.64469e-08 0
-1.64925e-08 1.63014e-08 0
-1.29083e-08 1.28508e-08 0
-8.22916e-09 8.22349e-09 0
-3.25949e-09 3.97446e-09 0
1.20376e-09 7.77296e-10 0
4.718e-09 -1.3057e-09 0
7.22792e-09 -2.47007e-09 0
8.90691e-09 -2.96252e-09 0
9.99017e-09 -3.0076e-09 0
1.06837e-08 -2.7921e-09 0
1.11392e-08 -2.46348e-09 0
1.14573e-08 -2.13442e-09 0
1.17085e-08 -1.89006e-09 0
1.19527e-08 -1.79024e-09 0
1.22229e-08 -1.89172e-09 0
1.25734e-08 -2.25707e-09 0
1.3103e-08 -2.92817e-09 0
1.3863e-08 -3.98468e-09 0
1.50608e-08 -5.48815e-09 0
1.69994e-08 -7.26875e-09 0
1.96906e-08 -8.93618e-09 0
2.28226e-08 -1.00963e-08 0
2.59779e-08 -1.05188e-08 0
2.88031e-08 -1.01849e-08 0
3.1074e-08 -9.25651e-09 0
3.27232e-08 -8.00191e-09 0
3.38693e-08 -6.68367e-09 0
3.47439e-08 -5.43754e-09 0
3.55332e-08 -4.23591e-09 0
3.62798e-08 -2.96881e-09 0
3.68774e-08 -1.56955e-09 0
3.73481e-08 -3.37187e-10 0
0.00666674 -7.22503e-05 0
0 -7.91015e-07 0
-4.1278e-13 -1.07871e-09 0
-9.93081e-10 -2.78357e-09 0
-1.02001e-09 -3.66471e-09 0
-2.3206e-09 -4.02422e-09 0
-3.06351e-09 -3.32472e-09 0
-1.38481e-09 -1.26021e-09 0
-3.08865e-11 3.1018e-11 0
7.26423e-15 -7.26422e-15 0
3.23041e-11 -2.97423e-11 0
-4.43598e-09 -7.48721e-09 0
-1.25731e-08 -1.8719e-08 0
-1.87286e-08 -2.12434e-08 0
-2.23496e-08 -1.57318e-08 0
-2.35931e-08 -5.95172e-09 0
-2.2527e-08 4.29294e-09 0
-1.9689e-08 1.1702e-08 0
-1.58914e-08 1.44962e-08 0
-1.16238e-08 1.29176e-08 0
-7.04886e-09 8.73337e-09 0
-2.41293e-09 3.99573e-09 0
1.80904e-09 6.4141e-11 0
5.14601e-09 -2.58008e-09 0
7.38464e-09 -4.0168e-09 0
8.60887e-09 -4.53638e-09 0
9.07636e-09 -4.44796e-09 0
9.07492e-09 -4.01427e-09 0
8.83899e-09 -3.43899e-09 0
8.52742e-09 -2.86889e-09 0
8.23023e-09 -2.40286e-09 0
7.99046e-09 -2.10861e-09 0
7.83856e-09 -2.03252e-09 0
7.7782e-09 -2.21935e-09 0
7.82485e-09 -2.73471e-09 0
8.07433e-09 -3.63335e-09 0
8.57759e-09 -5.02171e-09 0
9.6492e-09 -6.98269e-09 0
1.18088e-08 -9.26866e-09 0
1.50627e-08 -1.13396e-08 0
1.89348e-08 -1.26956e-08 0
2.28017e-08 -1.3071e-08 0
2.61438e-08 -1.24751e-08 0
2.86833e-08 -1.11489e-08 0
3.04267e-08 -9.45146e-09 0
3.16382e-08 -7.71735e-09 0
3.26608e-08 -6.11912e-09 0
3.36946e-08 -4.63774e-09 0
3.47242e-08 -3.16792e-09 0
3.55983e-08 -1.64949e-09 0
3.62583e-08 -4.15194e-10 0
0.00649117 -7.71936e-05 0
0 -5.53982e-07 0
3.36978e-13 -5.98621e-10 0
-3.74463e-10 -1.69027e-09 0
-4.36081e-10 -2.70528e-09 0
-1.43212e-09 -3.0415e-09 0
-3.39927e-09 -2.0426e-09 0
-3.97299e-09 -4.86851e-10 0
-2.51546e-09 1.27906e-10 0
-3.19758e-11 3.00596e-11 0
3.24858e-11 2.79934e-11 0
2.27545e-12 -4.21388e-09 0
-6.9896e-09 -1.23855e-08 0
-1.67079e-08 -1.49716e-08 0
-2.42034e-08 -9.21423e-09 0
-2.70488e-08 -3.37104e-10 0
-2.467e-08 7.06934e-09 0
-1.87e-08 1.07558e-08 0
-1.17594e-08 1.0442e-08 0
-5.79105e-09 7.25998e-09 0
-1.47011e-09 3.03503e-09 0
1.31462e-09 -6.71726e-10 0
2.84251e-09 -3.12767e-09 0
3.33715e-09 -4.33157e-09 0
3.01237e-09 -4.61768e-09 0
2.12393e-09 -4.35148e-09 0
9.43108e-10 -3.81354e-09 0
-2.99809e-10 -3.19227e-09 0
-1.45004e-09 -2.6076e-09 0
-2.42861e-09 -2.13383e-09 0
-3.2167e-09 -1.81507e-09 0
-3.8346e-09 -1.682e-09 0
-4.3064e-09 -1.7646e-09 0
-4.67033e-09 -2.10189e-09 0
-4.95728e-09 -2.7643e-09 0
-5.09038e-09 -3.82379e-09 0
-5.03197e-09 -5.40118e-09 0
-4.33867e-09 -7.56349e-09 0
-2.14781e-09 -9.94358e-09 0
1.51009e-09 -1.18809e-08 0
6.02644e-09 -1.2895e-08 0
1.05348e-08 -1.28322e-08 0
1.43374e-08 -1.18391e-08 0
1.71514e-08 -1.02525e-08 0
1.91221e-08 -8.45304e-09 0
2.06688e-08 -6.74423e-09 0
2.21795e-08 -5.25e-09 0
2.37778e-08 -3.91341e-09 0
2.53306e-08 -2.61731e-09 0
2.66238e-08 -1.32259e-09 0
2.74919e-08 -3.30903e-10 0
0.00613975 -7.86211e-05 0
0 -4.69389e-07 0
3.96586e-13 -3.04419e-10 0
9.9266e-11 -9.25919e-10 0
-1.14114e-10 -1.54785e-09 0
-1.58557e-09 -1.81428e-09 0
-4.26479e-09 -6.78619e-10 0
-5.99774e-09 1.14855e-09 0
-5.93746e-09 -2.91215e-10 0
-3.95894e-09 -1.23049e-09 0
-3.05149e-09 3.12815e-14 0
-1.6966e-09 -3.64056e-09 0
-6.53116e-09 -8.04656e-09 0
-1.72669e-08 -6.88129e-09 0
-2.6458e-08 -1.71067e-09 0
-2.85773e-08 4.03806e-09 0
-2.32146e-08 7.37184e-09 0
-1.41569e-08 7.42031e-09 0
-5.99002e-09 4.91446e-09 0
-1.27664e-09 1.38192e-09 0
-7.3361e-11 -1.64163e-09 0
-1.14059e-09 -3.34025e-09 0
-3.2156e-09 -3.76679e-09 0
-5.53191e-09 -3.42646e-09 0
-7.75575e-09 -2.81166e-09 0
-9.76948e-09 -2.20707e-09 0
-1.15305e-08 -1.71674e-09 0
-1.30233e-08 -1.35329e-09 0
-1.42536e-08 -1.10355e-09 0
-1.52486e-08 -9.57562e-10 0
-1.60546e-08 -9.14592e-10 0
-1.67314e-08 -9.84795e-10 0
-1.73354e-08 -1.19299e-09 0
-1.79321e-08 -1.57809e-09 0
-1.8586e-08 -2.20751e-09 0
-1.92608e-08 -3.16027e-09 0
-1.99485e-08 -4.50665e-09 0
-2.00838e-08 -6.17571e-09 0
-1.84338e-08 -7.67772e-09 0
-1.52899e-08 -8.49385e-09 0
-1.11788e-08 -8.45705e-09 0
-7.11941e-09 -7.67213e-09 0
-3.81069e-09 -6.46509e-09 0
-1.34389e-09 -5.16661e-09 0
6.32404e-10 -4.00049e-09 0
2.57807e-09 -3.07218e-09 0
4.73551e-09 -2.35662e-09 0
7.01996e-09 -1.73339e-09 0
9.15152e-09 -1.08646e-09 0
1.08638e-08 -4.18661e-10 0
1.1897e-08 3.65636e-11 0
0.0054246 -7.38071e-05 0
0 -4.83589e-07 0
6.36275e-13 -2.29857e-11 0
3.21323e-10 -1.25164e-10 0
-2.61941e-11 -2.68121e-10 0
-1.84328e-09 -3.29296e-10 0
-5.03626e-09 -2.36506e-10 0
-7.35169e-09 6.04208e-10 0
-7.36715e-09 5.08611e-10 0
-8.59417e-09 -5.15473e-10 0
-7.98703e-09 -1.02987e-09 0
-6.62314e-09 -1.61349e-09 0
-9.54455e-09 -9.02575e-10 0
-1.47097e-08 9.73796e-10 0
-1.85272e-08 2.43732e-09 0
-1.75876e-08 3.02802e-09 0
-1.21032e-08 2.59907e-09 0
-5.40465e-09 1.34078e-09 0
-9.47052e-10 -1.71475e-10 0
-6.50099e-11 -1.29972e-09 0
-1.96288e-09 -1.73858e-09 0
-5.06162e-09 -1.60152e-09 0
-8.14017e-09 -1.20019e-09 0
-1.06597e-08 -7.96778e-10 0
-1.25622e-08 -5.09105e-10 0
-1.39801e-08 -3.44414e-10 0
-1.50615e-08 -2.64837e-10 0
-1.59142e-08 -2.33947e-10 0
-1.66095e-08 -2.31674e-10 0
-1.71982e-08 -2.51248e-10 0
-1.77259e-08 -2.95954e-10 0
-1.82415e-08 -3.75364e-10 0
-1.87958e-08 -5.05733e-10 0
-1.94534e-08 -7.09228e-10 0
-2.02868e-08 -1.02226e-09 0
-2.1315e-08 -1.48773e-09 0
-2.25115e-08 -2.05676e-09 0
-2.32105e-08 -2.53447e-09 0
-2.22284e-08 -2.61646e-09 0
-2.03829e-08 -2.2551e-09 0
-1.80198e-08 -1.64755e-09 0
-1.60189e-08 -9.58901e-10 0
-1.47496e-08 -3.67957e-10 0
-1.39224e-08 2.80059e-11 0
-1.30132e-08 2.34174e-10 0
-1.16756e-08 3.03369e-10 0
-9.90125e-09 3.04691e-10 0
-7.93424e-09 3.05368e-10 0
-6.08412e-09 3.4551e-10 0
-4.59387e-09 3.97481e-10 0
-3.74101e-09 3.69233e-10 0
0.00382004 -4.76858e-05 0
0 0 0
5.13258e-13 0 0
1.9273e-10 0 0
6.89476e-12 0 0
-8.64297e-10 0 0
-2.45425e-09 0 0
-3.94238e-09 0 0
-3.9452e-09 0 0
-4.63621e-09 0 0
-4.93535e-09 0 0
-4.92427e-09 0 0
-5.089e-09 0 0
-4.9843e-09 0 0
-4.61608e-09 0 0
-3.53591e-09 0 0
-1.82318e-09 0 0
-2.88283e-10 0 0
2.71485e-10 0 0
-3.01895e-10 0 0
-1.5736e-09 0 0
-2.97189e-09 0 0
-4.13588e-09 0 0
-4.96944e-09 0 0
-5.52999e-09 0 0
-5.91321e-09 0 0
-6.19506e-09 0 0
-6.42177e-09 0 0
-6.61933e-09 0 0
-6.80351e-09 0 0
-6.98845e-09 0 0
-7.19083e-09 0 0
-7.43128e-09 0 0
-7.73828e-09 0 0
-8.14622e-09 0 0
-8.67843e-09 0 0
-9.30284e-09 0 0
-9.66421e-09 0 0
-9.28025e-09 0 0
-8.71093e-09 0 0
-8.09943e-09 0 0
-7.79981e-09 0 0
-7.86946e-09 0 0
-8.05702e-09 0 0
-8.07265e-09 0 0
-7.78597e-09 0 0
-7.24207e-09 0 0
-6.57411e-09 0 0
-5.91603e-09 0 0
-5.36938e-09 0 0
-5.06256e-09 0 0
0.0013506 0 0
0 0 5.41343e-07
9.89802e-14 0 2.56803e-10
-7.1647e-10 0 7.83996e-10
-5.79263e-10 0 1.72884e-09
-6.08126e-09 0 -5.09852e-10
2.43273e-09 0 -2.71504e-09
4.96039e-09 0 -1.75295e-09
5.7883e-09 0 -1.07778e-09
6.61728e-09 0 -1.96829e-10
7.68772e-09 0 7.62994e-10
9.1016e-09 0 1.77694e-09
1.11946e-08 0 2.60593e-09
1.37454e-08 0 2.7765e-09
1.583e-08 0 2.16946e-09
1.62739e-08 0 1.28035e-09
1.45591e-08 0 6.2218e-10
1.11866e-08 0 3.01815e-10
7.1739e-09 0 2.00525e-10
3.27043e-09 0 2.28783e-10
-3.31144e-10 0 3.46548e-10
-3.74659e-09 0 5.02637e-10
-7.06643e-09 0 6.31151e-10
-1.02279e-08 0 6.84891e-10
-1.30736e-08 0 6.54577e-10
-1.54596e-08 0 5.61692e-10
-1.73208e-08 0 4.39299e-10
-1.86769e-08 0 3.16056e-10
-1.96042e-08 0 2.09299e-10
-2.02005e-08 0 1.25455e-10
-2.056e-08 0 6.37533e-11
-2.07603e-08 0 1.98577e-11
-2.08582e-08 0 -1.18392e-11
-2.0886e-08 0 -3.55199e-11
-2.086e-08 0 -5.23104e-11
-2.07935e-08 0 -6.53095e-11
-2.06715e-08 0 -8.39033e-11
-2.04233e-08 0 -1.1501e-10
-1.99696e-08 0 -1.52365e-10
-1.92987e-08 0 -1.80678e-10
-1.84856e-08 0 -1.88559e-10
-1.76473e-08 0 -1.74655e-10
-1.68875e-08 0 -1.44751e-10
-1.62668e-08 0 -1.08065e-10
-1.57898e-08 0 -7.57542e-11
-1.54064e-08 0 -5.78513e-11
-1.50371e-08 0 -5.78879e-11
-1.46231e-08 0 -6.90922e-11
-1.4175e-08 0 -7.88688e-11
-1.37881e-08 0 -8.82546e-11
-1.35901e-08 0 -1.32279e-10
0.0039638 0 1.0877e-05
0.0036 -3.09547e-07 -6.26776e-08
0.00359979 -0.00138958 -2.15339e-05
0.00669963 -0.0039379 0.000114109
0.0136118 -0.00587776 -0.000491013
0.0235038 -0.0144915 -0.00426607
0.0464067 -0.0134639 -0.00488909
0.0499455 -0.00194985 -0.00164677
0.0496892 0.00262255 -0.000164203
0.0447118 0.00494506 0.000572856
0.0391168 0.00510624 0.000569435
0.0340282 0.00443243 0.000312963
0.0297623 0.00354556 4.82798e-05
0.0263821 0.00267828 -0.000143771
0.0238118 0.00193103 -0.000246852
0.0218943 0.00134683 -0.000272126
0.0204583 0.000925098 -0.00024274
0.0193654 0.000638092 -0.000184517
0.0185213 0.0004497 -0.00011969
0.0178672 0.000326421 -6.35028e-05
0.0173654 0.0002426 -2.31125e-05
0.0169882 0.000181757 1.05694e-06
0.0167118 0.00013507 1.24263e-05
0.0165151 9.85895e-05 1.54999e-05
0.0163787 7.06817e-05 1.41804e-05
0.0162858 5.04325e-05 1.11574e-05
0.0162225 3.69687e-05 7.95922e-06
0.0161772 2.93544e-05 5.27386e-06
0.0161407 2.67182e-05 3.2938e-06
0.0161059 2.84026e-05 1.97925e-06
0.0160664 3.4054e-05 1.22127e-06
0.0160168 4.36409e-05 9.25581e-07
0.0159512 5.74275e-05 1.05613e-06
0.0158634 7.58843e-05 1.65095e-06
0.0157462 9.94517e-05 2.79328e-06
0.015592 0.000128241 4.60346e-06
0.0153925 0.000161587 7.21481e-06
0.0151414 0.000197139 1.05336e-05
0.0148368 0.000230252 1.39972e-05
0.0144848 0.000254948 1.67434e-05
0.0140997 0.00026612 1.80816e-05
0.0137019 0.000261458 1.78309e-05
0.0133131 0.000241931 1.62866e-05
0.0129525 0.000210935 1.3947e-05
0.0126344 0.00017291 1.12792e-05
0.0123678 0.00013216 8.63274e-06
0.0121564 9.21129e-05 6.23743e-06
0.0120002 5.50002e-05 4.18973e-06
0.0118959 2.19298e-05 2.34531e-06
0.0118378 -3.82013e-06 2.7231e-06
0.0118199 -9.42493e-06 1.59415e-05
0.0118199 -4.72753e-06 2.78725e-05
0.01 -1.37892e-07 -1.47111e-06
0.0100008 -0.00298444 -0.000598233
0.014787 -0.00996991 -0.000793328
0.024196 -0.0177693 -0.00122875
0.0386375 -0.0326546 -0.00333383
0.0593591 -0.0249701 -0.000811781
0.0565791 -0.00277752 0.00319132
0.0560133 0.00505449 0.0033906
0.0502415 0.010014 0.00300525
0.0447929 0.0101407 0.00213046
0.0403176 0.0090342 0.00121006
0.0366355 0.00759721 0.000484037
0.0336892 0.0061329 -2.76441e-05
0.0314265 0.00481406 -0.000335373
0.0296934 0.0037227 -0.000460107
0.0283393 0.0028578 -0.000449884
0.027262 0.00217922 -0.00036269
0.0264044 0.00164555 -0.000249364
0.0257347 0.00122594 -0.000144763
0.0252281 0.000898687 -6.59349e-05
0.0248588 0.000647066 -1.58324e-05
0.0245998 0.00045706 1.05325e-05
0.0244246 0.000316771 2.07136e-05
0.0243102 0.00021629 2.1617e-05
0.0242371 0.000147446 1.82366e-05
0.0241898 0.00010353 1.3589e-05
0.0241561 7.916e-05 9.17719e-06
0.0241264 7.02647e-05 5.55469e-06
0.0240932 7.40832e-05 2.78496e-06
0.02405 8.91275e-05 7.43958e-07
0.0239904 0.000115054 -7.16903e-07
0.0239076 0.000152473 -1.68236e-06
0.0237934 0.000202711 -2.10638e-06
0.0236384 0.000267273 -1.83062e-06
0.023431 0.000346988 -5.82253e-07
0.0231587 0.000440793 1.9958e-06
0.0228099 0.000543351 5.7515e-06
0.0223788 0.000643242 9.42226e-06
0.0218714 0.000725012 1.11408e-05
0.0213066 0.000774477 9.64775e-06
0.0207124 0.000783611 5.06079e-06
0.0201194 0.000752256 -1.33761e-06
0.0195553 0.000686594 -7.93208e-06
0.019042 0.000596205 -1.34593e-05
0.0185949 0.000491359 -1.72249e-05
0.0182228 0.00038114 -1.90472e-05
0.0179295 0.000272718 -1.90544e-05
0.0177145 0.000171255 -1.79032e-05
0.0175733 8.02669e-05 -1.41924e-05
0.0175061 1.38315e-05 1.23908e-05
0.017506 -1.00923e-05 3.59907e-05
0.0148 -9.68807e-07 -1.76784e-06
0.0148024 -0.00530099 -0.00112437
0.0204091 -0.0164621 -0.00244963
0.0276211 -0.0289378 -0.00394368
0.0322992 -0.0463797 -0.00578003
0.0307484 -0.028623 -0.00142332
0.0269346 -1.25034e-05 0.00331031
0.0263699 0.00704548 0.00352631
0.0298528 0.0143478 0.00343611
0.0302028 0.0137186 0.00248202
0.029423 0.0118955 0.00153927
0.0286106 0.0100265 0.000720816
0.028005 0.00815974 0.000126959
0.0277055 0.00645965 -0.000233339
0.0275845 0.00505672 -0.000381022
0.0275357 0.00392768 -0.000380695
0.0275125 0.00300967 -0.000301814
0.0275049 0.00225838 -0.000198057
0.0275147 0.0016517 -0.000102727
0.0275424 0.00117603 -3.12135e-05
0.0275837 0.000815905 1.36274e-05
0.0276326 0.000552294 3.58596e-05
0.0276833 0.000365555 4.21597e-05
0.0277311 0.000238265 3.91084e-05
0.0277723 0.000156322 3.18262e-05
0.0278041 0.000108845 2.36022e-05
0.027824 8.77452e-05 1.61418e-05
0.0278301 8.73893e-05 1.00665e-05
0.0278202 0.00010436 5.40047e-06
0.0277917 0.000137267 1.93587e-06
0.0277407 0.00018653 -5.48181e-07
0.0276618 0.000254057 -2.17221e-06
0.0275473 0.000342922 -2.82392e-06
0.0273868 0.000456625 -2.12795e-06
0.0271663 0.000597808 6.03764e-07
0.026869 0.000766295 6.36177e-06
0.0264763 0.00095429 1.49672e-05
0.0259765 0.00114207 2.34832e-05
0.025375 0.00130157 2.75489e-05
0.0246962 0.00140658 2.43255e-05
0.0239771 0.00144168 1.41833e-05
0.0232568 0.00140524 1.20237e-07
0.0225693 0.00130658 -1.42294e-05
0.0219401 0.00116079 -2.61541e-05
0.0213868 0.000984372 -3.4266e-05
0.0209204 0.00079234 -3.82932e-05
0.0205464 0.000596524 -3.85747e-05
0.0202671 0.000405375 -3.59689e-05
0.0200802 0.000223931 -3.06797e-05
0.0199878 6.1477e-05 4.23889e-06
0.0199877 -1.30754e-05 3.57372e-05
0.018 -1.95431e-06 -1.71254e-06
0.018003 -0.00701953 -0.00187331
0.0208002 -0.0190725 -0.00492713
0.0207662 -0.0251171 -0.00635203
0.0161156 -0.0271303 -0.00764054
-1.62557e-06 -0.0140759 -0.00434334
9.439e-05 2.25568e-05 9.38452e-07
-2.96971e-05 3.10542e-05 0.000655764
0.00655165 0.00403802 0.00144749
0.0133486 0.0091238 0.00142311
0.0167355 0.00985331 0.0010211
0.0185277 0.00883858 0.000494986
0.020243 0.00730204 1.70943e-05
0.0219444 0.00575299 -0.000255315
0.0234629 0.0044823 -0.000337603
0.0247346 0.00345597 -0.000305556
0.0257721 0.00260226 -0.000224628
0.0266134 0.00188868 -0.000135887
0.0272946 0.00131082 -5.98734e-05
0.0278418 0.000867109 -4.08329e-06
0.0282746 0.000545629 3.08774e-05
0.0286101 0.000325187 4.78392e-05
0.0288645 0.000182237 5.13535e-05
0.0290533 9.62049e-05 4.64569e-05
0.0291897 5.13418e-05 3.75831e-05
0.0292844 3.64198e-05 2.78915e-05
0.0293455 4.38891e-05 1.91651e-05
0.0293789 6.92136e-05 1.21165e-05
0.0293881 0.000110451 6.81571e-06
0.0293745 0.000167982 3.0752e-06
0.0293372 0.000244311 7.32205e-07
0.0292724 0.000343758 -2.07232e-07
0.0291732 0.000472158 6.41455e-07
0.0290282 0.000636169 4.17585e-06
0.0288207 0.000841846 1.20776e-05
0.0285277 0.00109245 2.71962e-05
0.0281191 0.00137974 5.00506e-05
0.0275713 0.00167389 7.41507e-05
0.0268888 0.00192937 8.90858e-05
0.0261059 0.00210364 8.78745e-05
0.0252748 0.00217236 7.08993e-05
0.0244477 0.00213325 4.44888e-05
0.0236657 0.00200035 1.62439e-05
0.0229567 0.00179554 -8.33331e-06
0.022338 0.0015421 -2.65399e-05
0.0218195 0.00126086 -3.78967e-05
0.0214063 0.000968169 -4.32447e-05
0.0211003 0.00067539 -4.40429e-05
0.0208989 0.000390299 -4.15088e-05
0.020803 0.000119373 -5.79817e-06
0.0208028 -1.17425e-05 2.79067e-05
0.0196 -2.84369e-06 -2.58235e-06
0.019601 -0.00593584 -0.00274375
0.0190519 -0.0132496 -0.00648774
0.0159237 -0.0163042 -0.00670083
0.0108494 -0.0152947 -0.00669719
0.001699 -0.00630704 -0.00504863
6.92818e-05 -6.33026e-05 -0.0013058
3.36055e-05 -3.36055e-05 -4.2764e-08
-2.9087e-05 3.03072e-05 0.000264853
0.00385914 0.00268368 0.00056826
0.0087909 0.0062297 0.000502258
0.0116833 0.00643237 0.000153951
0.0149229 0.00499734 -0.000230696
0.0180689 0.00367347 -0.000403072
0.0207621 0.00272851 -0.000405812
0.0229416 0.00201272 -0.000327521
0.0246705 0.00141598 -0.000228903
0.0260333 0.000910103 -0.000140017
0.0270995 0.000506359 -7.03116e-05
0.027921 0.000214943 -1.99384e-05
0.0285391 2.85268e-05 1.3169e-05
0.0289915 -7.39986e-05 3.13463e-05
0.0293132 -0.000117109 3.76006e-05
0.0295357 -0.00012133 3.57136e-05
0.029685 -0.000101014 2.95103e-05
0.0297814 -6.50209e-05 2.20146e-05
0.0298398 -1.80566e-05 1.50896e-05
0.0298708 3.83204e-05 9.58856e-06
0.0298807 0.000105107 5.73257e-06
0.0298731 0.000185531 3.49579e-06
0.0298483 0.000284939 2.95948e-06
0.0298034 0.000410662 4.51706e-06
0.0297315 0.000571935 9.19684e-06
0.0296201 0.000779525 1.89882e-05
0.0294483 0.00104453 3.767e-05
0.0291845 0.00137727 7.29358e-05
0.0287799 0.00177296 0.000129021
0.0281885 0.00218932 0.000192744
0.0274133 0.00255559 0.000239327
0.0265071 0.00280733 0.000251362
0.0255487 0.00291068 0.000228446
0.02461 0.00286541 0.000183396
0.0237407 0.00269342 0.000131392
0.0229689 0.00242531 8.31203e-05
0.0223085 0.00209173 4.37164e-05
0.0217651 0.00171929 1.40758e-05
0.02134 0.00132853 -7.39373e-06
0.0210326 0.000933959 -2.31921e-05
0.0208375 0.000546723 -3.45217e-05
0.0207515 0.000174275 -1.12456e-05
0.0207513 -7.70775e-06 1.65503e-05
0.0196 -1.37144e-06 -3.609e-06
0.0195999 -0.00370326 -0.00312854
0.0187496 -0.00814087 -0.00652932
0.0174923 -0.00819135 -0.0060592
0.0131509 -0.00437252 -0.0055454
0.00904926 0.00250902 -0.00534062
0.00613435 0.00312917 -0.00313068
6.94635e-05 -5.71417e-05 -0.000680808
2.80547e-05 -2.80547e-05 -1.28485e-07
-2.8544e-05 2.963e-05 9.78903e-05
0.00263526 0.00182332 0.000372078
0.00684742 0.00277442 0.000273837
0.0120651 0.00124916 -0.000166663
0.0166715 0.000356997 -0.000373517
0.0202595 4.12103e-05 -0.000388547
0.0229452 -9.57636e-05 -0.00031547
0.0249423 -0.000227273 -0.000224425
0.0264243 -0.000367635 -0.000147057
0.0275106 -0.000478008 -8.95012e-05
0.0282853 -0.000529174 -4.81937e-05
0.0288158 -0.00051922 -1.9335e-05
0.0291615 -0.000464768 -8.98219e-07
0.0293747 -0.000386455 8.74902e-06
0.029498 -0.000300068 1.18641e-05
0.0295641 -0.000214467 1.10792e-05
0.0295956 -0.000132929 8.6832e-06
0.0296077 -5.50007e-05 6.20672e-06
0.0296094 2.22183e-05 4.46978e-06
0.0296061 0.000103446 3.86625e-06
0.0295998 0.000194994 4.67963e-06
0.0295901 0.0003049 7.46327e-06
0.029574 0.000443193 1.33456e-05
0.0295443 0.000622277 2.45604e-05
0.0294876 0.000857244 4.51662e-05
0.0293783 0.00116513 8.29177e-05
0.0291743 0.0015665 0.000156214
0.0288002 0.00206546 0.000280952
0.0281705 0.0026051 0.00043203
0.027285 0.00308005 0.000551737
0.0262297 0.00339998 0.000599321
0.0251263 0.00352451 0.000573471
0.0240736 0.00346089 0.00050006
0.0231281 0.0032431 0.000408105
0.0223138 0.00291186 0.00031713
0.0216365 0.00250492 0.000236299
0.0210936 0.00205357 0.000167359
0.0206799 0.00158153 0.000107978
0.0203901 0.00110582 5.47e-05
0.0202159 0.000641328 7.78271e-06
0.0201483 0.00020204 -3.19943e-06
0.0201481 -9.74177e-06 7.20182e-06
0.018 -8.71506e-07 -3.60422e-06
0.0180009 -0.00201869 -0.00305184
0.0183107 -0.00391036 -0.00616801
0.0183582 -0.00272739 -0.00529125
0.017332 0.000557269 -0.0041902
0.0170442 0.00701763 -0.00396577
0.0177762 0.0125507 -0.00301958
0.0109111 0.00692518 -0.00151496
7.09376e-05 -4.33457e-05 -0.0004422
-2.15331e-05 -5.11366e-05 5.6211e-07
7.98456e-06 -0.000765756 0.000756139
0.00819588 -0.00301615 0.00109947
0.0154074 -0.00458361 0.000449182
0.0203125 -0.00415652 0.000109901
0.0234436 -0.00317006 -2.68727e-05
0.0254456 -0.00234171 -7.15125e-05
0.0267442 -0.00180064 -8.1396e-05
0.0275792 -0.00146039 -8.07602e-05
0.0280883 -0.00121417 -7.5624e-05
0.0283632 -0.000999173 -6.58764e-05
0.0284763 -0.00079673 -5.22985e-05
0.0284878 -0.000610841 -3.76596e-05
0.0284446 -0.000449185 -2.48119e-05
0.0283799 -0.000314687 -1.51673e-05
0.0283143 -0.000204976 -8.63869e-06
0.0282586 -0.000114572 -4.35979e-06
0.0282177 -3.67989e-05 -1.33542e-06
0.0281927 3.53247e-05 1.29288e-06
0.0281833 0.000108994 4.27959e-06
0.0281884 0.000191957 8.45098e-06
0.0282065 0.000293125 1.50843e-05
0.0282349 0.000423407 2.63957e-05
0.0282678 0.000596652 4.64555e-05
0.0282927 0.000830941 8.2746e-05
0.0282816 0.00114827 0.000149792
0.0281826 0.00157789 0.000284968
0.0278913 0.00213421 0.000528119
0.0272596 0.00274682 0.000831262
0.0262808 0.00327655 0.00107278
0.0250903 0.00361369 0.00117297
0.0238712 0.00372034 0.00113558
0.0227482 0.0036187 0.00101326
0.0217758 0.00335725 0.000857749
0.0209653 0.00298482 0.00070055
0.0203086 0.0025424 0.000555009
0.0197923 0.00206203 0.000423074
0.0194044 0.00156698 0.000301308
0.0191365 0.00107417 0.000185665
0.0189794 0.000600504 7.95859e-05
0.0189233 0.000170103 1.37739e-05
0.0189231 -3.0629e-05 -2.66666e-06
0.0148 -4.88259e-07 -3.19304e-06
0.0148015 -0.00104267 -0.00283284
0.0162278 -0.00166874 -0.00543289
0.0177812 -7.19532e-05 -0.00429321
0.0190845 0.00312055 -0.00305919
0.0208006 0.00731188 -0.00283387
0.0246077 0.0129713 -0.00240966
0.0278995 0.0194991 -0.00152784
0.0229501 0.0112738 -0.000355368
0.0234105 4.82627e-11 0.000619677
0.0265622 -0.00674169 0.00156204
0.0299295 -0.0131721 0.00212189
0.0306501 -0.0110835 0.00164579
0.0299959 -0.00770427 0.00113159
0.0289879 -0.00501591 0.000665169
0.0280531 -0.00326703 0.000311812
0.0272879 -0.00220473 8.70574e-05
0.0266711 -0.00154705 -3.37855e-05
0.0261645 -0.00110641 -8.461e-05
0.0257434 -0.000786531 -9.33945e-05
0.0253958 -0.000546736 -8.05789e-05
0.0251158 -0.000369274 -6.01573e-05
0.0248979 -0.000241434 -4.03406e-05
0.0247352 -0.000150522 -2.46322e-05
0.0246197 -8.45719e-05 -1.35053e-05
0.0245438 -3.36315e-05 -6.01307e-06
0.024501 1.00306e-05 -8.25183e-07
0.0244864 5.25367e-05 3.32763e-06
0.0244972 9.93141e-05 7.62682e-06
0.0245323 0.000156005 1.33812e-05
0.024592 0.00022935 2.24984e-05
0.0246772 0.00032823 3.82545e-05
0.0247866 0.000464856 6.67273e-05
0.0249131 0.000656688 0.000119707
0.0250328 0.000925839 0.000221093
0.0250935 0.00129682 0.000430275
0.0249676 0.00177952 0.00080992
0.0244259 0.00230393 0.00126711
0.0234651 0.00274273 0.00160742
0.0222585 0.00299518 0.00172175
0.0210617 0.00303227 0.00163159
0.0200038 0.00289456 0.00143517
0.0191168 0.00263699 0.00120972
0.0183899 0.00230464 0.000992651
0.0178005 0.00193054 0.000794436
0.0173291 0.00153796 0.000612395
0.016964 0.00114262 0.000439913
0.0167005 0.000756165 0.000272473
0.0165359 0.000391594 0.000117431
0.0164685 7.51989e-05 7.4013e-06
0.0164684 -6.62926e-05 -3.03259e-05
0.01 -9.35037e-07 -2.89373e-06
0.0100008 -0.000638687 -0.00230712
0.0113171 -0.000724771 -0.00414729
0.0131664 0.000532599 -0.0029055
0.0155759 0.0024967 -0.00179674
0.0194449 0.00554306 -0.00180154
0.0253469 0.00835864 -0.00235724
0.0344676 0.0101197 -0.00209418
0.046075 0.00481294 -0.00051692
0.0458325 -0.00403307 0.000977248
0.0453398 -0.00823685 0.00161654
0.0380009 -0.00840687 0.00180233
0.0310034 -0.00574412 0.00155961
0.0258887 -0.00330069 0.00113096
0.0225244 -0.001712 0.000685537
0.0203971 -0.000840287 0.000333568
0.0190489 -0.000411162 0.0001108
0.018171 -0.000211854 -3.72267e-06
0.0175808 -0.000118617 -4.79757e-05
0.0171756 -7.15941e-05 -5.41275e-05