# vtk DataFile Version 2.0
Tobias Weinzierl: CPU, Manycore and Cluster Computing
ASCII

DATASET STRUCTURED_POINTS
DIMENSIONS  51 11 6

ORIGIN 0 0 0 

SPACING 0.1 0.1 0.1 

POINT_DATA 3366

VECTORS velocity float
0 0 0
1.93774e-11 0 0
-5.73353e-08 0 0
-1.79156e-07 0 0
-2.7632e-07 0 0
-1.02852e-07 0 0
-3.3226e-08 0 0
3.63088e-09 0 0
7.06591e-09 0 0
-3.34176e-08 0 0
-8.69285e-08 0 0
-1.23448e-07 0 0
-1.3619e-07 0 0
-1.34233e-07 0 0
-1.28371e-07 0 0
-1.24438e-07 0 0
-1.23463e-07 0 0
-1.2438e-07 0 0
-1.25981e-07 0 0
-1.27535e-07 0 0
-1.28751e-07 0 0
-1.29587e-07 0 0
-1.30104e-07 0 0
-1.30387e-07 0 0
-1.30507e-07 0 0
-1.30515e-07 0 0
-1.30438e-07 0 0
-1.30281e-07 0 0
-1.30032e-07 0 0
-1.29654e-07 0 0
-1.29086e-07 0 0
-1.28232e-07 0 0
-1.26952e-07 0 0
-1.25082e-07 0 0
-1.22481e-07 0 0
-1.19077e-07 0 0
-1.14859e-07 0 0
-1.09829e-07 0 0
-1.03992e-07 0 0
-9.73849e-08 0 0
-9.01091e-08 0 0
-8.23509e-08 0 0
-7.43771e-08 0 0
-6.651e-08 0 0
-5.90835e-08 0 0
-5.2396e-08 0 0
-4.66808e-08 0 0
-4.21019e-08 0 0
-3.87926e-08 0 0
-3.70153e-08 0 0
0.0016221 0 0
0 4.41709e-07 0
7.09257e-11 1.98126e-08 0
-9.63219e-08 5.42479e-08 0
-3.25859e-07 7.03886e-08 0
-4.68814e-07 4.81554e-08 0
-1.89674e-07 6.66654e-08 0
-1.07984e-07 1.12013e-07 0
-6.47622e-08 9.36169e-08 0
-2.87798e-08 7.43206e-08 0
-6.23005e-08 7.72739e-08 0
-1.38217e-07 6.8371e-08 0
-2.01136e-07 4.40028e-08 0
-2.28679e-07 1.80522e-08 0
-2.3213e-07 1.98665e-09 0
-2.30473e-07 -2.96141e-09 0
-2.33239e-07 -1.86661e-09 0
-2.4049e-07 3.85818e-10 0
-2.49223e-07 1.74061e-09 0
-2.57115e-07 2.06314e-09 0
-2.63208e-07 1.79502e-09 0
-2.67443e-07 1.326e-09 0
-2.70154e-07 8.69179e-10 0
-2.71749e-07 5.05019e-10 0
-2.7258e-07 2.42604e-10 0
-2.72901e-07 6.05553e-11 0
-2.7287e-07 -7.19056e-11 0
-2.7257e-07 -1.86679e-10 0
-2.72014e-07 -3.15606e-10 0
-2.71164e-07 -4.93162e-10 0
-2.69924e-07 -7.61622e-10 0
-2.68138e-07 -1.17767e-09 0
-2.65573e-07 -1.81447e-09 0
-2.61899e-07 -2.74289e-09 0
-2.56707e-07 -3.98408e-09 0
-2.49639e-07 -5.4773e-09 0
-2.40534e-07 -7.11971e-09 0
-2.29417e-07 -8.83468e-09 0
-2.16374e-07 -1.05754e-08 0
-2.015e-07 -1.22748e-08 0
-1.84961e-07 -1.3814e-08 0
-1.67066e-07 -1.50342e-08 0
-1.48295e-07 -1.57739e-08 0
-1.29282e-07 -1.59091e-08 0
-1.10756e-07 -1.53873e-08 0
-9.34597e-08 -1.42413e-08 0
-7.80425e-08 -1.25724e-08 0
-6.49998e-08 -1.05082e-08 0
-5.46673e-08 -8.14404e-09 0
-4.72664e-08 -5.44613e-09 0
-4.31922e-08 -2.46053e-09 0
0.00429518 -8.1352e-06 0
0 5.16408e-09 0
1.17022e-10 2.19496e-08 0
-2.55106e-08 8.98923e-09 0
-1.97292e-07 -9.18359e-08 0
-2.35429e-07 -1.42087e-07 0
-3.55142e-08 4.29867e-09 0
-1.09701e-07 1.59029e-07 0
-1.37678e-07 1.21506e-07 0
-1.04722e-07 3.71242e-08 0
-8.84327e-08 8.21738e-09 0
-1.29272e-07 7.5087e-09 0
-1.74148e-07 2.5341e-08 0
-1.95541e-07 4.55265e-08 0
-1.95657e-07 5.29416e-08 0
-1.91827e-07 4.86099e-08 0
-1.94489e-07 3.96465e-08 0
-2.03204e-07 3.02009e-08 0
-2.13806e-07 2.18137e-08 0
-2.23202e-07 1.50047e-08 0
-2.30222e-07 9.84338e-09 0
-2.34899e-07 6.14607e-09 0
-2.37735e-07 3.61711e-09 0
-2.39281e-07 1.9473e-09 0
-2.39978e-07 8.64726e-10 0
-2.40124e-07 1.50916e-10 0
-2.3989e-07 -3.62367e-10 0
-2.39354e-07 -8.05294e-10 0
-2.38517e-07 -1.28511e-09 0
-2.37321e-07 -1.90131e-09 0
-2.35654e-07 -2.75968e-09 0
-2.33343e-07 -3.98598e-09 0
-2.30149e-07 -5.73582e-09 0
-2.25715e-07 -8.17e-09 0
-2.19535e-07 -1.13493e-08 0
-2.11083e-07 -1.51159e-08 0
-2.00119e-07 -1.91499e-08 0
-1.86758e-07 -2.31668e-08 0
-1.71207e-07 -2.69856e-08 0
-1.53648e-07 -3.04347e-08 0
-1.3433e-07 -3.32806e-08 0
-1.13671e-07 -3.52516e-08 0
-9.22687e-08 -3.61047e-08 0
-7.08503e-08 -3.56817e-08 0
-5.02165e-08 -3.3942e-08 0
-3.1169e-08 -3.09816e-08 0
-1.43928e-08 -2.70118e-08 0
-3.69942e-10 -2.22812e-08 0
1.06224e-08 -1.69894e-08 0
1.84813e-08 -1.12495e-08 0
2.30067e-08 -5.34916e-09 0
0.00559227 -1.89539e-05 0
0 -6.26549e-07 0
1.25407e-10 -9.04404e-09 0
3.68284e-08 -8.6184e-08 0
-1.03574e-07 -2.46215e-07 0
-1.519e-07 -3.19515e-07 0
5.1308e-08 -1.50537e-07 0
-3.49639e-08 -1.32818e-10 0
-6.92849e-08 -4.18584e-08 0
-1.50624e-07 -1.17436e-07 0
-1.65414e-07 -1.38501e-07 0
-1.99413e-07 -9.16674e-08 0
-2.35908e-07 -1.3674e-08 0
-2.46958e-07 5.34073e-08 0
-2.30361e-07 7.83605e-08 0
-2.03334e-07 7.3612e-08 0
-1.82664e-07 5.92309e-08 0
-1.72842e-07 4.42118e-08 0
-1.70533e-07 3.11258e-08 0
-1.71409e-07 2.07027e-08 0
-1.72869e-07 1.30005e-08 0
-1.73924e-07 7.66403e-09 0
-1.74421e-07 4.15449e-09 0
-1.74486e-07 1.93138e-09 0
-1.74278e-07 5.41569e-10 0
-1.73904e-07 -3.6054e-10 0
-1.73414e-07 -1.02771e-09 0
-1.72809e-07 -1.64671e-09 0
-1.72053e-07 -2.36621e-09 0
-1.71081e-07 -3.32121e-09 0
-1.69797e-07 -4.65268e-09 0
-1.68071e-07 -6.52511e-09 0
-1.65731e-07 -9.15242e-09 0
-1.62503e-07 -1.28048e-08 0
-1.5783e-07 -1.76671e-08 0
-1.50895e-07 -2.35443e-08 0
-1.41175e-07 -2.98337e-08 0
-1.28795e-07 -3.59296e-08 0
-1.14053e-07 -4.14792e-08 0
-9.71266e-08 -4.62378e-08 0
-7.82559e-08 -4.99093e-08 0
-5.792e-08 -5.21669e-08 0
-3.68202e-08 -5.27553e-08 0
-1.57553e-08 -5.15527e-08 0
4.4518e-09 -4.8569e-08 0
2.29776e-08 -4.39597e-08 0
3.91429e-08 -3.80314e-08 0
5.25395e-08 -3.11533e-08 0
6.30113e-08 -2.36298e-08 0
7.05787e-08 -1.56581e-08 0
7.51229e-08 -7.79551e-09 0
0.00584402 -2.91436e-05 0
0 -1.20274e-06 0
4.97339e-11 -5.25587e-08 0
1.37508e-08 -1.54462e-07 0
-1.35948e-07 -2.18895e-07 0
-2.43999e-07 -1.80465e-07 0
-7.04973e-11 -6.35695e-08 0
-6.20975e-10 -7.28528e-10 0
6.17319e-10 -6.90371e-10 0
-8.17485e-08 -8.74163e-08 0
-2.1635e-07 -1.7465e-07 0
-2.53164e-07 -1.23999e-07 0
-2.78225e-07 -2.13964e-08 0
-2.92765e-07 5.27274e-08 0
-2.80204e-07 7.18737e-08 0
-2.45671e-07 6.0643e-08 0
-2.08799e-07 4.53693e-08 0
-1.82353e-07 3.27837e-08 0
-1.67079e-07 2.25041e-08 0
-1.58942e-07 1.4261e-08 0
-1.54438e-07 8.1614e-09 0
-1.51669e-07 4.04931e-09 0
-1.49797e-07 1.49432e-09 0
-1.48465e-07 -5.65004e-13 0
-1.47496e-07 -8.62289e-10 0
-1.46774e-07 -1.40943e-09 0
-1.46213e-07 -1.86684e-09 0
-1.45738e-07 -2.39725e-09 0
-1.45283e-07 -3.13323e-09 0
-1.44788e-07 -4.20467e-09 0
-1.44183e-07 -5.75993e-09 0
-1.43379e-07 -7.98047e-09 0
-1.42276e-07 -1.11145e-08 0
-1.40738e-07 -1.55563e-08 0
-1.38259e-07 -2.17607e-08 0
-1.3357e-07 -2.96904e-08 0
-1.25429e-07 -3.8429e-08 0
-1.13807e-07 -4.68181e-08 0
-9.91931e-08 -5.4184e-08 0
-8.17905e-08 -6.01989e-08 0
-6.18855e-08 -6.45337e-08 0
-4.01162e-08 -6.68341e-08 0
-1.746e-08 -6.68847e-08 0
5.0641e-09 -6.46974e-08 0
2.65287e-08 -6.04073e-08 0
4.60155e-08 -5.42433e-08 0
6.28038e-08 -4.66047e-08 0
7.65594e-08 -3.79683e-08 0
8.72578e-08 -2.87109e-08 0
9.50256e-08 -1.90577e-08 0
9.97588e-08 -9.74297e-09 0
0.00578634 -3.71514e-05 0
0 -1.07327e-06 0
-6.95874e-13 -5.85252e-08 0
-1.98747e-08 -1.31248e-07 0
-1.62863e-07 -1.77314e-07 0
-3.00544e-07 -2.00133e-07 0
-1.2634e-07 -9.55592e-08 0
-6.09544e-10 5.90591e-10 0
2.67276e-11 -2.67276e-11 0
5.6781e-10 -6.66831e-10 0
-1.10485e-07 -8.13024e-08 0
-2.21273e-07 -1.23706e-07 0
-2.33422e-07 -1.67328e-08 0
-2.7509e-07 7.3194e-08 0
-3.03935e-07 8.15267e-08 0
-2.87346e-07 5.19938e-08 0
-2.4347e-07 2.68597e-08 0
-2.02835e-07 1.31968e-08 0
-1.76184e-07 5.76627e-09 0
-1.60936e-07 1.26032e-09 0
-1.52391e-07 -1.35661e-09 0
-1.47451e-07 -2.59571e-09 0
-1.44501e-07 -2.95941e-09 0
-1.42716e-07 -2.88627e-09 0
-1.41643e-07 -2.68456e-09 0
-1.41012e-07 -2.5428e-09 0
-1.40661e-07 -2.5729e-09 0
-1.40488e-07 -2.85242e-09 0
-1.40431e-07 -3.45668e-09 0
-1.40457e-07 -4.48335e-09 0
-1.40538e-07 -6.07274e-09 0
-1.40639e-07 -8.4157e-09 0
-1.40717e-07 -1.17646e-08 0
-1.40829e-07 -1.65737e-08 0
-1.40792e-07 -2.36476e-08 0
-1.38996e-07 -3.34467e-08 0
-1.32843e-07 -4.48932e-08 0
-1.21654e-07 -5.5961e-08 0
-1.06345e-07 -6.53388e-08 0
-8.73078e-08 -7.25825e-08 0
-6.50493e-08 -7.74318e-08 0
-4.03039e-08 -7.95303e-08 0
-1.45257e-08 -7.87047e-08 0
1.08442e-08 -7.52481e-08 0
3.47386e-08 -6.95507e-08 0
5.61101e-08 -6.1915e-08 0
7.41868e-08 -5.2804e-08 0
8.87551e-08 -4.27789e-08 0
9.99788e-08 -3.2243e-08 0
1.08113e-07 -2.1392e-08 0
1.13031e-07 -1.10355e-08 0
0.00563155 -4.21075e-05 0
0 -7.55515e-07 0
1.45319e-11 -5.21097e-08 0
-2.45087e-08 -1.23634e-07 0
-1.62376e-07 -1.34936e-07 0
-3.21735e-07 -1.10712e-07 0
-2.82501e-07 -6.69616e-08 0
-8.16416e-08 -1.96504e-08 0
-5.99631e-10 5.81552e-10 0
-1.37431e-11 1.37431e-11 0
4.94797e-10 -6.40826e-10 0
-8.95383e-08 -3.96982e-08 0
-1.05232e-07 1.79039e-08 0
-1.81756e-07 1.373e-07 0
-2.8316e-07 1.23586e-07 0
-3.13975e-07 5.39879e-08 0
-2.74435e-07 6.08156e-09 0
-2.21312e-07 -1.1732e-08 0
-1.8434e-07 -1.52691e-08 0
-1.64279e-07 -1.42144e-08 0
-1.5443e-07 -1.18643e-08 0
-1.49746e-07 -9.30671e-09 0
-1.47555e-07 -7.02561e-09 0
-1.46576e-07 -5.23086e-09 0
-1.46201e-07 -3.96238e-09 0
-1.46141e-07 -3.17925e-09 0
-1.46265e-07 -2.82585e-09 0
-1.46519e-07 -2.86886e-09 0
-1.46898e-07 -3.31516e-09 0
-1.47421e-07 -4.22263e-09 0
-1.48134e-07 -5.71534e-09 0
-1.49076e-07 -7.99596e-09 0
-1.50264e-07 -1.13215e-08 0
-1.51912e-07 -1.60904e-08 0
-1.54429e-07 -2.32845e-08 0
-1.56415e-07 -3.412e-08 0
-1.53325e-07 -4.78628e-08 0
-1.42636e-07 -6.15756e-08 0
-1.26031e-07 -7.30349e-08 0
-1.04311e-07 -8.16348e-08 0
-7.86033e-08 -8.72931e-08 0
-4.93935e-08 -8.9475e-08 0
-1.88904e-08 -8.7774e-08 0
1.05663e-08 -8.29765e-08 0
3.77675e-08 -7.59493e-08 0
6.1569e-08 -6.706e-08 0
8.11981e-08 -5.68006e-08 0
9.6665e-08 -4.5797e-08 0
1.08414e-07 -3.44385e-08 0
1.16878e-07 -2.28241e-08 0
1.21898e-07 -1.17338e-08 0
0.00543118 -4.40841e-05 0
0 -5.35109e-07 0
2.12368e-11 -4.66791e-08 0
-3.55517e-08 -1.0615e-07 0
-1.73897e-07 -1.05106e-07 0
-3.1174e-07 -5.90453e-08 0
-3.05592e-07 -2.00215e-08 0
-1.94467e-07 -3.71754e-08 0
-9.37632e-08 -3.05691e-08 0
-6.28485e-10 5.34621e-10 0
4.69854e-10 5.49504e-10 0
-4.65519e-11 -1.77543e-08 0
-3.64555e-08 7.96324e-08 0
-5.65573e-08 2.19871e-07 0
-1.55979e-07 1.81271e-07 0
-2.48337e-07 6.20814e-08 0
-2.59671e-07 -1.30104e-08 0
-2.2659e-07 -3.3963e-08 0
-1.95582e-07 -3.19128e-08 0
-1.78863e-07 -2.46509e-08 0
-1.72324e-07 -1.76505e-08 0
-1.70669e-07 -1.21388e-08 0
-1.70868e-07 -8.18893e-09 0
-1.71596e-07 -5.5397e-09 0
-1.72377e-07 -3.86801e-09 0
-1.73091e-07 -2.90139e-09 0
-1.73751e-07 -2.4529e-09 0
-1.74417e-07 -2.41978e-09 0
-1.75167e-07 -2.7729e-09 0
-1.76094e-07 -3.54918e-09 0
-1.77316e-07 -4.8554e-09 0
-1.78968e-07 -6.89493e-09 0
-1.8116e-07 -9.96707e-09 0
-1.84185e-07 -1.44105e-08 0
-1.89017e-07 -2.09782e-08 0
-1.95161e-07 -3.12194e-08 0
-1.96135e-07 -4.51551e-08 0
-1.85578e-07 -5.95571e-08 0
-1.66874e-07 -7.21469e-08 0
-1.41658e-07 -8.29079e-08 0
-1.10079e-07 -9.13278e-08 0
-7.31737e-08 -9.53614e-08 0
-3.49317e-08 -9.37793e-08 0
7.88028e-10 -8.81809e-08 0
3.25699e-08 -8.01735e-08 0
5.93543e-08 -7.02849e-08 0
8.06172e-08 -5.91317e-08 0
9.68083e-08 -4.74439e-08 0
1.08793e-07 -3.55946e-08 0
1.17273e-07 -2.35709e-08 0
1.2215e-07 -1.20397e-08 0
0.005187 -4.43848e-05 0
0 -4.72922e-07 0
3.4813e-11 -3.63115e-08 0
-5.95548e-08 -8.49031e-08 0
-2.05773e-07 -8.30673e-08 0
-3.27026e-07 -4.19531e-08 0
-3.26952e-07 2.07358e-09 0
-2.42044e-07 -9.90216e-09 0
-1.89243e-07 -9.09983e-08 0
-9.82409e-08 -7.15459e-08 0
-1.18973e-07 -2.03234e-14 0
-2.42726e-07 3.73027e-08 0
-2.91505e-07 1.17207e-07 0
-1.32773e-07 1.78343e-07 0
-6.42984e-08 1.55024e-07 0
-1.54378e-07 6.67523e-08 0
-2.32069e-07 -1.05585e-09 0
-2.44953e-07 -2.56227e-08 0
-2.36155e-07 -2.56479e-08 0
-2.30743e-07 -1.88282e-08 0
-2.30602e-07 -1.24451e-08 0
-2.32686e-07 -7.96659e-09 0
-2.35054e-07 -5.11656e-09 0
-2.37031e-07 -3.38174e-09 0
-2.38537e-07 -2.36582e-09 0
-2.39689e-07 -1.81894e-09 0
-2.40642e-07 -1.6025e-09 0
-2.41541e-07 -1.65504e-09 0
-2.42526e-07 -1.97216e-09 0
-2.43745e-07 -2.59898e-09 0
-2.45375e-07 -3.62996e-09 0
-2.4764e-07 -5.22968e-09 0
-2.50802e-07 -7.69476e-09 0
-2.55308e-07 -1.14075e-08 0
-2.6242e-07 -1.67241e-08 0
-2.72614e-07 -2.4451e-08 0
-2.78502e-07 -3.49034e-08 0
-2.68176e-07 -4.5352e-08 0
-2.47644e-07 -5.53155e-08 0
-2.2239e-07 -6.82027e-08 0
-1.83151e-07 -8.21022e-08 0
-1.32415e-07 -9.02236e-08 0
-8.10274e-08 -9.00324e-08 0
-3.57475e-08 -8.45247e-08 0
2.41225e-09 -7.63529e-08 0
3.29213e-08 -6.63655e-08 0
5.6004e-08 -5.53708e-08 0
7.28616e-08 -4.41194e-08 0
8.48876e-08 -3.29212e-08 0
9.31009e-08 -2.17461e-08 0
9.75758e-08 -1.11831e-08 0
0.00478557 -4.34649e-05 0
0 -5.00247e-07 0
4.33749e-11 -1.88514e-08 0
-8.10432e-08 -4.57268e-08 0
-2.19832e-07 -4.38199e-08 0
-3.17024e-07 -2.32644e-08 0
-3.34198e-07 -1.71661e-08 0
-2.81688e-07 -3.70102e-08 0
-2.46346e-07 -8.56328e-08 0
-2.71324e-07 -5.55948e-08 0
-2.58705e-07 8.946e-08 0
-3.04025e-07 1.78339e-07 0
-2.6875e-07 1.05255e-07 0
-1.37608e-07 -3.2067e-08 0
-9.39732e-08 -9.18252e-08 0
-1.87436e-07 -6.7787e-08 0
-2.70067e-07 -1.89207e-08 0
-2.87564e-07 9.50348e-09 0
-2.78903e-07 1.3972e-08 0
-2.71011e-07 9.20271e-09 0
-2.68128e-07 4.32035e-09 0
-2.68158e-07 1.42904e-09 0
-2.69228e-07 8.90944e-11 0
-2.70452e-07 -4.20678e-10 0
-2.71546e-07 -5.73478e-10 0
-2.72484e-07 -6.14202e-10 0
-2.73338e-07 -6.57471e-10 0
-2.74211e-07 -7.60586e-10 0
-2.7523e-07 -9.63396e-10 0
-2.76549e-07 -1.31034e-09 0
-2.78375e-07 -1.86429e-09 0
-2.80992e-07 -2.71591e-09 0
-2.84799e-07 -4.01695e-09 0
-2.90472e-07 -6.01355e-09 0
-2.99275e-07 -8.79376e-09 0
-3.11702e-07 -1.21222e-08 0
-3.2136e-07 -1.62464e-08 0
-3.15059e-07 -2.08463e-08 0
-2.99191e-07 -2.56629e-08 0
-2.84927e-07 -3.46143e-08 0
-2.52473e-07 -4.73463e-08 0
-1.99528e-07 -5.60983e-08 0
-1.42055e-07 -5.68596e-08 0
-9.35949e-08 -5.22214e-08 0
-5.49861e-08 -4.59614e-08 0
-2.49585e-08 -3.93325e-08 0
-2.56142e-09 -3.25224e-08 0
1.36258e-08 -2.56926e-08 0
2.50495e-08 -1.89499e-08 0
3.27031e-08 -1.23866e-08 0
3.66828e-08 -6.53411e-09 0
0.00366799 -3.34641e-05 0
0 0 0
2.47698e-11 0 0
-4.28045e-08 0 0
-1.05481e-07 0 0
-1.45513e-07 0 0
-1.56606e-07 0 0
-1.52479e-07 0 0
-1.50857e-07 0 0
-1.7313e-07 0 0
-1.39757e-07 0 0
-6.13452e-08 0 0
-3.11414e-09 0 0
-5.8671e-09 0 0
-5.88254e-08 0 0
-1.22702e-07 0 0
-1.54882e-07 0 0
-1.55036e-07 0 0
-1.44666e-07 0 0
-1.36188e-07 0 0
-1.31692e-07 0 0
-1.29896e-07 0 0
-1.29443e-07 0 0
-1.29541e-07 0 0
-1.29824e-07 0 0
-1.30156e-07 0 0
-1.3051e-07 0 0
-1.30905e-07 0 0
-1.3139e-07 0 0
-1.32038e-07 0 0
-1.32952e-07 0 0
-1.34283e-07 0 0
-1.36257e-07 0 0
-1.39262e-07 0 0
-1.43895e-07 0 0
-1.5023e-07 0 0
-1.55593e-07 0 0
-1.54266e-07 0 0
-1.48934e-07 0 0
-1.46388e-07 0 0
-1.35463e-07 0 0
-1.12285e-07 0 0
-8.46299e-08 0 0
-6.16552e-08 0 0
-4.39641e-08 0 0
-3.02296e-08 0 0
-1.9874e-08 0 0
-1.23063e-08 0 0
-6.91468e-09 0 0
-3.29101e-09 0 0
-1.4297e-09 0 0
0.00140828 0 0
0 0 5.57797e-07
9.91741e-11 0 3.75224e-08
-8.85694e-08 0 1.24927e-07
-3.55006e-07 0 1.48596e-07
-7.5074e-07 0 -1.24459e-07
-2.61197e-07 0 -3.0976e-07
-3.09699e-08 0 -2.18496e-07
1.02551e-07 0 -1.33909e-07
1.48819e-07 0 -3.72723e-08
9.89402e-08 0 1.67202e-08
-6.33477e-10 0 2.1659e-08
-9.6119e-08 0 5.25827e-09
-1.61345e-07 0 -7.26667e-09
-1.97548e-07 0 -9.8059e-09
-2.16768e-07 0 -6.83386e-09
-2.29858e-07 0 -3.04147e-09
-2.41463e-07 0 -4.44465e-10
-2.51949e-07 0 7.77154e-10
-2.60604e-07 0 1.09158e-09
-2.67095e-07 0 9.75064e-10
-2.71583e-07 0 7.26059e-10
-2.74475e-07 0 4.84174e-10
-2.76209e-07 0 2.94829e-10
-2.77149e-07 0 1.60171e-10
-2.77561e-07 0 6.76134e-11
-2.77613e-07 0 2.59178e-12
-2.77395e-07 0 -4.70794e-11
-2.76929e-07 0 -9.05339e-11
-2.76183e-07 0 -1.34487e-10
-2.75066e-07 0 -1.8424e-10
-2.73422e-07 0 -2.44641e-10
-2.71007e-07 0 -3.19607e-10
-2.67477e-07 0 -4.06661e-10
-2.62419e-07 0 -4.87203e-10
-2.55473e-07 0 -5.27491e-10
-2.46465e-07 0 -5.01624e-10
-2.35399e-07 0 -4.13532e-10
-2.22348e-07 0 -2.91888e-10
-2.07421e-07 0 -1.69515e-10
-1.90802e-07 0 -6.913e-11
-1.72815e-07 0 2.18194e-13
-1.53947e-07 0 4.19218e-11
-1.34825e-07 0 6.82681e-11
-1.16165e-07 0 9.36717e-11
-9.86961e-08 0 1.27287e-10
-8.30695e-08 0 1.69687e-10
-6.97926e-08 0 2.14043e-10
-5.92234e-08 0 2.55833e-10
-5.16253e-08 0 3.59526e-10
-4.74703e-08 0 6.90123e-10
0.00429214 0 8.6625e-06
0.0036 -1.29405e-07 5.81542e-08
0.00359979 -0.00132089 -5.07482e-05
0.00695166 -0.00419465 -0.000493335
0.0142973 -0.00756062 -0.00217252
0.0255709 -0.0139678 -0.00515906
0.0462768 -0.0108684 -0.00451926
0.0491499 -0.000878802 -0.00124847
0.0486355 0.00322393 0.000286473
0.043391 0.00532896 0.00085486
0.0377348 0.00525585 0.000542888
0.0327066 0.00431457 2.51391e-05
0.0285362 0.00318697 -0.000314838
0.025315 0.00218126 -0.00039487
0.0230106 0.00142138 -0.000310027
0.0214546 0.000909631 -0.000186046
0.0204396 0.000582093 -9.09249e-05
0.0197935 0.000371879 -3.63099e-05
0.0193911 0.000235161 -1.05915e-05
0.019146 0.000146366 -5.66719e-07
0.0189994 8.96302e-05 2.34396e-06
0.0189132 5.4286e-05 2.55699e-06
0.0188626 3.29907e-05 2.0138e-06
0.0188321 2.07842e-05 1.4415e-06
0.0188121 1.44415e-05 1.04982e-06
0.0187965 1.19737e-05 8.60892e-07
0.0187811 1.22582e-05 8.4764e-07
0.0187628 1.47828e-05 9.84831e-07
0.0187387 1.94868e-05 1.26492e-06
0.0187057 2.66765e-05 1.702e-06
0.0186599 3.69961e-05 2.33381e-06
0.018596 5.14405e-05 3.22735e-06
0.0185074 7.13992e-05 4.49931e-06
0.0183849 9.86769e-05 6.35952e-06
0.0182169 0.0001352 9.10725e-06
0.0179892 0.000181887 1.29016e-05
0.0176869 0.000236857 1.73659e-05
0.0173 0.000294595 2.1547e-05
0.0168277 0.000347246 2.44157e-05
0.0162811 0.000387129 2.5391e-05
0.0156818 0.000408966 2.45052e-05
0.0150574 0.000410996 2.22696e-05
0.014437 0.000394835 1.94361e-05
0.0138468 0.000364289 1.67104e-05
0.0133068 0.00032367 1.44633e-05
0.012831 0.000276488 1.26379e-05
0.0124287 0.000225043 1.09095e-05
0.0121061 0.000170631 8.9003e-06
0.0118673 0.000113933 6.39247e-06
0.0117143 5.72851e-05 4.96182e-06
0.0116466 1.36312e-05 1.24928e-05
0.0116465 -2.23485e-06 2.00653e-05
0.01 -7.81645e-08 -1.25324e-06
0.010001 -0.00315348 -0.000517658
0.0150015 -0.0103399 -0.0012081
0.0240317 -0.0183076 -0.00273977
0.0372842 -0.0302619 -0.00421487
0.0568635 -0.0213545 -0.00117645
0.0548857 -0.00155063 0.00215719
0.0549562 0.00575934 0.00249213
0.0494303 0.0106521 0.00230674
0.0439054 0.0106337 0.00135352
0.0392086 0.00939165 0.000276534
0.0351518 0.00768702 -0.000396463
0.0319262 0.00578972 -0.000596842
0.029652 0.0040367 -0.000495792
0.0281553 0.00266468 -0.000306397
0.0272054 0.0017009 -0.000153235
0.026619 0.00106064 -6.29536e-05
0.0262672 0.000648372 -1.94525e-05
0.0260623 0.00038921 -1.95294e-06
0.0259463 0.000230073 3.46835e-06
0.0258818 0.000134866 4.11564e-06
0.0258459 7.98004e-05 3.27159e-06
0.0258245 4.96802e-05 2.2106e-06
0.0258092 3.5137e-05 1.32695e-06
0.0257947 3.06731e-05 6.75947e-07
0.0257773 3.33484e-05 2.06099e-07
0.0257539 4.19476e-05 -1.5203e-07
0.0257212 5.64913e-05 -4.56565e-07
0.0256754 7.79871e-05 -7.45633e-07
0.0256113 0.000108342 -1.03151e-06
0.0255221 0.000150357 -1.28906e-06
0.0253986 0.000207743 -1.41731e-06
0.0252286 0.000285093 -1.10907e-06
0.0249967 0.000387392 3.185e-07
0.0246832 0.000517697 3.61695e-06
0.0242655 0.000672505 8.56742e-06
0.0237255 0.000838625 1.3535e-05
0.0230586 0.00099561 1.65385e-05
0.022278 0.00112194 1.6466e-05
0.0214133 0.00120095 1.33826e-05
0.020505 0.00122454 8.26372e-06
0.0195973 0.00119385 2.64562e-06
0.0187303 0.00111721 -1.89815e-06
0.0179351 0.00100609 -4.49907e-06
0.0172328 0.000871044 -5.28987e-06
0.0166371 0.000719996 -5.0317e-06
0.0161571 0.000558411 -4.59916e-06
0.0157981 0.000390256 -4.71346e-06
0.0155627 0.000219766 -4.02927e-06
0.0154513 6.48072e-05 9.57909e-06
0.0154509 -4.94845e-06 2.22314e-05
0.0148 -9.78807e-07 -1.58214e-06
0.0148025 -0.00535276 -0.00105708
0.0199424 -0.016246 -0.00268803
0.0261874 -0.0275679 -0.00470546
0.0305843 -0.0430526 -0.00529784
0.0291016 -0.0263971 -0.000862526
0.0262198 -1.14025e-05 0.00245967
0.0262091 0.00747049 0.00251389
0.0306223 0.015521 0.00243806
0.030939 0.0152374 0.00151292
0.0297515 0.0133159 0.000512854
0.0285782 0.0109032 -0.000171823
0.0277746 0.00807978 -0.00041133
0.0274805 0.00546504 -0.000367175
0.027441 0.00350553 -0.000222197
0.0274782 0.00218459 -9.68384e-05
0.0275264 0.00133237 -2.37785e-05
0.0275712 0.000795315 7.77164e-06
0.0276102 0.000464599 1.63957e-05
0.0276423 0.000266478 1.53284e-05
0.0276668 0.000151734 1.14528e-05
0.0276837 8.83806e-05 7.59493e-06
0.027693 5.63776e-05 4.58294e-06
0.0276954 4.37362e-05 2.44063e-06
0.0276907 4.37562e-05 9.47126e-07
0.0276787 5.31931e-05 -1.42687e-07
0.0276582 7.11255e-05 -1.03053e-06
0.027627 9.8324e-05 -1.86473e-06
0.0275819 0.000136961 -2.74356e-06
0.0275183 0.000190542 -3.7103e-06
0.0274294 0.000263932 -4.7374e-06
0.027306 0.000363347 -5.69945e-06
0.0271356 0.000496332 -6.17741e-06
0.0269017 0.000671645 -4.85915e-06
0.0265815 0.000896573 4.53904e-07
0.026144 0.00116821 1.04709e-05
0.0255591 0.00146503 2.2309e-05
0.0248155 0.00175013 3.15918e-05
0.0239272 0.00198317 3.54603e-05
0.0229323 0.00213213 3.31934e-05
0.0218839 0.0021806 2.58537e-05
0.0208399 0.00212962 1.60806e-05
0.0198512 0.00199445 7.15417e-06
0.0189533 0.00179673 1.12718e-06
0.0181677 0.00155638 -1.97043e-06
0.0175067 0.00128807 -3.32904e-06
0.0169775 0.00100171 -4.2855e-06
0.0165845 0.000704295 -5.86319e-06
0.0163293 0.000403288 -7.00794e-06
0.0162106 0.000123273 6.18925e-06
0.01621 -6.44641e-06 1.94812e-05
0.018 -2.03626e-06 -1.7421e-06
0.0180026 -0.00664635 -0.00189232
0.020286 -0.017756 -0.00508364
0.0200531 -0.0232236 -0.00668957
0.0158502 -0.0253188 -0.00703652
-1.34751e-06 -0.013214 -0.00353947
9.93455e-05 2.88568e-05 7.41572e-07
-3.50062e-05 3.69231e-05 0.00047781
0.00721815 0.00491768 0.000991708
0.0151055 0.0111527 0.000869969
0.01852 0.011859 0.000453701
0.0201365 0.00996828 -9.20839e-06
0.0218588 0.00718956 -0.000264924
0.02363 0.00458269 -0.000271878
0.0251204 0.00277972 -0.000165223
0.0262045 0.00165787 -5.83814e-05
0.0269265 0.000973204 5.7346e-06
0.0273872 0.000556307 3.01457e-05
0.027676 0.000307355 3.20008e-05
0.027855 0.000164527 2.52872e-05
0.0279643 8.74004e-05 1.73358e-05
0.0280293 4.98633e-05 1.08323e-05
0.028066 3.59239e-05 6.22026e-06
0.0280842 3.65213e-05 3.1467e-06
0.0280897 4.71578e-05 1.11036e-06
0.0280853 6.63189e-05 -3.16137e-07
0.0280721 9.45427e-05 -1.44293e-06
0.0280495 0.000133966 -2.47647e-06
0.0280155 0.000188196 -3.53719e-06
0.0279667 0.000262409 -4.65156e-06
0.0278975 0.000363556 -5.71088e-06
0.0277997 0.000500453 -6.47587e-06
0.0276614 0.000683723 -6.46409e-06
0.0274654 0.000926637 -3.58886e-06
0.0271863 0.00124431 7.54078e-06
0.0267814 0.00164024 3.12535e-05
0.0261982 0.00208596 6.29893e-05
0.0254107 0.0025226 9.22465e-05
0.0244339 0.00288334 0.000110813
0.0233187 0.00311499 0.000114801
0.0221384 0.00319061 0.000104773
0.0209717 0.00311248 8.61204e-05
0.0198826 0.00290696 6.63373e-05
0.0189098 0.00261047 5.02148e-05
0.0180707 0.00225493 3.82497e-05
0.0173731 0.00186228 2.86272e-05
0.0168203 0.00144656 1.94135e-05
0.0164136 0.00101738 9.28021e-06
0.0161525 0.000584756 -6.61202e-07
0.0160337 0.000181538 4.52674e-06
0.0160331 -5.99512e-06 1.42315e-05
0.0196 -2.65375e-06 -2.70678e-06
0.0196008 -0.00533906 -0.00272922
0.0191065 -0.0120531 -0.00655668
0.016195 -0.0146418 -0.00704975
0.0113775 -0.0133212 -0.00662386
0.00221253 -0.00539615 -0.00435865
7.42917e-05 -6.81263e-05 -0.000954463
3.31201e-05 -3.31201e-05 -4.61655e-08
-3.40315e-05 3.59809e-05 0.000143551
0.0048708 0.00370753 0.000295564
0.0110792 0.00825568 0.000236038
0.0138642 0.00768711 -2.57961e-05
0.0171633 0.00477571 -0.000289204
0.0204691 0.00236417 -0.000334632
0.0232152 0.00102289 -0.000242511
0.0251683 0.000409734 -0.000113695
0.0264139 0.000146072 -2.03892e-05
0.027164 2.95093e-05 2.1668e-05
0.0276048 -2.00102e-05 3.01984e-05
0.0278608 -3.47497e-05 2.4951e-05
0.0280076 -3.11471e-05 1.6961e-05
0.0280904 -1.8448e-05 1.02905e-05
0.0281357 -1.25339e-06 5.66542e-06
0.0281591 1.89287e-05 2.69608e-06
0.0281693 4.25455e-05 8.11027e-07
0.0281711 7.1324e-05 -4.54861e-07
0.0281666 0.000108001 -1.41678e-06
0.0281564 0.000156349 -2.26202e-06
0.0281398 0.0002214 -3.07111e-06
0.0281148 0.00030984 -3.79649e-06
0.0280775 0.00043055 -4.13967e-06
0.0280215 0.000595059 -3.50298e-06
0.0279356 0.000817262 -1.28415e-06
0.0278015 0.00111476 5.12445e-06
0.0275922 0.00151355 2.71048e-05
0.027252 0.00203336 8.04467e-05
0.0266902 0.0026443 0.000161633
0.0258523 0.00325785 0.000245432
0.0247557 0.00376819 0.000306606
0.0234756 0.00409327 0.00033064
0.02212 0.00419421 0.000317024
0.0207994 0.00407787 0.000278928
0.0195942 0.00378829 0.000233888
0.0185419 0.00338275 0.000192686
0.0176513 0.00290759 0.000157047
0.0169217 0.00239159 0.000124413
0.016351 0.00185172 9.2223e-05
0.0159365 0.00129927 5.89349e-05
0.0156742 0.000746167 2.57934e-05
0.0155577 0.000233614 8.9264e-06
0.015557 -4.00735e-06 8.14365e-06
0.0196 -1.30587e-06 -3.62572e-06
0.0196001 -0.00327119 -0.00307228
0.0190112 -0.00692525 -0.00661821
0.0177285 -0.00656783 -0.00658623
0.0139277 -0.00287025 -0.00573024
0.0100624 0.00337605 -0.00450303
0.00646963 0.00333383 -0.00222424
7.43523e-05 -6.19003e-05 -0.000414931
2.78688e-05 -2.78688e-05 -1.33807e-07
-3.29339e-05 3.5129e-05 4.05819e-05
0.0036951 0.00283211 0.00033949
0.00831925 0.00395955 0.000379055
0.0137669 0.000782009 -3.80057e-05
0.0186824 -0.00125776 -0.000325791
0.0224984 -0.00176814 -0.00037641
0.0250361 -0.00146753 -0.000253336
0.0265114 -0.00100507 -0.000110095
0.0273049 -0.000642945 -2.58565e-05
0.0277191 -0.000403835 5.55164e-06
0.0279335 -0.000250473 1.131e-05
0.0280438 -0.000150457 8.94517e-06
0.0281 -8.31305e-05 5.51212e-06
0.0281285 -3.53262e-05 2.9071e-06
0.0281431 1.91049e-06 1.24911e-06
0.028151 3.51244e-05 2.50338e-07
0.0281559 6.95705e-05 -3.64437e-07
0.0281599 0.000110054 -7.69007e-07
0.028164 0.000161647 -1.02978e-06
0.0281685 0.000230366 -1.10047e-06
0.0281729 0.000323879 -7.72551e-07
0.0281755 0.000452396 5.80184e-07
0.0281727 0.000629798 4.38055e-06
0.0281554 0.000873514 1.19867e-05
0.0281041 0.00120436 2.58623e-05
0.0279894 0.00165792 6.60298e-05
0.0277463 0.00228011 0.000176397
0.0272281 0.00305202 0.000367857
0.0263256 0.00384997 0.000583876
0.0250598 0.0045131 0.000749339
0.0235515 0.00492458 0.000820662
0.0219679 0.00503735 0.000799643
0.0204623 0.00486786 0.000719533
0.0191293 0.00448508 0.000618762
0.0179972 0.00397228 0.000520357
0.0170593 0.00339028 0.000429438
0.0163036 0.00277187 0.000343089
0.0157209 0.00213452 0.000258317
0.015304 0.00148972 0.000173512
0.0150451 0.000850716 9.00682e-05
0.0149333 0.00026566 2.62936e-05
0.0149326 -3.40096e-06 3.41181e-06
0.018 -8.19793e-07 -3.55792e-06
0.018001 -0.00162579 -0.00301287
0.0184874 -0.00280786 -0.00628136
0.0188404 -0.00123528 -0.00582373
0.0182502 0.00185301 -0.00464791
0.0182005 0.00763875 -0.00361759
0.0187547 0.0126955 -0.00218375
0.0115646 0.00696215 -0.000978351
7.61341e-05 -4.76665e-05 -0.000315726
-2.5841e-05 -5.53062e-05 5.5663e-07
8.01661e-06 -0.000206079 0.000845945
0.00936903 -0.00250293 0.00135693
0.0170885 -0.00546443 0.000689233
0.021964 -0.0060971 7.90981e-05
0.0248629 -0.00506399 -0.000285813
0.0264923 -0.00343137 -0.000324103
0.0273028 -0.00204613 -0.000206112
0.0276505 -0.00115695 -9.70372e-05
0.027777 -0.000648982 -3.81153e-05
0.0278116 -0.000364599 -1.34336e-05
0.0278134 -0.000202142 -4.4896e-06
0.0278066 -0.00010598 -1.50448e-06
0.0278003 -4.57316e-05 -5.20573e-07
0.0277976 -4.02983e-06 -1.38802e-07
0.0277996 2.96869e-05 1.02894e-07
0.0278068 6.2497e-05 3.66791e-07
0.0278198 9.99446e-05 7.51104e-07
0.0278398 0.00014732 1.39346e-06
0.027868 0.00021065 2.55361e-06
0.0279062 0.000297606 4.72525e-06
0.0279555 0.000418509 9.00571e-06
0.0280162 0.000587998 1.80714e-05
0.028084 0.00082642 3.54955e-05
0.0281411 0.00115769 6.40496e-05
0.0281542 0.00161996 0.000133107
0.028058 0.00228079 0.00033712
0.0276395 0.00313929 0.000726529
0.0266862 0.00404383 0.00118302
0.0252371 0.0047862 0.00153064
0.0234667 0.00522684 0.00167729
0.0216345 0.00531962 0.0016349
0.0199432 0.00509344 0.00147755
0.0184918 0.00464162 0.00127931
0.0172906 0.00406913 0.0010818
0.0163132 0.00344325 0.000895026
0.015536 0.00279373 0.000715684
0.0149436 0.00213451 0.000540397
0.0145245 0.00147547 0.000367702
0.0142678 0.000830623 0.000199648
0.0141592 0.000251597 5.89119e-05
0.0141586 -1.08881e-05 4.20866e-07
0.0148 -4.85326e-07 -3.09453e-06
0.0148016 -0.000719329 -0.00280561
0.0164947 -0.000739908 -0.00561904
0.0186178 0.00117926 -0.00486873
0.0206165 0.00414698 -0.0036142
0.0227258 0.00761534 -0.0028619
0.0263235 0.0127405 -0.00201258
0.0294316 0.0198312 -0.00110328
0.0239724 0.0117593 -0.000143939
0.0243608 2.77437e-10 0.000579199
0.0279268 -0.00695536 0.00150745
0.0325611 -0.0137576 0.00233428
0.0337442 -0.0120304 0.00202019
0.0324012 -0.00891065 0.0011289
0.0302762 -0.00602253 0.000125544
0.0285172 -0.00366437 -0.000356696
0.0273868 -0.00201964 -0.000355517
0.0267297 -0.00105211 -0.000211864
0.0263583 -0.000540684 -0.000101525
0.0261493 -0.000279116 -4.38215e-05
0.0260322 -0.000143304 -1.7914e-05
0.025968 -6.95953e-05 -6.99508e-06
0.0259351 -2.63878e-05 -2.44085e-06
0.025922 2.43272e-06 -4.31733e-07
0.0259229 2.5659e-05 6.39908e-07
0.0259353 4.87313e-05 1.46876e-06
0.0259592 7.5769e-05 2.42251e-06
0.0259962 0.000110747 3.82032e-06
0.0260492 0.000158351 6.12346e-06
0.0261228 0.000224816 1.01524e-05
0.0262222 0.000318818 1.75315e-05
0.0263531 0.0004528 3.2005e-05
0.0265192 0.000646017 6.00974e-05
0.0267114 0.000925014 0.000108198
0.0269007 0.00132249 0.000214723
0.0270379 0.00189286 0.000529663
0.0268609 0.00262438 0.00114197
0.0259691 0.00335469 0.00181729
0.024503 0.00393753 0.00230053
0.022618 0.00428618 0.00250454
0.0206556 0.00433562 0.00243266
0.0188632 0.00411057 0.00219537
0.0173528 0.00370558 0.0019051
0.016117 0.00321926 0.00161985
0.0151172 0.0027039 0.0013472
0.0143254 0.00217707 0.00108054
0.0137223 0.0016466 0.000816633
0.0132935 0.0011199 0.000555454
0.0130273 0.000610589 0.000301511
0.0129112 0.000165461 8.36829e-05
0.0129107 -3.17435e-05 -1.00122e-05
0.01 -9.42571e-07 -2.75953e-06
0.0100008 -0.000445303 -0.00233676
0.0117443 -0.000213367 -0.00440691
0.0144097 0.00114704 -0.00343872
0.0176675 0.00294864 -0.0023053
0.022028 0.0057304 -0.00197216
0.0277731 0.00830851 -0.00216206
0.0365661 0.0103178 -0.00180154
0.0485423 0.00515995 -0.000290545
0.0482631 -0.0043723 0.00106976
0.0477725 -0.0093738 0.00154152
0.0402653 -0.00964559 0.00178125
0.0329718 -0.00627873 0.0017019
0.0274111 -0.00303714 0.00109065
0.0236433 -0.00107997 0.000261904
0.0213886 -0.000249273 -0.000205546