# vtk DataFile Version 2.0
Tobias Weinzierl: CPU, Manycore and Cluster Computing
ASCII

DATASET STRUCTURED_POINTS
DIMENSIONS  51 11 6

ORIGIN 0 0 0 

SPACING 0.1 0.1 0.1 

POINT_DATA 3366

VECTORS velocity float
0 0 0
1.31033e-08 0 0
1.94822e-08 0 0
1.2653e-08 0 0
4.71482e-09 0 0
1.18705e-09 0 0
2.3507e-10 0 0
3.93776e-11 0 0
5.7886e-12 0 0
7.62131e-13 0 0
9.10249e-14 0 0
9.95075e-15 0 0
1.00256e-15 0 0
9.36233e-17 0 0
8.14293e-18 0 0
6.62441e-19 0 0
5.05974e-20 0 0
3.64084e-21 0 0
2.47574e-22 0 0
1.59534e-23 0 0
9.76693e-25 0 0
5.69421e-26 0 0
3.1682e-27 0 0
1.6856e-28 0 0
8.59111e-30 0 0
4.20179e-31 0 0
1.97509e-32 0 0
8.93599e-34 0 0
3.89663e-35 0 0
1.63975e-36 0 0
6.66688e-38 0 0
2.62184e-39 0 0
9.98354e-41 0 0
3.68452e-42 0 0
1.31916e-43 0 0
4.58581e-45 0 0
1.54915e-46 0 0
5.0894e-48 0 0
1.62727e-49 0 0
5.06729e-51 0 0
1.53782e-52 0 0
4.55121e-54 0 0
1.31431e-55 0 0
3.70573e-57 0 0
1.02068e-58 0 0
2.74775e-60 0 0
7.23357e-62 0 0
1.86305e-63 0 0
4.69679e-65 0 0
1.1875e-66 0 0
3.04202e-64 0 0
0 -3.53219e-162 0
5.11617e-08 -2.89445e-160 0
9.17503e-08 -2.63137e-158 0
6.57215e-08 -2.14697e-156 0
2.47969e-08 -1.44395e-154 0
5.79968e-09 -7.86754e-153 0
1.07133e-09 -3.08816e-151 0
1.70007e-10 -4.22849e-152 0
2.4022e-11 -2.37334e-150 0
3.0738e-12 -1.578e-148 0
3.59629e-13 -1.02977e-146 0
3.87276e-14 -6.6121e-145 0
3.8588e-15 -4.17743e-143 0
3.57364e-16 -2.59596e-141 0
3.08858e-17 -1.5861e-139 0
2.50038e-18 -9.52392e-138 0
1.90252e-19 -5.61766e-136 0
1.36486e-20 -3.25337e-134 0
9.25851e-22 -1.84894e-132 0
5.95441e-23 -1.03058e-130 0
3.63954e-24 -5.63041e-129 0
2.11908e-25 -3.01315e-127 0
1.17774e-26 -1.5784e-125 0
6.2602e-28 -8.08726e-124 0
3.1882e-29 -4.0496e-122 0
1.55827e-30 -1.97997e-120 0
7.32066e-32 -9.44311e-119 0
3.3105e-33 -4.38845e-117 0
1.44297e-34 -1.98486e-115 0
6.07e-36 -8.72569e-114 0
2.46715e-37 -3.7229e-112 0
9.69974e-39 -1.53909e-110 0
3.6926e-40 -6.15379e-109 0
1.3625e-41 -2.37471e-107 0
4.87721e-43 -8.82329e-106 0
1.69518e-44 -3.14784e-104 0
5.72569e-46 -1.07493e-102 0
1.88081e-47 -3.50036e-101 0
6.01293e-49 -1.0822e-99 0
1.87222e-50 -3.1599e-98 0
5.68129e-52 -8.65836e-97 0
1.68124e-53 -2.20883e-95 0
4.85478e-55 -5.19438e-94 0
1.36872e-56 -1.11165e-92 0
3.76968e-58 -2.12839e-91 0
1.01477e-59 -3.56068e-90 0
2.67129e-61 -5.02955e-89 0
6.87976e-63 -5.6861e-88 0
1.73433e-64 -4.68892e-87 0
4.38477e-66 -2.32445e-86 0
1.12671e-63 -8.16912e-84 0
0 -3.8912e-161 0
8.36638e-08 -3.14835e-159 0
2.12056e-07 -3.60552e-157 0
1.86977e-07 -4.00053e-155 0
7.46489e-08 -3.75436e-153 0
1.41249e-08 -3.07674e-151 0
2.25778e-09 -2.38352e-149 0
3.23999e-10 -6.91763e-151 0
4.28936e-11 -3.03207e-149 0
5.25932e-12 -2.06925e-147 0
5.98199e-13 -1.36587e-145 0
6.3213e-14 -8.85666e-144 0
6.21844e-15 -5.65137e-142 0
5.70872e-16 -3.5481e-140 0
4.90411e-17 -2.19091e-138 0
3.9535e-18 -1.33002e-136 0
2.99938e-19 -7.93427e-135 0
2.14736e-20 -4.64903e-133 0
1.4546e-21 -2.67427e-131 0
9.34601e-23 -1.50939e-129 0
5.709e-24 -8.35406e-128 0
3.32269e-25 -4.5313e-126 0
1.84627e-26 -2.40705e-124 0
9.8129e-28 -1.25131e-122 0
4.99755e-29 -6.36093e-121 0
2.4428e-30 -3.15918e-119 0
1.14776e-31 -1.5315e-117 0
5.19118e-33 -7.23931e-116 0
2.26315e-34 -3.33286e-114 0
9.52216e-36 -1.49254e-112 0
3.87115e-37 -6.49246e-111 0
1.52232e-38 -2.73894e-109 0
5.79668e-40 -1.11858e-107 0
2.13938e-41 -4.41361e-106 0
7.65995e-43 -1.67864e-104 0
2.66302e-44 -6.13772e-103 0
8.99679e-46 -2.15084e-101 0
2.956e-47 -7.1977e-100 0
9.45244e-49 -2.2904e-98 0
2.94382e-50 -6.89505e-97 0
8.935e-52 -1.95147e-95 0
2.64466e-53 -5.15271e-94 0
7.63832e-55 -1.25696e-92 0
2.15392e-56 -2.79733e-91 0
5.93341e-58 -5.58455e-90 0
1.59753e-59 -9.7706e-89 0
4.20612e-61 -1.44794e-87 0
1.08346e-62 -1.72296e-86 0
2.73177e-64 -1.49932e-85 0
6.90771e-66 -7.83153e-85 0
1.77828e-63 -2.82886e-82 0
0 -1.54534e-162 0
7.28618e-08 -1.26177e-160 0
3.15473e-07 -1.13691e-158 0
3.80126e-07 -9.21392e-157 0
1.71009e-07 -4.7001e-155 0
9.51231e-09 -4.60909e-155 0
1.42152e-09 0 0
1.93369e-10 1.82067e-147 0
2.73499e-11 -3.04829e-148 0
3.52486e-12 -2.35966e-146 0
4.1679e-13 -1.59385e-144 0
4.54267e-14 -1.04515e-142 0
4.58238e-15 -6.73814e-141 0
4.29477e-16 -4.27568e-139 0
3.75388e-17 -2.66937e-137 0
3.07092e-18 -1.639e-135 0
2.35922e-19 -9.89301e-134 0
1.70748e-20 -5.86764e-132 0
1.16764e-21 -3.41801e-130 0
7.56495e-23 -1.95449e-128 0
4.65527e-24 -1.09649e-126 0
2.7273e-25 -6.03144e-125 0
1.52441e-26 -3.25094e-123 0
8.14546e-28 -1.71579e-121 0
4.16841e-29 -8.86046e-120 0
2.04648e-30 -4.47329e-118 0
9.65416e-32 -2.20589e-116 0
4.38258e-33 -1.06144e-114 0
1.91712e-34 -4.97836e-113 0
8.09155e-36 -2.27316e-111 0
3.2991e-37 -1.00911e-109 0
1.30086e-38 -4.34862e-108 0
4.96587e-40 -1.81606e-106 0
1.83704e-41 -7.33558e-105 0
6.59189e-43 -2.85958e-103 0
2.29641e-44 -1.07306e-101 0
7.77321e-46 -3.86472e-100 0
2.55861e-47 -1.33129e-98 0
8.19572e-49 -4.36815e-97 0
2.55656e-50 -1.35843e-95 0
7.77145e-52 -3.97986e-94 0
2.30359e-53 -1.09025e-92 0
6.66236e-55 -2.76622e-91 0
1.88116e-56 -6.42073e-90 0
5.18843e-58 -1.34104e-88 0
1.39859e-59 -2.463e-87 0
3.68647e-61 -3.84586e-86 0
9.50616e-63 -4.84049e-85 0
2.39928e-64 -4.47008e-84 0
6.07302e-66 -2.47563e-83 0
1.55769e-63 -9.19952e-81 0
0 -3.96104e-164 0
3.5078e-08 -3.26389e-162 0
3.41443e-07 -2.44818e-160 0
5.7816e-07 -1.58505e-158 0
3.02247e-07 -5.89866e-157 0
0 -5.74257e-157 0
0 0 0
0 0 0
2.68974e-12 -1.41454e-145 0
6.32729e-13 -2.1152e-145 0
1.00101e-13 -1.5992e-143 0
1.30266e-14 -1.06947e-141 0
1.48196e-15 -6.96856e-140 0
1.51537e-16 -4.47065e-138 0
1.41499e-17 -2.82291e-136 0
1.21915e-18 -1.75371e-134 0
9.76571e-20 -1.07146e-132 0
7.31536e-21 -6.43524e-131 0
5.14889e-22 -3.79775e-129 0
3.41875e-23 -2.20113e-127 0
2.14874e-24 -1.25226e-125 0
1.28222e-25 -6.9892e-124 0
7.28375e-27 -3.82452e-122 0
3.94812e-28 -2.05048e-120 0
2.04644e-29 -1.07635e-118 0
1.0163e-30 -5.52744e-117 0
4.84429e-32 -2.7746e-115 0
2.2199e-33 -1.3601e-113 0
9.79447e-35 -6.50405e-112 0
4.16654e-36 -3.03067e-110 0
1.71111e-37 -1.37429e-108 0
6.79214e-39 -6.05583e-107 0
2.60885e-40 -2.58894e-105 0
9.70641e-42 -1.07182e-103 0
3.50156e-43 -4.28799e-102 0
1.22591e-44 -1.65373e-100 0
4.16896e-46 -6.13087e-99 0
1.37823e-47 -2.17762e-97 0
4.43283e-49 -7.38113e-96 0
1.3881e-50 -2.37616e-94 0
4.23487e-52 -7.22283e-93 0
1.25959e-53 -2.0581e-91 0
3.65475e-55 -5.44687e-90 0
1.03511e-56 -1.32291e-88 0
2.86325e-58 -2.90135e-87 0
7.7395e-60 -5.61748e-86 0
2.04537e-61 -9.28704e-85 0
5.2875e-63 -1.24335e-83 0
1.33771e-64 -1.22653e-82 0
3.39384e-66 -7.25606e-82 0
8.60193e-64 -2.77659e-79 0
0 -7.96914e-165 0
9.1841e-09 -6.554e-163 0
3.20225e-07 -4.18452e-161 0
6.91794e-07 -2.38718e-159 0
4.14457e-07 -8.39738e-158 0
4.63347e-08 -8.16278e-158 0
0 0 0
0 0 0
0 0 0
5.55148e-14 1.06309e-143 0
1.40068e-14 -1.25141e-142 0
2.30968e-15 -9.23423e-141 0
3.07312e-16 -6.08322e-139 0
3.52585e-17 -3.94697e-137 0
3.60046e-18 -2.52152e-135 0
3.33377e-19 -1.58552e-133 0
2.83386e-20 -9.80898e-132 0
2.23144e-21 -5.96823e-130 0
1.63888e-22 -3.56983e-128 0
1.1289e-23 -2.09811e-126 0
7.32632e-25 -1.21107e-124 0
4.49685e-26 -6.86189e-123 0
2.61912e-27 -3.81415e-121 0
1.45172e-28 -2.07855e-119 0
7.67702e-30 -1.10978e-117 0
3.88218e-31 -5.80109e-116 0
1.88112e-32 -2.96637e-114 0
8.75023e-34 -1.48251e-112 0
3.91395e-35 -7.23444e-111 0
1.68607e-36 -3.44327e-109 0
7.00506e-38 -1.59652e-107 0
2.81058e-39 -7.20146e-106 0
1.09032e-40 -3.15534e-104 0
4.09428e-42 -1.34059e-102 0
1.48978e-43 -5.51189e-101 0
5.2579e-45 -2.18807e-99 0
1.80157e-46 -8.36397e-98 0
5.99812e-48 -3.06889e-96 0
1.94203e-49 -1.07679e-94 0
6.11943e-51 -3.59655e-93 0
1.87799e-52 -1.13717e-91 0
5.61697e-54 -3.38008e-90 0
1.6384e-55 -9.3612e-89 0
4.66356e-57 -2.38779e-87 0
1.29613e-58 -5.52211e-86 0
3.51931e-60 -1.1326e-84 0
9.34062e-62 -1.99377e-83 0
2.42452e-63 -2.85825e-82 0
6.15777e-65 -3.03576e-81 0
1.5682e-66 -1.93602e-80 0
3.90722e-64 -7.63657e-78 0
0 -3.29906e-163 0
9.05616e-09 -2.6875e-161 0
3.19752e-07 -1.89727e-159 0
6.91296e-07 -1.24933e-157 0
4.25003e-07 -6.08883e-156 0
9.56795e-08 -1.82262e-154 0
6.43252e-09 -1.76296e-154 0
0 0 0
0 0 0
0 0 0
1.10089e-15 -9.3045e-142 0
5.65464e-16 -6.46703e-140 0
1.15322e-16 -4.30905e-138 0
1.66784e-17 -2.82848e-136 0
1.96932e-18 -1.82881e-134 0
2.01337e-19 -1.16434e-132 0
1.83837e-20 -7.29684e-131 0
1.52762e-21 -4.49951e-129 0
1.16986e-22 -2.72895e-127 0
8.33125e-24 -1.62719e-125 0
5.55532e-25 -9.53434e-124 0
3.48716e-26 -5.48701e-122 0
2.06967e-27 -3.09985e-120 0
1.1657e-28 -1.71812e-118 0
6.25006e-30 -9.33679e-117 0
3.19864e-31 -4.97137e-115 0
1.56625e-32 -2.59156e-113 0
7.35331e-34 -1.32158e-111 0
3.31627e-35 -6.5869e-110 0
1.43914e-36 -3.20538e-108 0
6.0188e-38 -1.52125e-106 0
2.42934e-39 -7.03225e-105 0
9.47548e-41 -3.16184e-103 0
3.57577e-42 -1.38048e-101 0
1.307e-43 -5.84197e-100 0
4.63203e-45 -2.39104e-98 0
1.59321e-46 -9.44112e-97 0
5.32319e-48 -3.58574e-95 0
1.72917e-49 -1.30532e-93 0
5.46531e-51 -4.53491e-92 0
1.68201e-52 -1.49571e-90 0
5.04416e-54 -4.65246e-89 0
1.47497e-55 -1.35331e-87 0
4.20814e-57 -3.6405e-86 0
1.17212e-58 -8.92096e-85 0
3.18913e-60 -1.94923e-83 0
8.48071e-62 -3.67809e-82 0
2.20535e-63 -5.69134e-81 0
5.61083e-65 -6.57102e-80 0
1.43131e-66 -4.56944e-79 0
3.5667e-64 -1.85998e-76 0
0 -1.26959e-161 0
3.41131e-08 -1.02626e-159 0
3.38243e-07 -7.8099e-158 0
5.74668e-07 -5.49572e-156 0
3.16238e-07 -3.13197e-154 0
7.90552e-08 -1.39862e-152 0
1.14298e-08 -4.35276e-151 0
5.50969e-10 -4.21597e-151 0
0 0 0
0 0 0
0 -4.98071e-141 0
3.5184e-15 -3.45394e-139 0
6.23224e-16 -2.32753e-137 0
7.80138e-17 -1.54608e-135 0
8.18997e-18 -1.01204e-133 0
7.61762e-19 -6.52613e-132 0
6.44002e-20 -4.14442e-130 0
5.02137e-21 -2.591e-128 0
3.64546e-22 -1.59406e-126 0
2.48101e-23 -9.64718e-125 0
1.59111e-24 -5.74074e-123 0
9.65548e-26 -3.35744e-121 0
5.56342e-27 -1.92888e-119 0
3.05267e-28 -1.08799e-117 0
1.59916e-29 -6.02171e-116 0
8.01597e-31 -3.26822e-114 0
3.85249e-32 -1.7382e-112 0
1.77842e-33 -9.0522e-111 0
7.89851e-35 -4.61225e-109 0
3.38008e-36 -2.29706e-107 0
1.39566e-37 -1.11708e-105 0
5.56738e-39 -5.29835e-104 0
2.14811e-40 -2.44778e-102 0
8.02554e-42 -1.09985e-100 0
2.90634e-43 -4.79816e-99 0
1.02115e-44 -2.02832e-97 0
3.48412e-46 -8.28917e-96 0
1.15538e-47 -3.26594e-94 0
3.72679e-49 -1.23652e-92 0
1.17015e-50 -4.48083e-91 0
3.579e-52 -1.54649e-89 0
1.06705e-53 -5.05218e-88 0
3.10302e-55 -1.54989e-86 0
8.80707e-57 -4.41819e-85 0
2.44103e-58 -1.15365e-83 0
6.61071e-60 -2.70328e-82 0
1.7502e-61 -5.51143e-81 0
4.53216e-63 -9.29442e-80 0
1.14847e-64 -1.18052e-78 0
2.91834e-66 -9.08374e-78 0
7.41827e-64 -3.82015e-75 0
0 -3.61886e-160 0
6.75224e-08 -2.90475e-158 0
3.02163e-07 -2.29646e-156 0
3.68263e-07 -1.68399e-154 0
1.721e-07 -1.10021e-152 0
4.263e-08 -6.41972e-151 0
7.3805e-09 -3.25934e-149 0
9.0418e-10 -1.22945e-147 0
3.63197e-11 -1.19749e-147 0
3.58163e-12 0 0
3.69715e-13 -1.79152e-140 0
3.94862e-14 -1.25617e-138 0
3.92134e-15 -8.56424e-137 0
3.63156e-16 -5.75799e-135 0
3.14538e-17 -3.81661e-133 0
2.55526e-18 -2.49336e-131 0
1.95264e-19 -1.60494e-129 0
1.40747e-20 -1.01756e-127 0
9.59472e-22 -6.35244e-126 0
6.20145e-23 -3.90338e-124 0
3.80927e-24 -2.35989e-122 0
2.2286e-25 -1.40317e-120 0
1.24439e-26 -8.2017e-119 0
6.6442e-28 -4.71042e-117 0
3.39833e-29 -2.65675e-115 0
1.6678e-30 -1.47071e-113 0
7.866e-32 -7.98586e-112 0
3.57042e-33 -4.25044e-110 0
1.56181e-34 -2.21584e-108 0
6.59215e-36 -1.1305e-106 0
2.68803e-37 -5.63935e-105 0
1.06006e-38 -2.74762e-103 0
4.04738e-40 -1.306e-101 0
1.49757e-41 -6.04786e-100 0
5.37499e-43 -2.72437e-98 0
1.87294e-44 -1.19167e-96 0
6.34144e-46 -5.05086e-95 0
2.0879e-47 -2.06926e-93 0
6.68977e-49 -8.16989e-92 0
2.08738e-50 -3.09737e-90 0
6.34703e-52 -1.12253e-88 0
1.8819e-53 -3.86698e-87 0
5.44432e-55 -1.25699e-85 0
1.53767e-56 -3.81811e-84 0
4.24226e-58 -1.06929e-82 0
1.14386e-59 -2.70829e-81 0
3.01588e-61 -6.0236e-80 0
7.77904e-63 -1.12039e-78 0
1.9639e-64 -1.58943e-77 0
4.97233e-66 -1.37984e-76 0
1.28283e-63 -6.00296e-74 0
0 -5.67058e-159 0
6.26418e-08 -4.52218e-157 0
1.72546e-07 -3.59264e-155 0
1.58363e-07 -2.78719e-153 0
6.52285e-08 -2.13743e-151 0
1.62354e-08 -1.62015e-149 0
3.03303e-09 -1.21368e-147 0
4.58611e-10 -8.98419e-146 0
5.03422e-11 -6.57053e-144 0
5.23246e-12 -4.74673e-142 0
5.49377e-13 -3.38609e-140 0
5.44608e-14 -2.36673e-138 0
5.09154e-15 -1.63226e-136 0
4.48785e-16 -1.11062e-134 0
3.73131e-17 -7.45362e-133 0
2.92943e-18 -4.9327e-131 0
2.17493e-19 -3.2181e-129 0
1.52964e-20 -2.06911e-127 0
1.02095e-21 -1.3107e-125 0
6.47903e-23 -8.17749e-124 0
3.91657e-24 -5.0232e-122 0
2.25931e-25 -3.03685e-120 0
1.24589e-26 -1.80625e-118 0
6.57861e-28 -1.05646e-116 0
3.3314e-29 -6.07367e-115 0
1.62034e-30 -3.43047e-113 0
7.58029e-32 -1.90248e-111 0
3.41541e-33 -1.03536e-109 0
1.48396e-34 -5.52566e-108 0
6.22505e-36 -2.88986e-106 0
2.52398e-37 -1.47985e-104 0
9.90173e-39 -7.4133e-103 0
3.76229e-40 -3.6292e-101 0
1.38586e-41 -1.73423e-99 0
4.95333e-43 -8.07821e-98 0
1.71932e-44 -3.66235e-96 0
5.80021e-46 -1.61304e-94 0
1.90322e-47 -6.88706e-93 0
6.07867e-49 -2.84309e-91 0
1.89103e-50 -1.13118e-89 0
5.73383e-52 -4.32056e-88 0
1.69558e-53 -1.57628e-86 0
4.893e-55 -5.45722e-85 0
1.37868e-56 -1.77727e-83 0
3.7951e-58 -5.379e-82 0
1.02111e-59 -1.48639e-80 0
2.6868e-61 -3.64895e-79 0
6.91691e-63 -7.59919e-78 0
1.74305e-64 -1.22818e-76 0
4.40531e-66 -1.23551e-75 0
1.14458e-63 -5.56793e-73 0
0 0 0
2.1539e-08 0 0
4.33409e-08 0 0
3.33225e-08 0 0
1.30162e-08 0 0
3.31589e-09 0 0
6.49847e-10 0 0
1.054e-10 0 0
1.40225e-11 0 0
1.65083e-12 0 0
1.79661e-13 0 0
1.82012e-14 0 0
1.72362e-15 0 0
1.53031e-16 0 0
1.2771e-17 0 0
1.00418e-18 0 0
7.45657e-20 0 0
5.24053e-21 0 0
3.49351e-22 0 0
2.21363e-23 0 0
1.33589e-24 0 0
7.69274e-26 0 0
4.23467e-27 0 0
2.23214e-28 0 0
1.12845e-29 0 0
5.47967e-31 0 0
2.55951e-32 0 0
1.15151e-33 0 0
4.99614e-35 0 0
2.093e-36 0 0
8.47538e-38 0 0
3.32092e-39 0 0
1.26038e-40 0 0
4.63761e-42 0 0
1.65586e-43 0 0
5.74192e-45 0 0
1.93526e-46 0 0
6.34455e-48 0 0
2.02467e-49 0 0
6.29354e-51 0 0
1.90682e-52 0 0
5.63462e-54 0 0
1.62488e-55 0 0
4.57533e-57 0 0
1.25865e-58 0 0
3.38449e-60 0 0
8.90026e-62 0 0
2.29002e-63 0 0
5.76775e-65 0 0
1.45695e-66 0 0
3.79355e-64 0 0
0 0 -7.82728e-163
4.84483e-08 0 -6.39545e-161
8.29518e-08 0 -5.71732e-159
5.74628e-08 0 -4.32284e-157
2.14662e-08 0 -2.4906e-155
5.25615e-09 0 -1.0599e-153
1.01038e-09 0 -2.8681e-152
1.65252e-10 0 -1.87941e-152
2.38616e-11 0 -1.19658e-150
3.10058e-12 0 -7.92396e-149
3.66747e-13 0 -5.16351e-147
3.98046e-14 0 -3.31168e-145
3.98866e-15 0 -2.0899e-143
3.70929e-16 0 -1.29721e-141
3.21571e-17 0 -7.91644e-140
2.60932e-18 0 -4.74779e-138
1.9889e-19 0 -2.79701e-136
1.42874e-20 0 -1.6178e-134
9.70185e-22 0 -9.18233e-133
6.24453e-23 0 -5.11135e-131
3.81926e-24 0 -2.78874e-129
2.2248e-25 0 -1.49035e-127
1.23697e-26 0 -7.79599e-126
6.57699e-28 0 -3.98864e-124
3.35032e-29 0 -1.9943e-122
1.6378e-30 0 -9.73595e-121
7.69539e-32 0 -4.63616e-119
3.48033e-33 0 -2.1511e-117
1.51712e-34 0 -9.71337e-116
6.38227e-36 0 -4.26296e-114
2.59418e-37 0 -1.81571e-112
1.01994e-38 0 -7.4931e-111
3.88288e-40 0 -2.99057e-109
1.43271e-41 0 -1.1519e-107
5.12854e-43 0 -4.27176e-106
1.78252e-44 0 -1.52103e-104
6.0206e-46 0 -5.18359e-103
1.97764e-47 0 -1.68449e-101
6.32236e-49 0 -5.19683e-100
1.96852e-50 0 -1.51411e-98
5.97333e-52 0 -4.13948e-97
1.76761e-53 0 -1.05359e-95
5.10403e-55 0 -2.47181e-94
1.43895e-56 0 -5.27706e-93
3.96297e-58 0 -1.00783e-91
1.06676e-59 0 -1.68174e-90
2.80806e-61 0 -2.36928e-89
7.23178e-63 0 -2.67145e-88
1.82301e-64 0 -2.19714e-87
4.60881e-66 0 -1.08656e-86
1.18387e-63 0 -3.81361e-84
0.0036 -4.05279e-162 -2.096e-162
0.00440777 -6.10411e-158 -5.42172e-158
0.00301379 -1.06972e-155 -1.08304e-155
0.00125091 -1.57678e-153 -1.51366e-153
0.000335757 -1.40368e-151 -1.27323e-151
6.32032e-05 -8.32927e-150 -7.4028e-150
9.86741e-06 -3.34486e-148 -2.9697e-148
1.3582e-06 -4.36826e-149 -4.29086e-149
1.69064e-07 -2.47427e-147 -2.47509e-147
1.9268e-08 -1.67416e-145 -1.67423e-145
2.0257e-09 -1.11218e-143 -1.11218e-143
1.97529e-10 -7.27228e-142 -7.27228e-142
1.79442e-11 -4.68055e-140 -4.68055e-140
1.52448e-12 -2.96422e-138 -2.96422e-138
1.21543e-13 -1.84645e-136 -1.84645e-136
9.12283e-15 -1.13084e-134 -1.13084e-134
6.46526e-16 -6.80624e-133 -6.80624e-133
4.33784e-17 -4.02393e-131 -4.02393e-131
2.76233e-18 -2.33566e-129 -2.33566e-129
1.67338e-19 -1.33031e-127 -1.33031e-127
9.6642e-21 -7.43069e-126 -7.43069e-126
5.3315e-22 -4.06784e-124 -4.06784e-124
2.81481e-23 -2.18105e-122 -2.18105e-122
1.42465e-24 -1.14451e-120 -1.14451e-120
6.92346e-26 -5.87324e-119 -5.87324e-119
3.2355e-27 -2.94488e-117 -2.94488e-117
1.45602e-28 -1.44138e-115 -1.44138e-115
6.31783e-30 -6.87952e-114 -6.87952e-114
2.6465e-31 -3.19824e-112 -3.19824e-112
1.07147e-32 -1.44639e-110 -1.44639e-110
4.19716e-34 -6.35431e-109 -6.35431e-109
1.59236e-35 -2.70753e-107 -2.70753e-107
5.85671e-37 -1.11693e-105 -1.11693e-105
2.09017e-38 -4.45194e-104 -4.45194e-104
7.24432e-40 -1.71059e-102 -1.71059e-102
2.44035e-41 -6.31917e-101 -6.31917e-101
7.99605e-43 -2.23748e-99 -2.23748e-99
2.55026e-44 -7.56618e-98 -7.56618e-98
7.92282e-46 -2.43309e-96 -2.43309e-96
2.39908e-47 -7.40253e-95 -7.40253e-95
7.08518e-49 -2.11754e-93 -2.11754e-93
2.04201e-50 -5.65147e-92 -5.65147e-92
5.7466e-52 -1.39358e-90 -1.39358e-90
1.57996e-53 -3.13518e-89 -3.13518e-89
4.24612e-55 -6.32756e-88 -6.32756e-88
1.11599e-56 -1.11921e-86 -1.11921e-86
2.86986e-58 -1.67679e-85 -1.67679e-85
7.22419e-60 -2.01699e-84 -2.01699e-84
1.78091e-61 -1.77378e-83 -1.77378e-83
4.40298e-63 -9.3536e-83 -9.3536e-83
4.38596e-63 -1.5496e-82 -1.5496e-82
0.01 -3.91685e-161 -9.46986e-163
0.0107979 -3.77533e-157 -6.00394e-158
0.00825911 -5.32231e-155 -3.77688e-156
0.00385855 -2.10181e-152 -1.81227e-152
0.00105538 -3.50984e-150 -3.16564e-150
0.000160676 -3.31866e-148 -2.94038e-148
2.15752e-05 -2.62939e-146 -2.33109e-146
2.67682e-06 -7.35061e-148 -7.1047e-148
3.11251e-07 -3.21597e-146 -3.222e-146
3.38919e-08 -2.23424e-144 -2.23482e-144
3.45418e-09 -1.50184e-142 -1.50188e-142
3.29643e-10 -9.9207e-141 -9.9207e-141
2.94942e-11 -6.45135e-139 -6.45135e-139
2.47861e-12 -4.12943e-137 -4.12943e-137
1.96058e-13 -2.60074e-135 -2.60074e-135
1.46304e-14 -1.61101e-133 -1.61101e-133
1.03237e-15 -9.81096e-132 -9.81096e-132
6.9042e-17 -5.87135e-130 -5.87135e-130
4.38581e-18 -3.4512e-128 -3.4512e-128
2.65192e-19 -1.99151e-126 -1.99151e-126
1.52938e-20 -1.12754e-124 -1.12754e-124
8.42807e-22 -6.25988e-123 -6.25988e-123
4.446e-23 -3.40564e-121 -3.40564e-121
2.24884e-24 -1.81439e-119 -1.81439e-119
1.09237e-25 -9.45868e-118 -9.45868e-118
5.10313e-27 -4.82105e-116 -4.82105e-116
2.29591e-28 -2.40033e-114 -2.40033e-114
9.96046e-30 -1.16624e-112 -1.16624e-112
4.17191e-31 -5.52353e-111 -5.52353e-111
1.68893e-32 -2.54701e-109 -2.54701e-109
6.61573e-34 -1.14194e-107 -1.14194e-107
2.50995e-35 -4.97044e-106 -4.97044e-106
9.23187e-37 -2.09675e-104 -2.09675e-104
3.29487e-38 -8.55567e-103 -8.55567e-103
1.14204e-39 -3.36945e-101 -3.36945e-101
3.84741e-41 -1.27748e-99 -1.27748e-99
1.26075e-42 -4.64892e-98 -4.64892e-98
4.02142e-44 -1.61825e-96 -1.61825e-96
1.24944e-45 -5.36586e-95 -5.36586e-95
3.78378e-47 -1.68649e-93 -1.68649e-93
1.11758e-48 -4.99398e-92 -4.99398e-92
3.2213e-50 -1.38284e-90 -1.38284e-90
9.06634e-52 -3.54668e-89 -3.54668e-89
2.49296e-53 -8.3222e-88 -8.3222e-88
6.70051e-55 -1.75726e-86 -1.75726e-86
1.76126e-56 -3.26295e-85 -3.26295e-85
4.52971e-58 -5.151e-84 -5.151e-84
1.14037e-59 -6.55404e-83 -6.55404e-83
2.81154e-61 -6.11707e-82 -6.11707e-82
6.95176e-63 -3.42055e-81 -3.42055e-81
6.92493e-63 -5.72615e-81 -5.72615e-81
0.0148 -1.58025e-162 -4.20831e-161
0.016789 -1.47583e-158 6.27682e-157
0.0150967 -9.34205e-157 -3.97209e-155
0.00857213 -3.24395e-154 -1.39964e-152
0.00255903 -4.34224e-152 -3.32382e-150
0.000110008 -4.3099e-152 -2.87054e-148
1.38126e-05 0 -2.30176e-146
1.62492e-06 2.04617e-144 1.7879e-144
1.99724e-07 -3.29091e-145 -3.33439e-145
2.27249e-08 -2.59417e-143 -2.59842e-143
2.39949e-09 -1.78505e-141 -1.78533e-141
2.35706e-10 -1.1929e-139 -1.1929e-139
2.15997e-11 -7.84089e-138 -7.84089e-138
1.85188e-12 -5.07469e-136 -5.07469e-136
1.48989e-13 -3.23282e-134 -3.23282e-134
1.12804e-14 -2.02636e-132 -2.02636e-132
8.06021e-16 -1.24922e-130 -1.24922e-130
5.44961e-17 -7.57119e-129 -7.57119e-129
3.49515e-18 -4.50912e-127 -4.50912e-127
2.13138e-19 -2.6376e-125 -2.6376e-125
1.23849e-20 -1.51456e-123 -1.51456e-123
6.87137e-22 -8.53251e-122 -8.53251e-122
3.64694e-23 -4.71322e-120 -4.71322e-120
1.85485e-24 -2.55105e-118 -2.55105e-118
9.05515e-26 -1.35198e-116 -1.35198e-116
4.2496e-27 -7.0102e-115 -7.0102e-115
1.91993e-28 -3.55326e-113 -3.55326e-113
8.36144e-30 -1.75894e-111 -1.75894e-111
3.51462e-31 -8.49477e-110 -8.49477e-110
1.42753e-32 -3.99786e-108 -3.99786e-108
5.60883e-34 -1.83113e-106 -1.83113e-106
2.13399e-35 -8.15086e-105 -8.15086e-105
7.86981e-37 -3.52024e-103 -3.52024e-103
2.8157e-38 -1.4724e-101 -1.4724e-101
9.78216e-40 -5.9518e-100 -5.9518e-100
3.30267e-41 -2.31943e-98 -2.31943e-98
1.08446e-42 -8.6895e-97 -8.6895e-97
3.46575e-44 -3.1192e-95 -3.1192e-95
1.07875e-45 -1.06858e-93 -1.06858e-93
3.27247e-47 -3.47707e-92 -3.47707e-92
9.68126e-49 -1.06839e-90 -1.06839e-90
2.79481e-50 -3.07756e-89 -3.07756e-89
7.87746e-52 -8.23438e-88 -8.23438e-88
2.16906e-53 -2.02202e-86 -2.02202e-86
5.83763e-55 -4.4838e-85 -4.4838e-85
1.53638e-56 -8.77798e-84 -8.77798e-84
3.95606e-58 -1.46736e-82 -1.46736e-82
9.97089e-60 -1.98625e-81 -1.98625e-81
2.46097e-61 -1.9806e-80 -1.9806e-80
6.09143e-63 -1.18329e-79 -1.18329e-79
6.06784e-63 -2.00298e-79 -2.00298e-79
0.018 -4.74821e-164 -1.80379e-159
0.0206332 -2.5639e-160 2.02462e-155
0.0207575 -2.67505e-158 -1.88304e-153
0.0141951 -3.12886e-156 1.66837e-151
0.00479798 -5.36825e-154 -1.77251e-149
0 -5.33723e-154 -1.78938e-149
0 0 0
0 0 1.78857e-144
1.78176e-08 -1.6192e-142 -1.41648e-142
3.73689e-09 -2.36853e-142 -2.39915e-142
5.33287e-10 -1.82491e-140 -1.82715e-140
6.30826e-11 -1.24424e-138 -1.24424e-138
6.56576e-12 -8.26908e-137 -8.26908e-137
6.17809e-13 -5.41319e-135 -5.41319e-135
5.33643e-14 -3.48936e-133 -3.48936e-133
4.27347e-15 -2.21401e-131 -2.21401e-131
3.19541e-16 -1.38226e-129 -1.38226e-129
2.24313e-17 -8.48783e-128 -8.48783e-128
1.4848e-18 -5.12408e-126 -5.12408e-126
9.30166e-20 -3.0398e-124 -3.0398e-124
5.53212e-21 -1.77121e-122 -1.77121e-122
3.13221e-22 -1.01311e-120 -1.01311e-120
1.69235e-23 -5.68531e-119 -5.68531e-119
8.74479e-25 -3.1282e-117 -3.1282e-117
4.32993e-26 -1.68648e-115 -1.68648e-115
2.05806e-27 -8.9022e-114 -8.9022e-114
9.40563e-29 -4.59715e-112 -4.59715e-112
4.13924e-30 -2.32045e-110 -2.32045e-110
1.75654e-31 -1.14373e-108 -1.14373e-108
7.19708e-33 -5.49878e-107 -5.49878e-107
2.85058e-34 -2.57561e-105 -2.57561e-105
1.09263e-35 -1.17374e-103 -1.17374e-103
4.05719e-37 -5.1961e-102 -5.1961e-102
1.46088e-38 -2.23069e-100 -2.23069e-100
5.1055e-40 -9.26812e-99 -9.26812e-99
1.73329e-41 -3.71821e-97 -3.71821e-97
5.72095e-43 -1.43648e-95 -1.43648e-95
1.83722e-44 -5.32741e-94 -5.32741e-94
5.74468e-46 -1.8895e-92 -1.8895e-92
1.75018e-47 -6.37993e-91 -6.37993e-91
5.1987e-49 -2.03939e-89 -2.03939e-89
1.50652e-50 -6.1288e-88 -6.1288e-88
4.26164e-52 -1.71626e-86 -1.71626e-86
1.17747e-53 -4.42666e-85 -4.42666e-85
3.17923e-55 -1.03523e-83 -1.03523e-83
8.39308e-57 -2.1472e-82 -2.1472e-82
2.16751e-58 -3.82244e-81 -3.82244e-81
5.47826e-60 -5.5413e-80 -5.5413e-80
1.35572e-61 -5.95017e-79 -5.95017e-79
3.36442e-63 -3.83305e-78 -3.83305e-78
3.35123e-63 -6.56537e-78 -6.56537e-78
0.0196 -8.25656e-165 -9.31658e-160
0.0223497 -7.51238e-161 1.11398e-155
0.0235308 -4.91104e-159 -1.14531e-153
0.0179501 -6.23582e-157 1.10149e-151
0.00673813 -7.52452e-155 -1.32637e-149
0.000578482 -7.46264e-155 5.58323e-147
0 0 5.5966e-147
0 0 0
0 0 -1.41345e-142
3.00677e-10 1.24105e-140 1.05917e-140
6.87216e-11 -1.45556e-139 -1.47274e-139
1.03568e-11 -1.09545e-137 -1.09545e-137
1.26713e-12 -7.36366e-136 -7.36366e-136
1.344e-13 -4.87744e-134 -4.87744e-134
1.27493e-14 -3.18247e-132 -3.18247e-132
1.10144e-15 -2.04486e-130 -2.04486e-130
8.77037e-17 -1.29341e-128 -1.29341e-128
6.49234e-18 -8.0504e-127 -8.0504e-127
4.49734e-19 -4.92867e-125 -4.92867e-125
2.93054e-20 -2.96679e-123 -2.96679e-123
1.80401e-21 -1.75503e-121 -1.75503e-121
1.05292e-22 -1.01979e-119 -1.01979e-119
5.84477e-24 -5.81737e-118 -5.81737e-118
3.09401e-25 -3.25599e-116 -3.25599e-116
1.56566e-26 -1.78693e-114 -1.78693e-114
7.58954e-28 -9.60941e-113 -9.60941e-113
3.53108e-29 -5.05974e-111 -5.05974e-111
1.57952e-30 -2.6064e-109 -2.6064e-109
6.80381e-32 -1.31232e-107 -1.31232e-107
2.8263e-33 -6.4519e-106 -6.4519e-106
1.13371e-34 -3.09379e-104 -3.09379e-104
4.39678e-36 -1.44511e-102 -1.44511e-102
1.65049e-37 -6.56597e-101 -6.56597e-101
6.00346e-39 -2.89718e-99 -2.89718e-99
2.11801e-40 -1.23915e-97 -1.23915e-97
7.25429e-42 -5.12631e-96 -5.12631e-96
2.41425e-43 -2.0461e-94 -2.0461e-94
7.8135e-45 -7.85604e-93 -7.85604e-93
2.46105e-46 -2.8913e-91 -2.8913e-91
7.54959e-48 -1.01562e-89 -1.01562e-89
2.25712e-49 -3.38709e-88 -3.38709e-88
6.58106e-51 -1.06538e-86 -1.06538e-86
1.87249e-52 -3.13397e-85 -3.13397e-85
5.20211e-54 -8.52622e-84 -8.52622e-84
1.41195e-55 -2.11314e-82 -2.11314e-82
3.74605e-57 -4.66999e-81 -4.66999e-81
9.71992e-59 -8.9128e-80 -8.9128e-80
2.46773e-60 -1.39484e-78 -1.39484e-78
6.1332e-62 -1.62846e-77 -1.62846e-77
1.52842e-63 -1.14417e-76 -1.14417e-76
1.52233e-63 -1.98462e-76 -1.98462e-76
0.0196 -2.89055e-163 -7.85879e-160
0.0223475 -4.28751e-159 9.51547e-156
0.0235224 -2.98048e-157 -9.97341e-154
0.0179358 -5.67131e-155 9.75667e-152
0.00682889 -5.53801e-153 -1.21272e-149
0.00115377 -1.94171e-151 -8.07156e-149
6.13068e-05 -1.88689e-151 -5.18772e-145
0 0 -5.18703e-145
0 0 0
0 0 1.08077e-140
4.99668e-12 -1.10394e-138 -1.09462e-138
2.43883e-12 -7.82515e-137 -7.8253e-137
4.62904e-13 -5.32272e-135 -5.32272e-135
6.23152e-14 -3.56846e-133 -3.56846e-133
6.86639e-15 -2.3577e-131 -2.3577e-131
6.57126e-16 -1.53469e-129 -1.53469e-129
5.63421e-17 -9.83866e-128 -9.83866e-128
4.40964e-18 -6.20981e-126 -6.20981e-126
3.18969e-19 -3.85732e-124 -3.85732e-124
2.15133e-20 -2.35714e-122 -2.35714e-122
1.36197e-21 -1.41642e-120 -1.41642e-120
8.13565e-23 -8.36569e-119 -8.36569e-119
4.60479e-24 -4.85404e-117 -4.85404e-117
2.47825e-25 -2.76543e-115 -2.76543e-115
1.27201e-26 -1.54607e-113 -1.54607e-113
6.24251e-28 -8.47671e-112 -8.47671e-112
2.93585e-29 -4.55466e-110 -4.55466e-110
1.3258e-30 -2.39656e-108 -2.39656e-108
5.75932e-32 -1.23384e-106 -1.23384e-106
2.41052e-33 -6.20959e-105 -6.20959e-105
9.7349e-35 -3.05179e-103 -3.05179e-103
3.79854e-36 -1.46294e-101 -1.46294e-101
1.43384e-37 -6.83137e-100 -6.83137e-100
5.24179e-39 -3.10278e-98 -3.10278e-98
1.85784e-40 -1.36839e-96 -1.36839e-96
6.39017e-42 -5.84823e-95 -5.84823e-95
2.13497e-43 -2.41649e-93 -2.41649e-93
6.93451e-45 -9.62719e-92 -9.62719e-92
2.19148e-46 -3.68589e-90 -3.68589e-90
6.74345e-48 -1.35077e-88 -1.35077e-88
2.02191e-49 -4.715e-87 -4.715e-87
5.91113e-51 -1.55795e-85 -1.55795e-85
1.6861e-52 -4.83439e-84 -4.83439e-84
4.69533e-54 -1.39405e-82 -1.39405e-82
1.27722e-55 -3.6823e-81 -3.6823e-81
3.39564e-57 -8.72894e-80 -8.72894e-80
8.82797e-59 -1.80038e-78 -1.80038e-78
2.24542e-60 -3.07137e-77 -3.07137e-77
5.59044e-62 -3.94561e-76 -3.94561e-76
1.39552e-63 -3.06845e-75 -3.06845e-75
1.38996e-63 -5.39448e-75 -5.39448e-75
0.018 -1.07646e-161 -1.23941e-159
0.0206075 -2.39559e-157 1.22881e-155
0.0206922 -2.72279e-155 -9.32006e-154
0.0141306 -3.83633e-153 4.71043e-152
0.00491374 -3.09341e-151 2.89453e-149
0.000906993 -1.51663e-149 4.98278e-148
0.00010666 -4.85621e-148 2.10967e-147
4.39019e-06 -4.7076e-148 4.09773e-143
0 0 4.09757e-143
0 0 0
0 -6.02472e-138 -6.00878e-138
1.69784e-11 -4.26385e-136 -4.26368e-136
2.76104e-12 -2.93466e-134 -2.93466e-134
3.18791e-13 -1.99199e-132 -1.99199e-132
3.10074e-14 -1.33314e-130 -1.33314e-130
2.68339e-15 -8.79416e-129 -8.79416e-129
2.11906e-16 -5.71631e-127 -5.71631e-127
1.54902e-17 -3.66015e-125 -3.66015e-125
1.05786e-18 -2.30778e-123 -2.30778e-123
6.79348e-20 -1.43234e-121 -1.43234e-121
4.12279e-21 -8.74742e-120 -8.74742e-120
2.37372e-22 -5.25435e-118 -5.25435e-118
1.30081e-23 -3.1029e-116 -3.1029e-116
6.80346e-25 -1.80058e-114 -1.80058e-114
3.4042e-26 -1.02619e-112 -1.02619e-112
1.63296e-27 -5.74074e-111 -5.74074e-111
7.5235e-29 -3.15034e-109 -3.15034e-109
3.33488e-30 -1.69474e-107 -1.69474e-107
1.42436e-31 -8.93046e-106 -8.93046e-106
5.87007e-33 -4.60585e-104 -4.60585e-104
2.33727e-34 -2.32277e-102 -2.32277e-102
9.00184e-36 -1.14421e-100 -1.14421e-100
3.3573e-37 -5.49921e-99 -5.49921e-99
1.21375e-38 -2.57515e-97 -2.57515e-97
4.25765e-40 -1.17312e-95 -1.17312e-95
1.45043e-41 -5.18972e-94 -5.18972e-94
4.80263e-43 -2.22482e-92 -2.22482e-92
1.5469e-44 -9.21978e-91 -9.21978e-91
4.85031e-46 -3.68236e-89 -3.68236e-89
1.48153e-47 -1.41234e-87 -1.41234e-87
4.41143e-49 -5.17853e-86 -5.17853e-86
1.2813e-50 -1.80497e-84 -1.80497e-84
3.63234e-52 -5.93666e-83 -5.93666e-83
1.00563e-53 -1.8247e-81 -1.8247e-81
2.72047e-55 -5.17119e-80 -5.17119e-80
7.19498e-57 -1.32541e-78 -1.32541e-78
1.86129e-58 -2.98313e-77 -2.98313e-77
4.712e-60 -5.61473e-76 -5.61473e-76
1.1679e-61 -8.05872e-75 -8.05872e-75
2.90268e-63 -7.07344e-74 -7.07344e-74
2.89134e-63 -1.26158e-73 -1.26158e-73
0.0148 -5.82054e-160 4.00579e-160
0.0165879 -1.44005e-155 -6.60583e-156
0.0147851 -1.59698e-153 5.51265e-154
0.00837419 -1.56225e-151 -6.03106e-151
0.00255041 -1.1674e-149 -3.47829e-149
0.000472642 -7.13272e-148 -1.04627e-147
6.67714e-05 -3.70573e-146 -3.98929e-146
7.14435e-06 -1.42535e-144 -1.43896e-144
2.56381e-07 -1.389e-144 -3.16729e-141
2.30041e-08 0 -2.3693e-139
2.15253e-09 -2.21002e-137 -2.23337e-137
2.07804e-10 -1.58223e-135 -1.58223e-135
1.87826e-11 -1.10231e-133 -1.10231e-133
1.59292e-12 -7.57721e-132 -7.57721e-132
1.27052e-13 -5.13782e-130 -5.13782e-130
9.55348e-15 -3.43558e-128 -3.43558e-128
6.78869e-16 -2.26493e-126 -2.26493e-126
4.5696e-17 -1.47169e-124 -1.47169e-124
2.92026e-18 -9.42223e-123 -9.42223e-123
1.77563e-19 -5.94188e-121 -5.94188e-121
1.02934e-20 -3.68957e-119 -3.68957e-119
5.69996e-22 -2.25501e-117 -2.25501e-117
3.02046e-23 -1.35603e-115 -1.35603e-115
1.53425e-24 -8.01961e-114 -8.01961e-114
7.48213e-26 -4.66225e-112 -4.66225e-112
3.50838e-27 -2.66306e-110 -2.66306e-110