# vtk DataFile Version 2.0
Tobias Weinzierl: CPU, Manycore and Cluster Computing
ASCII

DATASET STRUCTURED_POINTS
DIMENSIONS  51 11 6

ORIGIN 0 0 0 

SPACING 0.1 0.1 0.1 

POINT_DATA 3366

VECTORS velocity float
0 0 0
1.77554e-09 0 0
5.41898e-09 0 0
1.09724e-08 0 0
1.52871e-08 0 0
1.09152e-08 0 0
4.67438e-09 0 0
1.4362e-09 0 0
3.55937e-10 0 0
7.59352e-11 0 0
1.44789e-11 0 0
2.52607e-12 0 0
4.09586e-13 0 0
6.23821e-14 0 0
8.99034e-15 0 0
1.23217e-15 0 0
1.61145e-16 0 0
2.0157e-17 0 0
2.41543e-18 0 0
2.77621e-19 0 0
3.06355e-20 0 0
3.24857e-21 0 0
3.313e-22 0 0
3.25218e-23 0 0
3.07553e-24 0 0
2.80436e-25 0 0
2.46771e-26 0 0
2.09738e-27 0 0
1.72331e-28 0 0
1.37001e-29 0 0
1.05469e-30 0 0
7.86899e-32 0 0
5.69455e-33 0 0
4.00017e-34 0 0
2.72963e-35 0 0
1.81071e-36 0 0
1.16846e-37 0 0
7.33988e-39 0 0
4.49114e-40 0 0
2.67846e-41 0 0
1.55787e-42 0 0
8.84183e-44 0 0
4.89957e-45 0 0
2.65221e-46 0 0
1.40317e-47 0 0
7.25901e-49 0 0
3.67377e-50 0 0
1.81975e-51 0 0
8.82686e-53 0 0
4.38844e-54 0 0
2.32645e-51 0 0
0 -5.08713e-135 0
4.32727e-09 -2.04954e-133 0
1.57357e-08 -1.04185e-131 0
3.59474e-08 -5.13222e-130 0
6.14875e-08 -2.29513e-128 0
4.65646e-08 -8.49228e-127 0
1.97462e-08 -1.88033e-125 0
5.86804e-09 -1.70637e-125 0
1.40877e-09 -5.84372e-124 0
2.92961e-10 -2.03449e-122 0
5.47561e-11 -6.94945e-121 0
9.40496e-12 -2.3363e-119 0
1.50633e-12 -7.73133e-118 0
2.27221e-13 -2.51762e-116 0
3.25016e-14 -8.06427e-115 0
4.4289e-15 -2.5398e-113 0
5.76706e-16 -7.8614e-112 0
7.19061e-17 -2.39035e-110 0
8.59666e-18 -7.13611e-109 0
9.86473e-19 -2.09058e-107 0
1.0874e-19 -6.00655e-106 0
1.1523e-20 -1.69146e-104 0
1.17472e-21 -4.66534e-103 0
1.15299e-22 -1.25942e-101 0
1.09038e-23 -3.3249e-100 0
9.94384e-25 -8.57688e-99 0
8.75207e-26 -2.15977e-97 0
7.44076e-27 -5.30349e-96 0
6.11566e-28 -1.2685e-94 0
4.86356e-29 -2.95146e-93 0
3.74551e-30 -6.67092e-92 0
2.79555e-31 -1.46232e-90 0
2.02381e-32 -3.10336e-89 0
1.42216e-33 -6.36313e-88 0
9.70807e-35 -1.25763e-86 0
6.44216e-36 -2.38957e-85 0
4.15861e-37 -4.35145e-84 0
2.6132e-38 -7.56711e-83 0
1.5995e-39 -1.25128e-81 0
9.54222e-41 -1.95745e-80 0
5.55175e-42 -2.8791e-79 0
3.15189e-43 -3.9513e-78 0
1.74708e-44 -5.01174e-77 0
9.45984e-46 -5.80327e-76 0
5.00614e-47 -6.03612e-75 0
2.5905e-48 -5.51625e-74 0
1.31138e-49 -4.29172e-73 0
6.49729e-51 -2.7101e-72 0
3.15231e-52 -1.2842e-71 0
1.5676e-53 -3.94983e-71 0
8.30701e-51 -2.54897e-68 0
0 -2.79082e-134 0
3.15597e-09 -1.11364e-132 0
1.92042e-08 -6.95017e-131 0
4.27863e-08 -4.54816e-129 0
1.09399e-07 -2.89081e-127 0
8.51929e-08 -1.75716e-125 0
3.52537e-08 -7.47179e-124 0
9.99498e-09 -1.15114e-124 0
2.32131e-09 -3.98766e-123 0
4.71581e-10 -1.42506e-121 0
8.66899e-11 -4.92368e-120 0
1.47139e-11 -1.67154e-118 0
2.33673e-12 -5.58655e-117 0
3.50412e-13 -1.8379e-115 0
4.99288e-14 -5.94959e-114 0
6.78795e-15 -1.89438e-112 0
8.82919e-16 -5.93032e-111 0
1.10066e-16 -1.82441e-109 0
1.31655e-17 -5.51298e-108 0
1.51223e-18 -1.63549e-106 0
1.66912e-19 -4.76062e-105 0
1.77141e-20 -1.35885e-103 0
1.80883e-21 -3.80095e-102 0
1.77836e-22 -1.04116e-100 0
1.68466e-23 -2.79073e-99 0
1.53892e-24 -7.31355e-98 0
1.3567e-25 -1.87221e-96 0
1.15526e-26 -4.67695e-95 0
9.50969e-28 -1.13886e-93 0
7.57375e-29 -2.69987e-92 0
5.84081e-30 -6.22287e-91 0
4.36522e-31 -1.39234e-89 0
3.16415e-32 -3.01896e-88 0
2.22618e-33 -6.3311e-87 0
1.52139e-34 -1.28126e-85 0
1.01068e-35 -2.49584e-84 0
6.53097e-37 -4.66574e-83 0
4.108e-38 -8.34123e-82 0
2.5168e-39 -1.42019e-80 0
1.50281e-40 -2.29147e-79 0
8.75095e-42 -3.48268e-78 0
4.97223e-43 -4.9489e-77 0
2.75823e-44 -6.51364e-76 0
1.4946e-45 -7.84533e-75 0
7.91504e-47 -8.50981e-74 0
4.09854e-48 -8.13237e-73 0
2.07614e-49 -6.63465e-72 0
1.02928e-50 -4.40403e-71 0
4.99679e-52 -2.19591e-70 0
2.48632e-53 -7.07365e-70 0
1.31498e-50 -4.70834e-67 0
0 -2.05852e-135 0
-3.03381e-09 -8.29682e-134 0
1.83799e-08 -4.02092e-132 0
2.09548e-08 -1.87977e-130 0
1.18326e-07 -6.33404e-129 0
4.95435e-08 -6.15e-129 0
2.01818e-08 0 0
5.56315e-09 2.98734e-122 0
1.48532e-09 -2.12055e-122 0
3.28539e-10 -8.6062e-121 0
6.40361e-11 -3.04421e-119 0
1.13504e-11 -1.04532e-117 0
1.86449e-12 -3.53028e-116 0
2.87335e-13 -1.174e-114 0
4.18802e-14 -3.84301e-113 0
5.80414e-15 -1.23781e-111 0
7.67518e-16 -3.92141e-110 0
9.7062e-17 -1.22136e-108 0
1.17566e-17 -3.7382e-107 0
1.36544e-18 -1.12378e-105 0
1.52197e-19 -3.3164e-104 0
1.62945e-20 -9.60228e-103 0
1.67697e-21 -2.72605e-101 0
1.66041e-22 -7.58323e-100 0
1.583e-23 -2.06547e-98 0
1.45447e-24 -5.50408e-97 0
1.28905e-25 -1.43375e-95 0
1.10297e-26 -3.64727e-94 0
9.11977e-28 -9.05133e-93 0
7.29303e-29 -2.18875e-91 0
5.64567e-30 -5.15056e-90 0
4.23424e-31 -1.17774e-88 0
3.07925e-32 -2.61254e-87 0
2.17305e-33 -5.61155e-86 0
1.48932e-34 -1.1646e-84 0
9.92011e-36 -2.32956e-83 0
6.42643e-37 -4.4784e-82 0
4.05177e-38 -8.24637e-81 0
2.48786e-39 -1.44863e-79 0
1.48864e-40 -2.4161e-78 0
8.68563e-42 -3.80361e-77 0
4.94437e-43 -5.61111e-76 0
2.74766e-44 -7.68588e-75 0
1.49138e-45 -9.66016e-74 0
7.9107e-47 -1.09667e-72 0
4.10256e-48 -1.10035e-71 0
2.08121e-49 -9.45607e-71 0
1.03323e-50 -6.63202e-70 0
5.02261e-52 -3.49968e-69 0
2.50248e-53 -1.18782e-68 0
1.31633e-50 -8.167e-66 0
0 -9.89978e-137 0
-1.10635e-08 -4.03022e-135 0
1.73502e-08 -1.59479e-133 0
1.94458e-09 -5.90887e-132 0
8.97703e-08 -1.39384e-130 0
0 -1.3363e-130 0
0 0 0
0 0 0
2.16845e-10 -1.26722e-120 0
8.47995e-11 -4.09181e-120 0
2.15437e-11 -1.62302e-118 0
4.49246e-12 -5.68637e-117 0
8.26327e-13 -1.94108e-115 0
1.38583e-13 -6.52677e-114 0
2.15799e-14 -2.16104e-112 0
3.15421e-15 -7.04339e-111 0
4.35727e-16 -2.25884e-109 0
5.71454e-17 -7.12523e-108 0
7.13735e-18 -2.20968e-106 0
8.5088e-19 -6.73402e-105 0
9.69948e-20 -2.01565e-103 0
1.05884e-20 -5.92268e-102 0
1.10838e-21 -1.70737e-100 0
1.11397e-22 -4.82581e-99 0
1.07622e-23 -1.33643e-97 0
1.0006e-24 -3.62349e-96 0
8.96267e-26 -9.61078e-95 0
7.74284e-27 -2.49142e-93 0
6.45803e-28 -6.30606e-92 0
5.20562e-29 -1.55672e-90 0
4.05919e-30 -3.7434e-89 0
3.06481e-31 -8.75631e-88 0
2.24261e-32 -1.98928e-86 0
1.5917e-33 -4.3814e-85 0
1.09669e-34 -9.33661e-84 0
7.34111e-36 -1.92044e-82 0
4.77772e-37 -3.80236e-81 0
3.02534e-38 -7.22353e-80 0
1.86517e-39 -1.31166e-78 0
1.12031e-40 -2.266e-77 0
6.56011e-42 -3.70352e-76 0
3.74709e-43 -5.68638e-75 0
2.089e-44 -8.12938e-74 0
1.13733e-45 -1.0697e-72 0
6.05009e-47 -1.27567e-71 0
3.14623e-48 -1.34954e-70 0
1.60022e-49 -1.22761e-69 0
7.96409e-51 -9.1484e-69 0
3.88058e-52 -5.1424e-68 0
1.93802e-53 -1.85198e-67 0
1.00912e-50 -1.31726e-64 0
0 -2.0547e-137 0
-1.34529e-08 -8.37912e-136 0
1.11093e-08 -2.71633e-134 0
5.96586e-09 -8.14283e-133 0
5.56097e-08 -1.72087e-131 0
4.28104e-08 -1.64208e-131 0
0 0 0
0 0 0
0 0 0
1.08163e-11 4.82234e-119 0
4.43625e-12 -6.76915e-118 0
1.18906e-12 -2.62247e-116 0
2.59854e-13 -9.05105e-115 0
4.96005e-14 -3.07786e-113 0
8.54654e-15 -1.03105e-111 0
1.35479e-15 -3.40134e-110 0
1.99952e-16 -1.10457e-108 0
2.76969e-17 -3.52981e-107 0
3.62102e-18 -1.10953e-105 0
4.48669e-19 -3.42901e-104 0
5.28577e-20 -1.04144e-102 0
5.93613e-21 -3.10683e-101 0
6.36886e-22 -9.09865e-100 0
6.54052e-23 -2.61431e-98 0
6.44018e-24 -7.36507e-97 0
6.08972e-25 -2.03297e-95 0
5.53778e-26 -5.49394e-94 0
4.84951e-27 -1.45234e-92 0
4.09477e-28 -3.75211e-91 0
3.33769e-29 -9.46357e-90 0
2.62925e-30 -2.32756e-88 0
2.00376e-31 -5.57503e-87 0
1.47883e-32 -1.29853e-85 0
1.05795e-33 -2.93622e-84 0
7.34289e-35 -6.43305e-83 0
4.94878e-36 -1.36262e-81 0
3.24121e-37 -2.78311e-80 0
2.06456e-38 -5.46459e-79 0
1.27989e-39 -1.02771e-77 0
7.7276e-41 -1.84314e-76 0
4.54707e-42 -3.13525e-75 0
2.60919e-43 -5.02442e-74 0
1.46092e-44 -7.52097e-73 0
7.98633e-46 -1.03986e-71 0
4.26483e-47 -1.30815e-70 0
2.22597e-48 -1.46623e-69 0
1.13611e-49 -1.4198e-68 0
5.67295e-51 -1.13172e-67 0
2.77289e-52 -6.82933e-67 0
1.38915e-53 -2.63241e-66 0
7.14893e-51 -1.94006e-63 0
0 -4.41588e-136 0
-9.35766e-09 -1.78067e-134 0
6.08244e-09 -6.31216e-133 0
1.92715e-08 -2.13714e-131 0
4.12197e-08 -6.24914e-130 0
1.40418e-07 -1.29817e-128 0
8.09925e-08 -1.23775e-128 0
0 0 0
0 0 0
0 0 0
5.15954e-13 -2.64767e-117 0
4.47392e-13 -9.87768e-116 0
1.42104e-13 -3.44899e-114 0
3.23344e-14 -1.18633e-112 0
6.1243e-15 -4.02145e-111 0
1.02586e-15 -1.34303e-109 0
1.56672e-16 -4.4174e-108 0
2.21944e-17 -1.43045e-106 0
2.94731e-18 -4.55864e-105 0
3.69424e-19 -1.42915e-103 0
4.39142e-20 -4.40568e-102 0
4.96801e-21 -1.33485e-100 0
5.36338e-22 -3.97298e-99 0
5.53786e-23 -1.16099e-97 0
5.47926e-24 -3.32893e-96 0
5.2037e-25 -9.35976e-95 0
4.7509e-26 -2.57868e-93 0
4.17563e-27 -6.95606e-92 0
3.53768e-28 -1.83562e-90 0
2.89262e-29 -4.73412e-89 0
2.28528e-30 -1.19196e-87 0
1.74635e-31 -2.92636e-86 0
1.29212e-32 -6.99582e-85 0
9.26572e-34 -1.62599e-83 0
6.44539e-35 -3.66765e-82 0
4.353e-36 -8.01207e-81 0
2.85662e-37 -1.69097e-79 0
1.82296e-38 -3.43809e-78 0
1.1321e-39 -6.71116e-77 0
6.84663e-41 -1.25249e-75 0
4.03501e-42 -2.22348e-74 0
2.3188e-43 -3.73068e-73 0
1.30017e-44 -5.868e-72 0
7.11705e-46 -8.56002e-71 0
3.80547e-47 -1.1414e-69 0
1.98863e-48 -1.36304e-68 0
1.01614e-49 -1.41435e-67 0
5.07954e-51 -1.21544e-66 0
2.48546e-52 -7.94883e-66 0
1.24646e-53 -3.3152e-65 0
6.41969e-51 -2.53608e-62 0
0 -1.00869e-134 0
-4.15456e-09 -4.03045e-133 0
7.90061e-09 -1.54837e-131 0
2.49218e-08 -5.70087e-130 0
5.62467e-08 -1.91371e-128 0
2.1035e-07 -5.37492e-127 0
1.94067e-07 -1.01696e-125 0
3.2259e-08 -9.65067e-126 0
0 0 0
0 0 0
0 -7.81318e-117 0
1.94881e-12 -2.87408e-115 0
5.18078e-13 -1.01396e-113 0
9.90141e-14 -3.52782e-112 0
1.62163e-14 -1.21016e-110 0
2.40907e-15 -4.09167e-109 0
3.33074e-16 -1.36317e-107 0
4.34356e-17 -4.4735e-106 0
5.38314e-18 -1.44557e-104 0
6.36849e-19 -4.59794e-103 0
7.21177e-20 -1.43895e-101 0
7.83155e-21 -4.42893e-100 0
8.16656e-22 -1.34005e-98 0
8.18651e-23 -3.98377e-97 0
7.89694e-24 -1.16301e-95 0
7.33723e-25 -3.33216e-94 0
6.57239e-26 -9.36358e-93 0
5.68108e-27 -2.57882e-91 0
4.743e-28 -6.95532e-90 0
3.82809e-29 -1.83548e-88 0
2.98952e-30 -4.73471e-87 0
2.26094e-31 -1.19252e-85 0
1.65733e-32 -2.92903e-84 0
1.17847e-33 -7.00565e-83 0
8.13506e-35 -1.62902e-81 0
5.45589e-36 -3.67563e-80 0
3.55756e-37 -8.0296e-79 0
2.25697e-38 -1.69382e-77 0
1.39406e-39 -3.43935e-76 0
8.38885e-41 -6.6965e-75 0
4.92104e-42 -1.24428e-73 0
2.81583e-43 -2.19324e-72 0
1.57253e-44 -3.63924e-71 0
8.57577e-46 -5.62707e-70 0
4.56941e-47 -7.99634e-69 0
2.38e-48 -1.02402e-67 0
1.21238e-49 -1.14758e-66 0
6.04291e-51 -1.07341e-65 0
2.94876e-52 -7.69771e-65 0
1.47483e-53 -3.52272e-64 0
7.71493e-51 -2.80263e-61 0
0 -1.78751e-133 0
1.30966e-10 -7.08037e-132 0
1.0364e-08 -2.89703e-130 0
2.85675e-08 -1.13321e-128 0
8.32763e-08 -4.18723e-127 0
1.96995e-07 -1.40557e-125 0
1.79499e-07 -4.00082e-124 0
5.60959e-08 -8.19029e-123 0
3.96461e-09 -7.80386e-123 0
5.86947e-10 0 0
9.11129e-11 -1.56646e-116 0
1.49538e-11 -5.81899e-115 0
2.25763e-12 -2.07502e-113 0
3.19648e-13 -7.30033e-112 0
4.29694e-14 -2.53343e-110 0
5.52827e-15 -8.66971e-109 0
6.84124e-16 -2.92489e-107 0
8.1668e-17 -9.7251e-106 0
9.4182e-18 -3.18582e-104 0
1.04982e-18 -1.02788e-102 0
1.13112e-19 -3.26515e-101 0
1.17785e-20 -1.02079e-99 0
1.18517e-21 -3.13946e-98 0
1.15229e-22 -9.49448e-97 0
1.08256e-23 -2.82208e-95 0
9.83001e-25 -8.23987e-94 0
8.63001e-26 -2.36195e-92 0
7.3286e-27 -6.64269e-91 0
6.02303e-28 -1.83161e-89 0
4.79348e-29 -4.94767e-88 0
3.69661e-30 -1.30817e-86 0
2.76415e-31 -3.38217e-85 0
2.00547e-32 -8.54105e-84 0
1.41274e-33 -2.10406e-82 0
9.66924e-35 -5.04896e-81 0
6.43417e-36 -1.17815e-79 0
4.1653e-37 -2.66798e-78 0
2.62499e-38 -5.84953e-77 0
1.61141e-39 -1.23815e-75 0
9.64137e-41 -2.5213e-74 0
5.62572e-42 -4.91807e-73 0
3.20307e-43 -9.13921e-72 0
1.78049e-44 -1.60654e-70 0
9.6676e-46 -2.64637e-69 0
5.13011e-47 -4.03248e-68 0
2.66177e-48 -5.57955e-67 0
1.351e-49 -6.81593e-66 0
6.71076e-51 -7.02059e-65 0
3.26404e-52 -5.60317e-64 0
1.6273e-53 -2.86621e-63 0
8.63579e-51 -2.37657e-60 0
0 -1.837e-132 0
1.8937e-09 -7.2175e-131 0
8.84313e-09 -3.05486e-129 0
2.56497e-08 -1.24933e-127 0
6.86176e-08 -5.05345e-126 0
1.117e-07 -2.02169e-124 0
8.49823e-08 -7.99953e-123 0
3.07437e-08 -3.13083e-121 0
5.52677e-09 -1.21198e-119 0
8.68851e-10 -4.64023e-118 0
1.3665e-10 -1.75568e-116 0
2.00089e-11 -6.40677e-115 0
2.76618e-12 -2.30661e-113 0
3.64708e-13 -8.19683e-112 0
4.61935e-14 -2.87446e-110 0
5.64907e-15 -9.94493e-109 0
6.69153e-16 -3.39371e-107 0
7.69068e-17 -1.14198e-105 0
8.5813e-18 -3.78824e-104 0
9.2946e-19 -1.23845e-102 0
9.76717e-20 -3.98879e-101 0
9.95135e-21 -1.26527e-99 0
9.82439e-22 -3.95135e-98 0
9.39373e-23 -1.21439e-96 0
8.69681e-24 -3.67144e-95 0
7.79534e-25 -1.09139e-93 0
6.76554e-26 -3.18841e-92 0
5.68676e-27 -9.1491e-91 0
4.63102e-28 -2.57708e-89 0
3.65535e-29 -7.12085e-88 0
2.79799e-30 -1.92869e-86 0
2.0781e-31 -5.11629e-85 0
1.49846e-32 -1.32798e-83 0
1.04965e-33 -3.36897e-82 0
7.14706e-35 -8.34306e-81 0
4.73324e-36 -2.0139e-79 0
3.05071e-37 -4.73028e-78 0
1.91476e-38 -1.07889e-76 0
1.17097e-39 -2.3836e-75 0
6.9815e-41 -5.08549e-74 0
4.0603e-42 -1.04382e-72 0
2.30467e-43 -2.05123e-71 0
1.2774e-44 -3.835e-70 0
6.91719e-46 -6.76409e-69 0
3.66124e-47 -1.11238e-67 0
1.89508e-48 -1.67686e-66 0
9.59673e-50 -2.25716e-65 0
4.75672e-51 -2.5968e-64 0
2.30891e-52 -2.35076e-63 0
1.1488e-53 -1.37864e-62 0
6.14695e-51 -1.19409e-59 0
0 0 0
9.38387e-10 0 0
3.54876e-09 0 0
9.89721e-09 0 0
2.13349e-08 0 0
2.74481e-08 0 0
1.85572e-08 0 0
6.9068e-09 0 0
1.56216e-09 0 0
2.81903e-10 0 0
4.55375e-11 0 0
6.76859e-12 0 0
9.42553e-13 0 0
1.24519e-13 0 0
1.57453e-14 0 0
1.91752e-15 0 0
2.25816e-16 0 0
2.57761e-17 0 0
2.855e-18 0 0
3.06918e-19 0 0
3.20154e-20 0 0
3.23895e-21 0 0
3.17643e-22 0 0
3.01845e-23 0 0
2.7786e-24 0 0
2.47755e-25 0 0
2.13994e-26 0 0
1.79082e-27 0 0
1.45249e-28 0 0
1.14225e-29 0 0
8.71372e-31 0 0
6.45162e-32 0 0
4.63873e-33 0 0
3.24074e-34 0 0
2.2012e-35 0 0
1.45445e-36 0 0
9.3545e-38 0 0
5.85967e-39 0 0
3.57689e-40 0 0
2.12891e-41 0 0
1.23613e-42 0 0
7.00574e-44 0 0
3.87749e-45 0 0
2.09685e-46 0 0
1.10844e-47 0 0
5.73048e-49 0 0
2.89863e-50 0 0
1.43519e-51 0 0
6.95927e-53 0 0
3.45909e-54 0 0
1.85825e-51 0 0
0 0 -7.73964e-136
4.64383e-09 0 -3.09661e-134
1.63314e-08 0 -1.57504e-132
3.65916e-08 0 -7.6073e-131
5.81741e-08 0 -3.26642e-129
4.49218e-08 0 -1.10982e-127
1.95226e-08 0 -2.10415e-126
5.92092e-09 0 -9.3755e-126
1.44158e-09 0 -3.27075e-124
3.02718e-10 0 -1.13335e-122
5.69691e-11 0 -3.86239e-121
9.83216e-12 0 -1.29583e-119
1.57991e-12 0 -4.27933e-118
2.38818e-13 0 -1.39058e-116
3.4201e-14 0 -4.44459e-115
4.66276e-15 0 -1.39671e-113
6.07144e-16 0 -4.31344e-112
7.56712e-17 0 -1.30852e-110
9.0409e-18 0 -3.89718e-109
1.0366e-18 0 -1.13894e-107
1.14161e-19 0 -3.26422e-106
1.20857e-20 0 -9.16875e-105
1.23087e-21 0 -2.52231e-103
1.20692e-22 0 -6.79085e-102
1.14031e-23 0 -1.78789e-100
1.03896e-24 0 -4.59906e-99
9.13631e-26 0 -1.15477e-97
7.76091e-27 0 -2.82725e-96
6.3737e-28 0 -6.74177e-95
5.06493e-29 0 -1.56375e-93
3.8978e-30 0 -3.52313e-92
2.90724e-31 0 -7.6977e-91
2.10331e-32 0 -1.62812e-89
1.47713e-33 0 -3.32676e-88
1.00775e-34 0 -6.55177e-87
6.68366e-36 0 -1.24034e-85
4.31227e-37 0 -2.25023e-84
2.70842e-38 0 -3.89806e-83
1.65701e-39 0 -6.42026e-82
9.88094e-41 0 -1.00028e-80
5.74639e-42 0 -1.46512e-79
3.26108e-43 0 -2.00214e-78
1.80691e-44 0 -2.52832e-77
9.78021e-46 0 -2.91444e-76
5.17388e-47 0 -3.01741e-75
2.6764e-48 0 -2.74457e-74
1.35443e-49 0 -2.12515e-73
6.70853e-51 0 -1.33558e-72
3.25384e-52 0 -6.29957e-72
1.61761e-53 0 -1.92992e-71
8.58469e-51 0 -1.24203e-68
0.0036 -5.21893e-135 -1.06037e-135
0.00498033 -5.74975e-131 -1.78344e-131
0.00497807 -3.33801e-129 -1.60615e-129
0.00434758 -2.24613e-127 -1.43341e-127
0.00325026 -1.52953e-125 -1.14106e-125
0.00145192 -1.06465e-123 -7.42035e-124
0.000432928 -2.66545e-122 -2.15255e-122
0.000100214 -2.30269e-122 -2.29078e-122
1.99536e-05 -7.99412e-121 -7.99499e-121
3.58344e-06 -2.83128e-119 -2.83128e-119
5.94278e-07 -9.83425e-118 -9.8342e-118
9.22816e-08 -3.36258e-116 -3.36257e-116
1.35398e-08 -1.13211e-114 -1.13211e-114
1.88859e-09 -3.75201e-113 -3.75201e-113
2.51466e-10 -1.2236e-111 -1.2236e-111
3.205e-11 -3.92499e-110 -3.92499e-110
3.91721e-12 -1.23788e-108 -1.23788e-108
4.59689e-13 -3.83673e-107 -3.83673e-107
5.18426e-14 -1.16808e-105 -1.16808e-105
5.62297e-15 -3.49134e-104 -3.49134e-104
5.86943e-16 -1.02393e-102 -1.02393e-102
5.90022e-17 -2.94477e-101 -2.94477e-101
5.71587e-18 -8.29941e-100 -8.29941e-100
5.34013e-19 -2.29063e-98 -2.29063e-98
4.81506e-20 -6.18644e-97 -6.18644e-97
4.19342e-21 -1.63359e-95 -1.63359e-95
3.53014e-22 -4.21369e-94 -4.21369e-94
2.87487e-23 -1.06063e-92 -1.06063e-92
2.26667e-24 -2.60235e-91 -2.60235e-91
1.73159e-25 -6.2163e-90 -6.2163e-90
1.28268e-26 -1.44368e-88 -1.44368e-88
9.22016e-28 -3.2547e-87 -3.2547e-87
6.43609e-29 -7.11059e-86 -7.11059e-86
4.36595e-30 -1.50245e-84 -1.50245e-84
2.8801e-31 -3.06354e-83 -3.06354e-83
1.84883e-32 -6.01251e-82 -6.01251e-82
1.15566e-33 -1.1324e-80 -1.1324e-80
7.03835e-35 -2.03954e-79 -2.03954e-79
4.17909e-36 -3.49826e-78 -3.49826e-78
2.42054e-37 -5.68594e-77 -5.68594e-77
1.36837e-38 -8.70478e-76 -8.70478e-76
7.55411e-40 -1.24589e-74 -1.24589e-74
4.07454e-41 -1.65153e-73 -1.65153e-73
2.14833e-42 -2.0032e-72 -2.0032e-72
1.10779e-43 -2.18795e-71 -2.18795e-71
5.58919e-45 -2.10511e-70 -2.10511e-70
2.76035e-46 -1.72878e-69 -1.72878e-69
1.33502e-47 -1.15484e-68 -1.15484e-68
6.32616e-49 -5.7922e-68 -5.7922e-68
3.07117e-50 -1.87496e-67 -1.87496e-67
3.06539e-50 -2.78857e-67 -2.78857e-67
0.01 -2.75086e-134 -3.46336e-136
0.011171 -3.03243e-130 -7.8328e-132
0.0109049 -1.68907e-128 -1.2682e-129
0.00975753 -1.29934e-126 -1.51535e-127
0.00837514 -8.24043e-125 -2.90294e-125
0.00335846 -2.28869e-122 -1.32595e-122
0.000898853 -1.0791e-120 -8.6592e-121
0.000188414 -1.60027e-121 -1.61798e-121
3.50563e-05 -5.54179e-120 -5.55111e-120
6.01548e-06 -2.01463e-118 -2.01507e-118
9.67106e-07 -7.08003e-117 -7.0801e-117
1.46985e-07 -2.44545e-115 -2.44544e-115
2.12474e-08 -8.31818e-114 -8.31818e-114
2.93362e-09 -2.78617e-112 -2.78617e-112
3.87971e-10 -9.18631e-111 -9.18631e-111
4.92367e-11 -2.98032e-109 -2.98032e-109
6.00308e-12 -9.51037e-108 -9.51037e-108
7.0368e-13 -2.9837e-106 -2.9837e-106
7.93458e-14 -9.19888e-105 -9.19888e-105
8.61029e-15 -2.78562e-103 -2.78562e-103
8.99622e-16 -8.28101e-102 -8.28101e-102
9.05468e-17 -2.4153e-100 -2.4153e-100
8.78433e-18 -6.90741e-99 -6.90741e-99
8.2195e-19 -1.93564e-97 -1.93564e-97
7.42308e-20 -5.31105e-96 -5.31105e-96
6.47506e-21 -1.42574e-94 -1.42574e-94
5.45951e-22 -3.74129e-93 -3.74129e-93
4.45298e-23 -9.5876e-92 -9.5876e-92
3.51619e-24 -2.39688e-90 -2.39688e-90
2.69002e-25 -5.83874e-89 -5.83874e-89
1.99542e-26 -1.38408e-87 -1.38408e-87
1.43626e-27 -3.18812e-86 -3.18812e-86
1.00386e-28 -7.12394e-85 -7.12394e-85
6.81801e-30 -1.54135e-83 -1.54135e-83
4.5029e-31 -3.22216e-82 -3.22216e-82
2.89378e-32 -6.49202e-81 -6.49202e-81
1.81075e-33 -1.25705e-79 -1.25705e-79
1.10393e-34 -2.33128e-78 -2.33128e-78
6.56103e-36 -4.1245e-77 -4.1245e-77
3.80368e-37 -6.9277e-76 -6.9277e-76
2.15218e-38 -1.09825e-74 -1.09825e-74
1.18912e-39 -1.63138e-73 -1.63138e-73
6.41907e-41 -2.24991e-72 -2.24991e-72
3.38713e-42 -2.84694e-71 -2.84694e-71
1.74788e-43 -3.25345e-70 -3.25345e-70
8.82493e-45 -3.28559e-69 -3.28559e-69
4.36137e-46 -2.84141e-68 -2.84141e-68
2.11073e-47 -2.00494e-67 -2.00494e-67
1.00082e-48 -1.06399e-66 -1.06399e-66
4.86177e-50 -3.62837e-66 -3.62837e-66
4.8526e-50 -5.47288e-66 -5.47288e-66
0.0148 -1.81251e-135 -6.03497e-135
0.0166271 -2.64364e-131 9.2188e-131
0.0167253 -8.13711e-130 -3.51051e-129
0.0148969 -5.68193e-128 9.34528e-128
0.0153211 -1.58444e-126 -2.66863e-125
0.00220409 -1.52841e-126 -1.25545e-122
0.000559657 0 -8.44939e-121
0.000111298 4.38939e-119 3.41474e-119
2.28595e-05 -2.99653e-119 -3.06506e-119
4.20055e-06 -1.23686e-117 -1.24034e-117
7.10577e-07 -4.45116e-116 -4.45236e-116
1.12357e-07 -1.55558e-114 -1.55558e-114
1.67678e-08 -5.34878e-113 -5.34878e-113
2.37695e-09 -1.81169e-111 -1.81169e-111
3.21424e-10 -6.04269e-110 -6.04269e-110
4.15766e-11 -1.98399e-108 -1.98399e-108
5.15366e-12 -6.4098e-107 -6.4098e-107
6.12918e-13 -2.03687e-105 -2.03687e-105
6.99991e-14 -6.3637e-104 -6.3637e-104
7.68251e-15 -1.95379e-102 -1.95379e-102
8.10831e-16 -5.89178e-101 -5.89178e-101
8.23522e-17 -1.74414e-99 -1.74414e-99
8.05474e-18 -5.06557e-98 -5.06557e-98
7.59261e-19 -1.44248e-96 -1.44248e-96
6.90302e-20 -4.02466e-95 -4.02466e-95
6.0583e-21 -1.0994e-93 -1.0994e-93
5.13675e-22 -2.93787e-92 -2.93787e-92
4.21128e-23 -7.67298e-91 -7.67298e-91
3.3411e-24 -1.95667e-89 -1.95667e-89
2.56727e-25 -4.86638e-88 -4.86638e-88
1.91209e-26 -1.17895e-86 -1.17895e-86
1.38147e-27 -2.77827e-85 -2.77827e-85
9.68955e-29 -6.35864e-84 -6.35864e-84
6.60256e-30 -1.41087e-82 -1.41087e-82
4.37399e-31 -3.0287e-81 -3.0287e-81
2.81903e-32 -6.27545e-80 -6.27545e-80
1.76875e-33 -1.25158e-78 -1.25158e-78
1.08107e-34 -2.39494e-77 -2.39494e-77
6.44059e-36 -4.38009e-76 -4.38009e-76
3.74233e-37 -7.62101e-75 -7.62101e-75
2.12201e-38 -1.25438e-73 -1.25438e-73
1.17484e-39 -1.93943e-72 -1.93943e-72
6.35423e-41 -2.7918e-71 -2.7918e-71
3.35907e-42 -3.69855e-70 -3.69855e-70
1.73643e-43 -4.44017e-69 -4.44017e-69
8.78167e-45 -4.72797e-68 -4.72797e-68
4.34687e-46 -4.32815e-67 -4.32815e-67
2.10689e-47 -3.24511e-66 -3.24511e-66
1.00045e-48 -1.83451e-65 -1.83451e-65
4.86697e-50 -6.63853e-65 -6.63853e-65
4.85775e-50 -1.01682e-64 -1.01682e-64
0.018 -6.48885e-137 -1.20687e-133
0.0202762 -1.61075e-132 1.36242e-129
0.0211695 -2.29552e-131 -6.42344e-128
0.0182267 -1.95235e-129 2.82112e-126
0.0217574 -3.02613e-128 -3.09441e-124
0 -2.83303e-128 -3.12328e-124
0 0 0
0 0 3.42886e-119
2.91825e-06 -1.89151e-117 -1.50239e-117
9.79871e-07 -5.97945e-117 -6.1162e-117
2.21269e-07 -2.41362e-115 -2.41888e-115
4.18114e-08 -8.60945e-114 -8.60948e-114
7.06009e-09 -2.99332e-112 -2.99332e-112
1.09686e-09 -1.02554e-110 -1.02554e-110
1.59241e-10 -3.46136e-109 -3.46136e-109
2.18003e-11 -1.15049e-107 -1.15049e-107
2.83038e-12 -3.76451e-106 -3.76451e-106
3.49813e-13 -1.21214e-104 -1.21214e-104
4.1266e-14 -3.83914e-103 -3.83914e-103
4.65573e-15 -1.19554e-101 -1.19554e-101
5.03193e-16 -3.6588e-100 -3.6588e-100
5.21733e-17 -1.09985e-98 -1.09985e-98
5.19622e-18 -3.24571e-97 -3.24571e-97
4.97706e-19 -9.39742e-96 -9.39742e-96
4.58988e-20 -2.66778e-94 -2.66778e-94
4.07988e-21 -7.4204e-93 -7.4204e-93
3.4992e-22 -2.0207e-91 -2.0207e-91
2.89874e-23 -5.38279e-90 -5.38279e-90
2.32163e-24 -1.40131e-88 -1.40131e-88
1.79941e-25 -3.56144e-87 -3.56144e-87
1.35087e-26 -8.8263e-86 -8.8263e-86
9.83155e-28 -2.13021e-84 -2.13021e-84
6.94252e-29 -4.99939e-83 -4.99939e-83
4.76044e-30 -1.13901e-81 -1.13901e-81
3.17208e-31 -2.5143e-80 -2.5143e-80
2.05554e-32 -5.3656e-79 -5.3656e-79
1.29628e-33 -1.10408e-77 -1.10408e-77
7.96069e-35 -2.18387e-76 -2.18387e-76
4.76392e-36 -4.1373e-75 -4.1373e-75
2.77976e-37 -7.47393e-74 -7.47393e-74
1.58246e-38 -1.28049e-72 -1.28049e-72
8.79406e-40 -2.06663e-71 -2.06663e-71
4.77321e-41 -3.11517e-70 -3.11517e-70
2.53175e-42 -4.33678e-69 -4.33678e-69
1.31292e-43 -5.49259e-68 -5.49259e-68
6.65998e-45 -6.19698e-67 -6.19698e-67
3.30614e-46 -6.03926e-66 -6.03926e-66
1.60685e-47 -4.84359e-65 -4.84359e-65
7.65e-49 -2.93971e-64 -2.93971e-64
3.73122e-50 -1.13869e-63 -1.13869e-63
3.72408e-50 -1.77348e-63 -1.77348e-63
0.0196 -1.70544e-137 3.15213e-134
0.0221387 -2.6948e-133 -2.18834e-130
0.0232835 -6.73297e-132 3.23452e-129
0.0204579 -2.88149e-130 -1.9797e-127
0.0236955 -8.82723e-129 -1.16633e-124
0.00723458 -8.54554e-129 -1.06717e-122
0 0 -1.05553e-122
0 0 0
0 0 -1.47658e-117
1.13956e-07 7.3443e-116 5.17486e-116
4.20673e-08 -1.02405e-114 -1.04522e-114
1.03091e-08 -4.0403e-113 -4.0404e-113
2.08149e-09 -1.42085e-111 -1.42085e-111
3.69915e-10 -4.92523e-110 -4.92523e-110
5.96771e-11 -1.6826e-108 -1.6826e-108
8.89325e-12 -5.6633e-107 -5.6633e-107
1.23767e-12 -1.87736e-105 -1.87736e-105
1.62046e-13 -6.12716e-104 -6.12716e-104
2.00647e-14 -1.96805e-102 -1.96805e-102
2.35882e-15 -6.21872e-101 -6.21872e-101
2.64095e-16 -1.93225e-99 -1.93225e-99
2.82311e-17 -5.90087e-98 -5.90087e-98
2.88755e-18 -1.77027e-96 -1.77027e-96
2.83124e-19 -5.21424e-95 -5.21424e-95
2.66564e-20 -1.50699e-93 -1.50699e-93
2.41358e-21 -4.27086e-92 -4.27086e-92
2.10458e-22 -1.18602e-90 -1.18602e-90
1.76961e-23 -3.22478e-89 -3.22478e-89
1.43655e-24 -8.57745e-88 -8.57745e-88
1.12717e-25 -2.2297e-86 -2.2297e-86
8.55742e-27 -5.65842e-85 -5.65842e-85
6.29241e-28 -1.40015e-83 -1.40015e-83
4.48561e-29 -3.37358e-82 -3.37358e-82
3.10275e-30 -7.90241e-81 -7.90241e-81
2.08428e-31 -1.79639e-79 -1.79639e-79
1.36083e-32 -3.95469e-78 -3.95469e-78
8.64198e-34 -8.41074e-77 -8.41074e-77
5.34199e-35 -1.72314e-75 -1.72314e-75
3.21641e-36 -3.38903e-74 -3.38903e-74
1.88757e-37 -6.37228e-73 -6.37228e-73
1.08036e-38 -1.13961e-71 -1.13961e-71
6.03425e-40 -1.92607e-70 -1.92607e-70
3.29094e-41 -3.0513e-69 -3.0513e-69
1.75344e-42 -4.48258e-68 -4.48258e-68
9.13193e-44 -6.01848e-67 -6.01848e-67
4.65106e-45 -7.23571e-66 -7.23571e-66
2.31775e-46 -7.55728e-65 -7.55728e-65
1.13059e-47 -6.53528e-64 -6.53528e-64
5.40127e-49 -4.29917e-63 -4.29917e-63
2.6435e-50 -1.80209e-62 -1.80209e-62
2.63838e-50 -2.85831e-62 -2.85831e-62
0.0196 -3.91513e-136 2.28816e-134
0.0222963 -5.6079e-132 -1.23002e-130
0.0229694 -2.22743e-130 2.3153e-129
0.021316 -9.43013e-129 2.84725e-127
0.0216125 -3.67781e-127 -1.47781e-125
0.0164433 -1.37306e-125 5.5651e-123
0.00380221 -1.33721e-125 -1.2266e-120
0 0 -1.23218e-120
0 0 0
0 0 5.68006e-116
4.55676e-09 -4.0777e-114 -4.03924e-114
3.60738e-09 -1.54862e-112 -1.54881e-112
1.06982e-09 -5.51191e-111 -5.51191e-111
2.28985e-10 -1.93347e-109 -1.93347e-109
4.09824e-11 -6.68711e-108 -6.68711e-108
6.5053e-12 -2.27969e-106 -2.27969e-106
9.43188e-13 -7.65799e-105 -7.65799e-105
1.27006e-13 -2.53403e-103 -2.53403e-103
1.60475e-14 -8.25683e-102 -8.25683e-102
1.91556e-15 -2.64824e-100 -2.64824e-100
2.1705e-16 -8.3573e-99 -8.3573e-99
2.34286e-17 -2.5939e-97 -2.5939e-97
2.41584e-18 -7.91434e-96 -7.91434e-96
2.38518e-19 -2.37264e-94 -2.37264e-94
2.25921e-20 -6.98501e-93 -6.98501e-93
2.05646e-21 -2.01818e-91 -2.01818e-91
1.80167e-22 -5.71905e-90 -5.71905e-90
1.52137e-23 -1.58836e-88 -1.58836e-88
1.2398e-24 -4.32005e-87 -4.32005e-87
9.7621e-26 -1.14963e-85 -1.14963e-85
7.43522e-27 -2.99042e-84 -2.99042e-84
5.48345e-28 -7.59491e-83 -7.59491e-83
3.91966e-29 -1.88099e-81 -1.88099e-81
2.71815e-30 -4.53629e-80 -4.53629e-80
1.83025e-31 -1.06353e-78 -1.06353e-78
1.1976e-32 -2.41937e-77 -2.41937e-77
7.62105e-34 -5.32826e-76 -5.32826e-76
4.72e-35 -1.13305e-74 -1.13305e-74
2.84706e-36 -2.31909e-73 -2.31909e-73
1.67366e-37 -4.551e-72 -4.551e-72
9.59462e-39 -8.52217e-71 -8.52217e-71
5.36713e-40 -1.51371e-69 -1.51371e-69
2.9313e-41 -2.53067e-68 -2.53067e-68
1.56394e-42 -3.94196e-67 -3.94196e-67
8.15554e-44 -5.64227e-66 -5.64227e-66
4.15885e-45 -7.27651e-65 -7.27651e-65
2.07488e-46 -8.21006e-64 -8.21006e-64
1.01324e-47 -7.72962e-63 -7.72962e-63
4.84576e-49 -5.57707e-62 -5.57707e-62
2.37411e-50 -2.56574e-61 -2.56574e-61
2.36952e-50 -4.15135e-61 -4.15135e-61
0.018 -8.89726e-135 -1.21397e-133
0.0204911 -1.69722e-130 1.33883e-129
0.0206122 -7.78507e-129 -5.85393e-128
0.0194165 -3.52767e-127 2.8502e-126
0.0183623 -1.51827e-125 -1.63847e-124
0.016158 -5.76296e-124 8.55234e-123
0.00734887 -1.41998e-122 4.6081e-121
0.000716756 -1.36383e-122 2.15865e-118
0 0 2.15413e-118
0 0 0
0 -1.22319e-113 -1.21414e-113
1.6744e-08 -4.58432e-112 -4.58341e-112
4.1189e-09 -1.64939e-110 -1.64939e-110
7.35922e-10 -5.85506e-109 -5.85506e-109
1.13467e-10 -2.05023e-107 -2.05023e-107
1.59417e-11 -7.0798e-106 -7.0798e-106
2.09042e-12 -2.41026e-104 -2.41026e-104
2.59005e-13 -8.08728e-103 -8.08728e-103
3.05318e-14 -2.6736e-101 -2.6736e-101
3.43848e-15 -8.70563e-100 -8.70563e-100
3.70946e-16 -2.79096e-98 -2.79096e-98
3.84058e-17 -8.80622e-97 -8.80622e-97
3.82168e-18 -2.73353e-95 -2.73353e-95
3.65937e-19 -8.34377e-94 -8.34377e-94
3.3754e-20 -2.50316e-92 -2.50316e-92
3.00228e-21 -7.37688e-91 -7.37688e-91
2.57754e-22 -2.13432e-89 -2.13432e-89
2.13795e-23 -6.05854e-88 -6.05854e-88
1.71483e-24 -1.68613e-86 -1.68613e-86
1.33126e-25 -4.59715e-85 -4.59715e-85
1.00115e-26 -1.2268e-83 -1.2268e-83
7.29947e-28 -3.20123e-82 -3.20123e-82
5.16401e-29 -8.1589e-81 -8.1589e-81
3.54752e-30 -2.02843e-79 -2.02843e-79
2.36827e-31 -4.91205e-78 -4.91205e-78
1.53751e-32 -1.15663e-76 -1.15663e-76
9.71369e-34 -2.6429e-75 -2.6429e-75
5.97613e-35 -5.84639e-74 -5.84639e-74
3.58263e-36 -1.24844e-72 -1.24844e-72
2.09409e-37 -2.56447e-71 -2.56447e-71
1.19414e-38 -5.04537e-70 -5.04537e-70
6.647e-40 -9.45522e-69 -9.45522e-69
3.61362e-41 -1.6759e-67 -1.6759e-67
1.91969e-42 -2.78308e-66 -2.78308e-66
9.97029e-44 -4.27439e-65 -4.27439e-65
5.06501e-45 -5.95973e-64 -5.95973e-64
2.51796e-46 -7.3343e-63 -7.3343e-63
1.22548e-47 -7.60796e-62 -7.60796e-62
5.84221e-49 -6.11211e-61 -6.11211e-61
2.85337e-50 -3.1445e-60 -3.1445e-60
2.84794e-50 -5.19998e-60 -5.19998e-60
0.0148 -2.45014e-133 4.69158e-135
0.0164954 -5.0181e-129 -1.3128e-130
0.0160144 -2.38011e-127 -7.66766e-129
0.0147643 -1.07262e-125 -1.90174e-126
0.013244 -4.59146e-124 -2.86247e-124
0.0104698 -1.78729e-122 -5.77403e-122
0.00515251 -5.68883e-121 -2.86938e-120
0.00113456 -1.22737e-119 -3.02513e-119
5.68232e-05 -1.17223e-119 -1.03468e-116
7.16078e-06 0 -4.19888e-115
9.65844e-07 -2.49229e-113 -2.53295e-113
1.40225e-07 -9.43695e-112 -9.43689e-112
1.9222e-08 -3.43345e-110 -3.43345e-110
2.51345e-09 -1.23307e-108 -1.23307e-108
3.15589e-10 -4.37029e-107 -4.37029e-107
3.82062e-11 -1.52827e-105 -1.52827e-105
4.47001e-12 -5.27166e-104 -5.27166e-104
5.05959e-13 -1.79323e-102 -1.79323e-102
5.54231e-14 -6.01371e-101 -6.01371e-101
5.8749e-15 -1.98765e-99 -1.98765e-99
6.02481e-16 -6.4727e-98 -6.4727e-98
5.97618e-17 -2.07603e-96 -2.07603e-96
5.73313e-18 -6.55578e-95 -6.55578e-95
5.31933e-19 -2.03745e-93 -2.03745e-93
4.77407e-20 -6.2292e-92 -6.2292e-92
4.14586e-21 -1.87267e-90 -1.87267e-90
3.48502e-22 -5.53292e-89 -5.53292e-89
2.83708e-23 -1.60571e-87 -1.60571e-87
2.23794e-24 -4.57441e-86 -4.57441e-86
1.71155e-25 -1.27838e-84 -1.27838e-84
1.26989e-26 -3.50199e-83 -3.50199e-83
9.14637e-28 -9.39562e-82 -9.39562e-82
6.39906e-29 -2.46645e-80 -2.46645e-80
4.35156e-30 -6.32811e-79 -6.32811e-79
2.87812e-31 -1.58481e-77 -1.58481e-77