# vtk DataFile Version 2.0
Tobias Weinzierl: CPU, Manycore and Cluster Computing
ASCII

DATASET STRUCTURED_POINTS
DIMENSIONS  51 11 6

ORIGIN 0 0 0 

SPACING 0.1 0.1 0.1 

POINT_DATA 3366

VECTORS velocity float
0 0 0
-1.15758e-14 0 0
-2.0505e-10 0 0
-3.92069e-10 0 0
-1.32398e-09 0 0
8.00046e-10 0 0
1.25181e-09 0 0
1.24803e-09 0 0
1.44379e-09 0 0
1.99082e-09 0 0
2.77215e-09 0 0
3.51525e-09 0 0
3.94023e-09 0 0
3.91305e-09 0 0
3.43752e-09 0 0
2.61675e-09 0 0
1.63245e-09 0 0
6.93212e-10 0 0
-7.57594e-11 0 0
-6.87447e-10 0 0
-1.2389e-09 0 0
-1.81849e-09 0 0
-2.45294e-09 0 0
-3.11084e-09 0 0
-3.73581e-09 0 0
-4.27861e-09 0 0
-4.71303e-09 0 0
-5.03645e-09 0 0
-5.26217e-09 0 0
-5.41048e-09 0 0
-5.50235e-09 0 0
-5.55581e-09 0 0
-5.58335e-09 0 0
-5.59294e-09 0 0
-5.59288e-09 0 0
-5.5874e-09 0 0
-5.56681e-09 0 0
-5.51488e-09 0 0
-5.42948e-09 0 0
-5.33217e-09 0 0
-5.25779e-09 0 0
-5.23702e-09 0 0
-5.28495e-09 0 0
-5.39645e-09 0 0
-5.54629e-09 0 0
-5.6968e-09 0 0
-5.81403e-09 0 0
-5.88646e-09 0 0
-5.93144e-09 0 0
-5.97014e-09 0 0
0.00139239 0 0
0 3.90347e-07 0
-1.67301e-14 9.70515e-12 0
-3.06498e-10 -2.20363e-10 0
-2.74192e-10 -6.66797e-11 0
-7.65696e-10 -7.51497e-10 0
2.694e-09 -6.46516e-10 0
3.20409e-09 8.64433e-10 0
3.01413e-09 7.56974e-10 0
3.82683e-09 -3.01968e-10 0
5.73946e-09 -1.51932e-09 0
8.23668e-09 -2.49728e-09 0
1.04871e-08 -2.91924e-09 0
1.17119e-08 -2.57528e-09 0
1.15572e-08 -1.50607e-09 0
1.02363e-08 -1.31537e-10 0
8.28617e-09 9.70584e-10 0
6.1853e-09 1.46384e-09 0
4.18247e-09 1.40803e-09 0
2.29972e-09 1.1025e-09 0
4.31243e-10 8.25438e-10 0
-1.53456e-09 6.92595e-10 0
-3.63164e-09 6.76683e-10 0
-5.7941e-09 6.96653e-10 0
-7.88739e-09 6.88862e-10 0
-9.76666e-09 6.31311e-10 0
-1.13282e-08 5.34309e-10 0
-1.25323e-08 4.20927e-10 0
-1.33964e-08 3.12205e-10 0
-1.39741e-08 2.20945e-10 0
-1.43313e-08 1.51886e-10 0
-1.45304e-08 1.04373e-10 0
-1.4622e-08 7.39391e-11 0
-1.46398e-08 5.47473e-11 0
-1.45987e-08 4.44288e-11 0
-1.45086e-08 4.03731e-11 0
-1.4372e-08 3.0176e-11 0
-1.41605e-08 1.04808e-12 0
-1.38266e-08 -3.87339e-11 0
-1.33534e-08 -5.99567e-11 0
-1.27848e-08 -3.61268e-11 0
-1.22053e-08 3.69465e-11 0
-1.16989e-08 1.41005e-10 0
-1.13213e-08 2.4581e-10 0
-1.10864e-08 3.19417e-10 0
-1.09622e-08 3.38755e-10 0
-1.08827e-08 3.01367e-10 0
-1.0783e-08 2.31451e-10 0
-1.06447e-08 1.71107e-10 0
-1.05176e-08 1.53878e-10 0
-1.04714e-08 1.60954e-10 0
0.0039939 -1.00758e-05 0
0 -1.88999e-08 0
2.73878e-13 -4.62217e-11 0
2.76775e-10 -9.6603e-10 0
1.47008e-09 -2.50465e-09 0
3.02789e-09 -4.38224e-09 0
5.24387e-09 -3.08251e-09 0
4.08038e-09 6.41902e-11 0
3.01312e-09 -2.18782e-10 0
3.51097e-09 -2.19527e-09 0
6.13822e-09 -4.29426e-09 0
9.90367e-09 -6.23703e-09 0
1.32869e-08 -7.69946e-09 0
1.50933e-08 -8.09824e-09 0
1.46612e-08 -6.94459e-09 0
1.25708e-08 -4.41839e-09 0
9.85245e-09 -1.245e-09 0
7.16867e-09 1.76219e-09 0
4.67781e-09 4.00691e-09 0
2.29542e-09 5.24681e-09 0
-6.36566e-11 5.58066e-09 0
-2.41854e-09 5.2998e-09 0
-4.7448e-09 4.69995e-09 0
-6.9846e-09 3.97744e-09 0
-9.04604e-09 3.23306e-09 0
-1.08249e-08 2.51923e-09 0
-1.22435e-08 1.87273e-09 0
-1.3278e-08 1.32179e-09 0
-1.39581e-08 8.81829e-10 0
-1.43481e-08 5.52771e-10 0
-1.45223e-08 3.21384e-10 0
-1.45458e-08 1.67508e-10 0
-1.44669e-08 6.74082e-11 0
-1.43133e-08 -6.36769e-12 0
-1.40834e-08 -7.66527e-11 0
-1.37621e-08 -1.59783e-10 0
-1.33342e-08 -2.82389e-10 0
-1.27535e-08 -4.70714e-10 0
-1.19484e-08 -7.08647e-10 0
-1.08847e-08 -9.29851e-10 0
-9.61243e-09 -1.06087e-09 0
-8.24497e-09 -1.06681e-09 0
-6.90695e-09 -9.6183e-10 0
-5.69839e-09 -7.93923e-10 0
-4.67861e-09 -6.25295e-10 0
-3.85331e-09 -5.09492e-10 0
-3.17796e-09 -4.63063e-10 0
-2.59299e-09 -4.47532e-10 0
-2.0819e-09 -3.83128e-10 0
-1.70885e-09 -1.91009e-10 0
-1.5339e-09 1.4554e-10 0
0.00574063 -2.62491e-05 0
0 -6.45019e-07 0
6.17696e-13 -6.08562e-10 0
7.55363e-10 -2.38185e-09 0
2.38227e-09 -4.72446e-09 0
3.4413e-09 -6.20017e-09 0
3.3499e-09 -3.2499e-09 0
2.12704e-09 -2.05386e-12 0
1.24704e-09 -1.03784e-09 0
2.02404e-10 -3.30043e-09 0
1.35354e-09 -6.02743e-09 0
4.59323e-09 -9.30728e-09 0
7.68308e-09 -1.25431e-08 0
9.42818e-09 -1.40667e-08 0
8.90401e-09 -1.27196e-08 0
6.62669e-09 -8.76163e-09 0
3.53831e-09 -3.13147e-09 0
3.33159e-10 2.81448e-09 0
-2.55504e-09 7.61511e-09 0
-4.81528e-09 1.03082e-08 0
-6.26368e-09 1.08224e-08 0
-6.93204e-09 9.78756e-09 0
-7.05546e-09 8.01594e-09 0
-6.92638e-09 6.11485e-09 0
-6.74716e-09 4.39915e-09 0
-6.58614e-09 2.97995e-09 0
-6.42499e-09 1.87097e-09 0
-6.2261e-09 1.0486e-09 0
-5.971e-09 4.739e-10 0
-5.66549e-09 9.96041e-11 0
-5.32814e-09 -1.26462e-10 0
-4.97345e-09 -2.56058e-10 0
-4.60435e-09 -3.36583e-10 0
-4.21413e-09 -4.16209e-10 0
-3.77019e-09 -5.38736e-10 0
-3.22233e-09 -7.34425e-10 0
-2.53099e-09 -1.0395e-09 0
-1.6291e-09 -1.48521e-09 0
-4.24349e-10 -2.03723e-09 0
1.1215e-09 -2.58052e-09 0
2.9358e-09 -2.97973e-09 0
4.865e-09 -3.15066e-09 0
6.74376e-09 -3.08583e-09 0
8.43752e-09 -2.83963e-09 0
9.85721e-09 -2.50154e-09 0
1.09777e-08 -2.1611e-09 0
1.18418e-08 -1.86167e-09 0
1.25229e-08 -1.56869e-09 0
1.30602e-08 -1.18442e-09 0
1.3404e-08 -6.29724e-10 0
1.35689e-08 6.0215e-11 0
0.00648708 -4.46217e-05 0
0 -1.26737e-06 0
2.5491e-14 -1.17969e-09 0
9.86738e-11 -3.35213e-09 0
5.89921e-10 -4.45571e-09 0
7.1383e-10 -3.60604e-09 0
-2.34039e-13 -1.32339e-09 0
-2.42534e-11 -2.3038e-11 0
2.23382e-11 -2.284e-11 0
-9.25516e-10 -1.59393e-09 0
-2.75349e-09 -5.64893e-09 0
-3.15049e-09 -1.0662e-08 0
-1.79313e-09 -1.53002e-08 0
-1.15578e-09 -1.75881e-08 0
-2.0043e-09 -1.60052e-08 0
-3.96005e-09 -1.0771e-08 0
-6.45669e-09 -3.06612e-09 0
-8.96757e-09 4.98466e-09 0
-1.09634e-08 1.10765e-08 0
-1.19196e-08 1.38768e-08 0
-1.15094e-08 1.35276e-08 0
-9.81618e-09 1.11747e-08 0
-7.31131e-09 8.10923e-09 0
-4.59217e-09 5.2124e-09 0
-2.11179e-09 2.87538e-09 0
-7.41397e-11 1.16881e-09 0
1.51318e-09 2.19356e-11 0
2.73318e-09 -6.76735e-10 0
3.68174e-09 -1.04129e-09 0
4.43608e-09 -1.17686e-09 0
5.05109e-09 -1.17697e-09 0
5.57054e-09 -1.12259e-09 0
6.03868e-09 -1.07904e-09 0
6.49323e-09 -1.10515e-09 0
6.98533e-09 -1.25663e-09 0
7.59013e-09 -1.57255e-09 0
8.3684e-09 -2.09704e-09 0
9.42153e-09 -2.86343e-09 0
1.08777e-08 -3.80689e-09 0
1.27689e-08 -4.7445e-09 0
1.49708e-08 -5.45869e-09 0
1.72591e-08 -5.79807e-09 0
1.94104e-08 -5.72469e-09 0
2.12601e-08 -5.30412e-09 0
2.2716e-08 -4.6685e-09 0
2.3776e-08 -3.96302e-09 0
2.45261e-08 -3.27672e-09 0
2.50831e-08 -2.59994e-09 0
2.55195e-08 -1.84673e-09 0
2.57982e-08 -9.46934e-10 0
2.59803e-08 -3.34571e-11 0
0.0067378 -6.09561e-05 0
0 -1.14902e-06 0
-5.61049e-13 -1.07786e-09 0
-6.83542e-10 -2.52863e-09 0
-8.90981e-10 -3.35785e-09 0
-1.21722e-09 -3.64036e-09 0
-8.61688e-10 -1.73347e-09 0
-2.32914e-11 2.31036e-11 0
-7.6464e-13 7.6464e-13 0
2.28119e-11 -2.18642e-11 0
-1.71743e-09 -2.39785e-09 0
-5.85739e-09 -8.86406e-09 0
-8.32595e-09 -1.5491e-08 0
-1.01555e-08 -1.82522e-08 0
-1.19746e-08 -1.63095e-08 0
-1.35529e-08 -1.01839e-08 0
-1.46974e-08 -1.58496e-09 0
-1.52455e-08 6.80996e-09 0
-1.50185e-08 1.24923e-08 0
-1.37685e-08 1.43068e-08 0
-1.13253e-08 1.2765e-08 0
-7.84362e-09 9.35544e-09 0
-3.83737e-09 5.56236e-09 0
5.75382e-11 2.30736e-09 0
3.36541e-09 -7.11251e-11 0
5.89283e-09 -1.58939e-09 0
7.6786e-09 -2.40632e-09 0
8.87586e-09 -2.71018e-09 0
9.6569e-09 -2.67648e-09 0
1.01678e-08 -2.45472e-09 0
1.0516e-08 -2.16547e-09 0
1.07771e-08 -1.90398e-09 0
1.10137e-08 -1.74115e-09 0
1.12701e-08 -1.73464e-09 0
1.1591e-08 -1.94273e-09 0
1.20565e-08 -2.41078e-09 0
1.27388e-08 -3.19763e-09 0
1.37981e-08 -4.345e-09 0
1.54425e-08 -5.74315e-09 0
1.76954e-08 -7.1148e-09 0
2.03429e-08 -8.1433e-09 0
2.30423e-08 -8.60583e-09 0
2.5473e-08 -8.44196e-09 0
2.74314e-08 -7.74804e-09 0
2.88462e-08 -6.72128e-09 0
2.97852e-08 -5.57946e-09 0
3.04182e-08 -4.46746e-09 0
3.09156e-08 -3.40555e-09 0
3.1358e-08 -2.32585e-09 0
3.16947e-08 -1.16276e-09 0
3.19758e-08 -1.31607e-10 0
0.00672836 -7.1836e-05 0
0 -7.91172e-07 0
-2.55312e-13 -6.0848e-10 0
-6.41995e-10 -1.61009e-09 0
-7.09955e-10 -2.14358e-09 0
-1.44993e-09 -2.42619e-09 0
-1.87813e-09 -2.16668e-09 0
-8.13277e-10 -8.82408e-10 0
-2.3021e-11 2.3186e-11 0
-3.73265e-13 3.73265e-13 0
2.44239e-11 -2.11997e-11 0
-2.5528e-09 -4.42503e-09 0
-8.55501e-09 -1.23678e-08 0
-1.36849e-08 -1.60918e-08 0
-1.72713e-08 -1.38556e-08 0
-1.92301e-08 -7.38382e-09 0
-1.93776e-08 7.78626e-10 0
-1.78266e-08 7.8314e-09 0
-1.50093e-08 1.17374e-08 0
-1.13665e-08 1.19395e-08 0
-7.22925e-09 9.33995e-09 0
-2.94389e-09 5.51919e-09 0
1.05586e-09 1.83826e-09 0
4.35643e-09 -9.79947e-10 0
6.72248e-09 -2.77333e-09 0
8.15346e-09 -3.67961e-09 0
8.8219e-09 -3.93152e-09 0
8.96718e-09 -3.75879e-09 0
8.81255e-09 -3.35606e-09 0
8.52805e-09 -2.87596e-09 0
8.22446e-09 -2.43041e-09 0
7.96243e-09 -2.09982e-09 0
7.78023e-09 -1.94186e-09 0
7.6974e-09 -2.00343e-09 0
7.72798e-09 -2.34052e-09 0
7.93808e-09 -3.00491e-09 0
8.39784e-09 -4.07736e-09 0
9.35655e-09 -5.61593e-09 0
1.11853e-08 -7.44852e-09 0
1.39064e-08 -9.17738e-09 0
1.71816e-08 -1.03952e-08 0
2.04924e-08 -1.0843e-08 0
2.33685e-08 -1.04775e-08 0
2.5551e-08 -9.4563e-09 0
2.70172e-08 -8.05018e-09 0
2.79498e-08 -6.53781e-09 0
2.8626e-08 -5.10025e-09 0
2.9253e-08 -3.77168e-09 0
2.98778e-08 -2.49462e-09 0
3.04127e-08 -1.21611e-09 0
3.08435e-08 -1.88538e-10 0
0.0065508 -7.69673e-05 0
0 -5.53948e-07 0
1.63212e-13 -3.01631e-10 0
-2.47228e-10 -8.8225e-10 0
-2.72893e-10 -1.51905e-09 0
-7.50686e-10 -1.83894e-09 0
-1.89111e-09 -1.37575e-09 0
-2.28925e-09 -4.18985e-10 0
-1.48723e-09 5.62916e-11 0
-2.3591e-11 2.27809e-11 0
2.46856e-11 2.13978e-11 0
1.73808e-12 -2.57073e-09 0
-4.37549e-09 -8.65505e-09 0
-1.16931e-08 -1.19939e-08 0
-1.84819e-08 -8.93876e-09 0
-2.24286e-08 -2.42293e-09 0
-2.22771e-08 4.11574e-09 0
-1.85551e-08 8.3873e-09 0
-1.29752e-08 9.47108e-09 0
-7.2582e-09 7.71925e-09 0
-2.45393e-09 4.39759e-09 0
1.05201e-09 9.39737e-10 0
3.25019e-09 -1.71515e-09 0
4.28945e-09 -3.28778e-09 0
4.39243e-09 -3.93284e-09 0
3.82469e-09 -3.94905e-09 0
2.859e-09 -3.61017e-09 0
1.73344e-09 -3.11577e-09 0
6.2261e-10 -2.59815e-09 0
-3.68019e-10 -2.14258e-09 0
-1.19197e-09 -1.80322e-09 0
-1.84759e-09 -1.61657e-09 0
-2.34978e-09 -1.61389e-09 0
-2.72178e-09 -1.82997e-09 0
-2.98959e-09 -2.32022e-09 0
-3.11171e-09 -3.14519e-09 0
-3.03316e-09 -4.39693e-09 0
-2.39652e-09 -6.12291e-09 0
-5.6829e-10 -8.05781e-09 0
2.44291e-09 -9.70528e-09 0
6.19569e-09 -1.06596e-08 0
9.97475e-09 -1.07369e-08 0
1.31618e-08 -1.00063e-08 0
1.5485e-08 -8.71873e-09 0
1.70264e-08 -7.17974e-09 0
1.81064e-08 -5.65277e-09 0
1.90705e-08 -4.28145e-09 0
2.00901e-08 -3.06665e-09 0
2.11171e-08 -1.93826e-09 0
2.19975e-08 -8.64056e-10 0
2.26108e-08 -7.97126e-11 0
0.00618423 -7.84322e-05 0
0 -4.69302e-07 0
2.18966e-13 -1.4136e-10 0
8.74979e-11 -4.71303e-10 0
4.7761e-11 -8.56286e-10 0
-6.73164e-10 -1.07009e-09 0
-2.22535e-09 -4.60643e-10 0
-3.44738e-09 7.32335e-10 0
-3.5431e-09 2.07181e-11 0
-2.35932e-09 -6.28555e-10 0
-1.70639e-09 1.35769e-14 0
-4.56901e-10 -2.93022e-09 0
-3.23916e-09 -6.80535e-09 0
-1.11947e-08 -6.61701e-09 0
-1.95683e-08 -3.01042e-09 0
-2.36494e-08 1.79807e-09 0
-2.16818e-08 5.38362e-09 0
-1.53875e-08 6.57657e-09 0
-8.10006e-09 5.43148e-09 0
-2.48817e-09 2.83392e-09 0
4.45256e-10 2.14481e-11 0
1.02152e-09 -2.03987e-09 0
7.81532e-11 -3.02651e-09 0
-1.61242e-09 -3.14677e-09 0
-3.54283e-09 -2.79442e-09 0
-5.43843e-09 -2.29095e-09 0
-7.16587e-09 -1.81245e-09 0
-8.66777e-09 -1.42458e-09 0
-9.92795e-09 -1.1399e-09 0
-1.09592e-08 -9.56023e-10 0
-1.17946e-08 -8.71281e-10 0
-1.24829e-08 -8.9112e-10 0
-1.30754e-08 -1.03245e-09 0
-1.36246e-08 -1.32511e-09 0
-1.41855e-08 -1.8216e-09 0
-1.47497e-08 -2.58473e-09 0
-1.52884e-08 -3.66729e-09 0
-1.5341e-08 -5.01236e-09 0
-1.39882e-08 -6.25455e-09 0
-1.14537e-08 -6.99791e-09 0
-8.13158e-09 -7.06897e-09 0
-4.85643e-09 -6.48403e-09 0
-2.24247e-09 -5.47587e-09 0
-4.0738e-10 -4.32943e-09 0
9.17742e-10 -3.25488e-09 0
2.13381e-09 -2.36403e-09 0
3.51005e-09 -1.6672e-09 0
5.05459e-09 -1.09289e-09 0
6.57345e-09 -5.54713e-10 0
7.83726e-09 -4.75188e-11 0
8.61592e-09 2.49924e-10 0
0.00544273 -7.33752e-05 0
0 -4.83454e-07 0
3.11525e-13 -1.30773e-12 0
2.33526e-10 -3.93782e-11 0
1.50908e-10 -1.00087e-10 0
-7.60721e-10 -1.19061e-10 0
-2.64545e-09 -7.03432e-11 0
-4.29823e-09 5.07581e-10 0
-4.45357e-09 5.47824e-10 0
-5.16278e-09 -2.41307e-10 0
-4.79286e-09 -1.02305e-09 0
-3.82337e-09 -1.87445e-09 0
-6.10351e-09 -1.54461e-09 0
-1.03603e-08 -5.41584e-11 0
-1.43695e-08 1.3535e-09 0
-1.52886e-08 2.24956e-09 0
-1.22552e-08 2.38584e-09 0
-7.00548e-09 1.73524e-09 0
-2.24787e-09 6.24796e-10 0
2.38866e-10 -4.43064e-10 0
2.52284e-10 -1.10396e-09 0
-1.38824e-09 -1.28767e-09 0
-3.68215e-09 -1.14407e-09 0
-5.93811e-09 -8.75469e-10 0
-7.85042e-09 -6.22001e-10 0
-9.36959e-09 -4.39103e-10 0
-1.05542e-08 -3.26184e-10 0
-1.14842e-08 -2.64172e-10 0
-1.22284e-08 -2.37089e-10 0
-1.28415e-08 -2.36648e-10 0
-1.33705e-08 -2.62432e-10 0
-1.38626e-08 -3.20041e-10 0
-1.4365e-08 -4.21036e-10 0
-1.49309e-08 -5.83221e-10 0
-1.56214e-08 -8.35995e-10 0
-1.64628e-08 -1.2113e-09 0
-1.74152e-08 -1.66939e-09 0
-1.79425e-08 -2.05872e-09 0
-1.71578e-08 -2.14394e-09 0
-1.57037e-08 -1.88139e-09 0
-1.38472e-08 -1.39598e-09 0
-1.23075e-08 -7.90866e-10 0
-1.14307e-08 -2.20254e-10 0
-1.10283e-08 1.98579e-10 0
-1.06653e-08 4.40013e-10 0
-9.99157e-09 5.38043e-10 0
-8.9155e-09 5.4943e-10 0
-7.58321e-09 5.31916e-10 0
-6.24492e-09 5.24077e-10 0
-5.12697e-09 5.12689e-10 0
-4.47937e-09 4.35353e-10 0
0.00381265 -4.70635e-05 0
0 0 0
2.63206e-13 0 0
1.35719e-10 0 0
8.93807e-11 0 0
-3.47667e-10 0 0
-1.29455e-09 0 0
-2.32693e-09 0 0
-2.39778e-09 0 0
-2.80387e-09 0 0
-3.08621e-09 0 0
-3.36474e-09 0 0
-3.84969e-09 0 0
-4.06697e-09 0 0
-4.09508e-09 0 0
-3.5758e-09 0 0
-2.35832e-09 0 0
-9.06954e-10 0 0
8.75872e-11 0 0
2.51181e-10 0 0
-3.14917e-10 0 0
-1.25046e-09 0 0
-2.21585e-09 0 0
-3.02591e-09 0 0
-3.63811e-09 0 0
-4.08509e-09 0 0
-4.41694e-09 0 0
-4.67486e-09 0 0
-4.88811e-09 0 0
-5.07598e-09 0 0
-5.25414e-09 0 0
-5.43881e-09 0 0
-5.64837e-09 0 0
-5.90591e-09 0 0
-6.2403e-09 0 0
-6.67242e-09 0 0
-7.16881e-09 0 0
-7.44728e-09 0 0
-7.1461e-09 0 0
-6.70459e-09 0 0
-6.23378e-09 0 0
-6.0231e-09 0 0
-6.14351e-09 0 0
-6.41611e-09 0 0
-6.59774e-09 0 0
-6.54445e-09 0 0
-6.25506e-09 0 0
-5.82129e-09 0 0
-5.35667e-09 0 0
-4.95625e-09 0 0
-4.73087e-09 0 0
0.00134186 0 0
0 0 5.41399e-07
7.309e-14 0 1.95454e-10
-5.67365e-10 0 6.12528e-10
-8.50662e-10 0 1.18572e-09
-4.37742e-09 0 -4.40511e-10
1.28242e-09 0 -1.92917e-09
3.00315e-09 0 -1.31232e-09
3.4971e-09 0 -9.48849e-10
4.0875e-09 0 -4.40722e-10
5.12842e-09 0 1.91047e-10
6.56471e-09 0 9.7295e-10
8.46236e-09 0 1.75126e-09
1.07548e-08 0 2.17757e-09
1.29614e-08 0 2.00887e-09
1.42448e-08 0 1.42792e-09
1.39679e-08 0 8.34565e-10
1.21125e-08 0 4.59781e-10
9.22489e-09 0 3.00261e-10
5.97311e-09 0 2.7824e-10
2.76876e-09 0 3.37781e-10
-2.77944e-10 0 4.38517e-10
-3.18652e-09 0 5.37423e-10
-5.94842e-09 0 5.95768e-10
-8.485e-09 0 5.94079e-10
-1.06902e-08 0 5.36519e-10
-1.24876e-08 0 4.42966e-10
-1.38592e-08 0 3.36977e-10
-1.48411e-08 0 2.36984e-10
-1.55019e-08 0 1.53132e-10
-1.59193e-08 0 8.83413e-11
-1.61648e-08 0 4.10015e-11
-1.62962e-08 0 7.10595e-12
-1.63522e-08 0 -1.75778e-11
-1.63533e-08 0 -3.48699e-11
-1.63156e-08 0 -4.58908e-11
-1.62442e-08 0 -5.62146e-11
-1.61068e-08 0 -7.35363e-11
-1.58456e-08 0 -9.85823e-11
-1.54312e-08 0 -1.22738e-10
-1.48982e-08 0 -1.35542e-10
-1.43292e-08 0 -1.32089e-10
-1.38138e-08 0 -1.1384e-10
-1.34152e-08 0 -8.63645e-11
-1.31531e-08 0 -5.80696e-11
-1.2998e-08 0 -3.84064e-11
-1.28834e-08 0 -3.36174e-11
-1.2742e-08 0 -4.17824e-11
-1.25526e-08 0 -5.36974e-11
-1.23691e-08 0 -7.01966e-11
-1.22837e-08 0 -1.24067e-10
0.00394076 0 1.05753e-05
0.0036 -3.09467e-07 -6.27105e-08
0.00359979 -0.00138906 -2.08016e-05
0.00669694 -0.00393834 0.000116579
0.01361 -0.00587415 -0.000484665
0.023501 -0.0145036 -0.00426299
0.046423 -0.0134865 -0.00489116
0.0499671 -0.00195871 -0.00164776
0.0497126 0.00261633 -0.000165329
0.0447401 0.00493706 0.000571731
0.0391525 0.00509509 0.000569998
0.0340716 0.00441774 0.000317738
0.0298144 0.00352789 5.89457e-05
0.0264447 0.00266034 -0.000128112
0.0238845 0.00191771 -0.000229777
0.0219734 0.00134268 -0.000257797
0.0205384 0.000931088 -0.000233836
0.0194409 0.00065118 -0.000181519
0.0185864 0.000465367 -0.000121218
0.0179168 0.000341406 -6.72224e-05
0.017396 0.000255745 -2.68204e-05
0.0169982 0.000193227 -1.30062e-06
0.0167016 0.000145293 1.1775e-05
0.0164862 0.000107716 1.62343e-05
0.0163339 7.85961e-05 1.57113e-05
0.0162282 5.69616e-05 1.29304e-05
0.0161551 4.20514e-05 9.59745e-06
0.0161028 3.30862e-05 6.59257e-06
0.0160618 2.93084e-05 4.25034e-06
0.016024 3.01057e-05 2.6097e-06
0.015983 3.51139e-05 1.59158e-06
0.0159326 4.42601e-05 1.10328e-06
0.0158667 5.77478e-05 1.0949e-06
0.0157791 7.59855e-05 1.58898e-06
0.0156625 9.93835e-05 2.67105e-06
0.015509 0.000128017 4.46558e-06
0.0153108 0.000161107 7.07224e-06
0.0150615 0.000196181 1.03511e-05
0.0147598 0.000228641 1.37482e-05
0.0144117 0.000252728 1.64652e-05
0.0140317 0.000263564 1.78639e-05
0.0136395 0.000258931 1.77626e-05
0.0132566 0.000239744 1.64191e-05
0.0129017 0.000209246 1.42843e-05
0.0125889 0.000171688 1.1773e-05
0.012327 0.000131213 9.18552e-06
0.01212 9.11959e-05 6.72863e-06
0.0119679 5.39803e-05 4.52808e-06
0.0118672 2.09112e-05 2.51253e-06
0.011812 -4.5185e-06 2.71863e-06
0.0117959 -9.57713e-06 1.55814e-05
0.0117959 -4.59279e-06 2.7249e-05
0.01 -1.37411e-07 -1.47152e-06
0.0100008 -0.00298303 -0.000597487
0.014788 -0.00997155 -0.000792056
0.0242032 -0.0177799 -0.00122468
0.0386596 -0.0326864 -0.00333011
0.0593898 -0.0250021 -0.000808326
0.0566039 -0.00278878 0.00319793
0.0560364 0.00504424 0.00339461
0.0502696 0.00999663 0.00300376
0.0448321 0.0101157 0.0021272
0.0403692 0.00899996 0.00121285
0.0367005 0.00755248 0.000497826
0.0337685 0.00608218 -3.61401e-06
0.0315168 0.00476882 -0.000306711
0.0297904 0.00369543 -0.000434482
0.0284391 0.00285522 -0.000433555
0.0273592 0.00220046 -0.000358042
0.0264909 0.00168419 -0.000254475
0.0258017 0.00127356 -0.000155087
0.0252696 0.000947881 -7.68168e-05
0.0248733 0.000692986 -2.42137e-05
0.0245891 0.000497275 5.75478e-06
0.0243928 0.000350407 1.9203e-05
0.024262 0.000243283 2.23539e-05
0.024177 0.000168179 2.01267e-05
0.0241217 0.000118703 1.57928e-05
0.0240832 8.96884e-05 1.11958e-05
0.0240511 7.71473e-05 7.17227e-06
0.0240171 7.82707e-05 3.96527e-06
0.0239741 9.14226e-05 1.5389e-06
0.0239153 0.00011607 -2.23002e-07
0.0238337 0.000152616 -1.40525e-06
0.023721 0.000202168 -1.98104e-06
0.0235678 0.000266052 -1.78765e-06
0.0233628 0.000344975 -5.25438e-07
0.0230937 0.000437653 2.1269e-06
0.0227492 0.000538496 5.93264e-06
0.0223241 0.000636138 9.62632e-06
0.0218247 0.000715578 1.14392e-05
0.0212698 0.0007632 1.01867e-05
0.0206868 0.000771345 5.95677e-06
0.0201058 0.000739912 -5.55232e-08
0.019554 0.000674905 -6.31623e-06
0.0190526 0.000585571 -1.16361e-05
0.0186164 0.000481815 -1.53935e-05
0.018254 0.000372517 -1.74414e-05
0.0179691 0.000264963 -1.78525e-05
0.0177611 0.000164717 -1.7141e-05
0.0176248 7.57499e-05 -1.38495e-05
0.0175601 1.23793e-05 1.22364e-05
0.0175601 -9.7409e-06 3.5551e-05
0.0148 -9.67948e-07 -1.7682e-06
0.0148024 -0.00530208 -0.00112351
0.0204153 -0.0164704 -0.00244973
0.0276375 -0.0289644 -0.00394516
0.032321 -0.0464202 -0.00578355
0.030766 -0.0286441 -0.00142404
0.0269446 -1.25128e-05 0.00331517
0.0263778 0.00703962 0.00352938
0.0298564 0.0143282 0.0034339
0.0302099 0.0136825 0.00247676
0.0294417 0.0118399 0.0015391
0.0286421 0.00995036 0.000731354
0.0280499 0.00807429 0.000147429
0.0277592 0.00638503 -0.000208033
0.0276416 0.00501148 -0.000358245
0.0275909 0.00392298 -0.000366559
0.0275593 0.00304632 -0.000298645
0.0275365 0.00232682 -0.00020412
0.0275272 0.00173621 -0.000113922
0.0275359 0.00126127 -4.3221e-05
0.0275624 0.000891598 3.93721e-06
0.0276021 0.000613999 2.99584e-05
0.0276489 0.000412892 4.00559e-05
0.0276967 0.000272807 3.9893e-05
0.0277406 0.000180255 3.42858e-05
0.0277767 0.000124394 2.66716e-05
0.0278017 9.69714e-05 1.91072e-05
0.027813 9.20948e-05 1.25664e-05
0.0278081 0.000106017 7.32907e-06
0.027784 0.000136972 3.33037e-06
0.0277369 0.000185002 4.14453e-07
0.0276615 0.000251675 -1.51608e-06
0.0275504 0.000339712 -2.37073e-06
0.0273932 0.000452305 -1.78998e-06
0.0271766 0.000591895 9.54794e-07
0.0268841 0.000758028 6.82974e-06
0.0264978 0.000942585 1.55376e-05
0.0260065 0.00112594 2.4127e-05
0.0254159 0.00128076 2.83749e-05
0.0247504 0.00138179 2.55364e-05
0.0240463 0.00141437 1.59076e-05
0.023342 0.00137718 2.33791e-06
0.0226705 0.00127942 -1.16439e-05
0.0220565 0.00113576 -2.34028e-05
0.0215169 0.000962103 -3.16337e-05
0.021062 0.000773006 -3.61018e-05
0.0206973 0.000580263 -3.7053e-05
0.020425 0.000392762 -3.51022e-05
0.0202425 0.000216005 -3.03998e-05
0.0201519 5.91299e-05 4.21423e-06
0.0201518 -1.24821e-05 3.57092e-05
0.018 -1.95378e-06 -1.71168e-06
0.018003 -0.00702403 -0.00187245
0.0208047 -0.019089 -0.00492809
0.0207724 -0.0251451 -0.00635622
0.0161184 -0.0271561 -0.00764478
-1.6265e-06 -0.0140858 -0.0043452
9.42917e-05 2.24614e-05 9.40111e-07
-2.96064e-05 3.09618e-05 0.000655535
0.00654602 0.00402613 0.00144676
0.0133271 0.00908337 0.0014216
0.0167073 0.00978247 0.00102072
0.018505 0.00874156 0.000499934
0.0202271 0.00719353 2.84498e-05
0.0219325 0.00566046 -0.000241249
0.0234507 0.00443072 -0.000325929
0.0247166 0.00346002 -0.000299559
0.0257434 0.00266091 -0.000224771
0.0265721 0.00198545 -0.000140776
0.0272434 0.00142152 -6.75458e-05
0.0277876 0.000970225 -1.25649e-05
0.0282256 0.000628664 2.34242e-05
0.0285728 0.000384853 4.27993e-05
0.0288431 0.000220983 4.92782e-05
0.029049 0.000118611 4.70119e-05
0.0292019 6.19911e-05 3.98865e-05
0.0293115 3.91337e-05 3.09706e-05
0.0293854 4.16238e-05 2.22696e-05
0.0294293 6.41447e-05 1.4816e-05
0.0294469 0.000104073 8.95477e-06
0.0294401 0.000161191 4.67089e-06
0.029408 0.000237483 1.88344e-06
0.0293476 0.000336853 6.41367e-07
0.0292521 0.000464753 1.3146e-06
0.0291109 0.000627463 4.75235e-06
0.0289076 0.000830804 1.26693e-05
0.0286199 0.00107773 2.78884e-05
0.0282184 0.00135961 5.07694e-05
0.0276805 0.00164684 7.48296e-05
0.0270108 0.00189496 8.98926e-05
0.0262435 0.00206289 8.91229e-05
0.0254297 0.00212752 7.27847e-05
0.0246207 0.0020872 4.69799e-05
0.0238563 0.00195594 1.91578e-05
0.0231635 0.00175508 -5.28199e-06
0.0225587 0.00150693 -2.37425e-05
0.0220514 0.0012315 -3.57624e-05
0.0216467 0.000944761 -4.20106e-05
0.0213468 0.000658353 -4.35726e-05
0.0211488 0.00038051 -4.16337e-05
0.0210539 0.000116824 -5.87514e-06
0.0210537 -1.09458e-05 2.81838e-05
0.0196 -2.84479e-06 -2.58102e-06
0.019601 -0.0059413 -0.0027435
0.0190501 -0.0132631 -0.00648972
0.015918 -0.0163253 -0.00670477
0.0108382 -0.0153199 -0.0066998
0.00169069 -0.00631923 -0.00504957
6.9188e-05 -6.32104e-05 -0.00130583
3.3604e-05 -3.3604e-05 -4.28829e-08
-2.89947e-05 3.02181e-05 0.000265335
0.00384554 0.00266378 0.000569499
0.00874463 0.00616354 0.00050421
0.0116246 0.00632664 0.000157799
0.0148588 0.0048816 -0.000225762
0.0180007 0.00357979 -0.00040057
0.0206895 0.00268356 -0.000407346
0.0228636 0.00202997 -0.000331745
0.0245875 0.00149007 -0.00023347
0.0259491 0.00101898 -0.000143745
0.0270215 0.000621326 -7.36213e-05
0.0278578 0.000312598 -2.36108e-05
0.0284983 9.73226e-05 9.1978e-06
0.0289771 -3.45563e-05 2.79705e-05
0.0293255 -0.000101273 3.57207e-05
0.0295721 -0.000121715 3.56031e-05
0.0297415 -0.00011113 3.07969e-05
0.0298539 -8.0035e-05 2.4038e-05
0.0299244 -3.47042e-05 1.72495e-05
0.0299641 2.20419e-05 1.15079e-05
0.0299804 9.02343e-05 7.26437e-06
0.0299773 0.000172372 4.65176e-06
0.0299557 0.000273242 3.81877e-06
0.0299133 0.000399775 5.19853e-06
0.0298437 0.000560878 9.81586e-06
0.0297347 0.000766945 1.95772e-05
0.0295661 0.00102882 3.8263e-05
0.0293069 0.00135643 7.34759e-05
0.0289094 0.00174449 0.000129169
0.0283289 0.00215111 0.000192232
0.0275686 0.00250709 0.000238372
0.0266807 0.00275005 0.000250522
0.0257423 0.00284785 0.000228219
0.024824 0.00280122 0.000183986
0.0239739 0.00263211 0.000132723
0.0232189 0.00237029 8.4859e-05
0.0225723 0.00204502 4.53103e-05
0.0220398 0.0016815 1.49845e-05
0.0216228 0.00129959 -7.39984e-06
0.021321 0.000913846 -2.38458e-05
0.0211291 0.000535901 -3.54862e-05
0.0210442 0.000171692 -1.16077e-05
0.0210441 -6.891e-06 1.69133e-05
0.0196 -1.37205e-06 -3.60864e-06
0.0195999 -0.00370617 -0.00312889
0.0187454 -0.00815017 -0.00653153
0.0174861 -0.00820546 -0.00606144
0.0131398 -0.00439056 -0.00554659
0.00903645 0.00248995 -0.00534286
0.00613028 0.00312042 -0.00313418
6.93717e-05 -5.70492e-05 -0.000682882
2.80544e-05 -2.80544e-05 -1.28577e-07
-2.84455e-05 2.95439e-05 9.83981e-05
0.0026138 0.0017889 0.000376652
0.00679283 0.00268698 0.000281616
0.0119871 0.00114541 -0.000163385
0.0165774 0.000274474 -0.000378945
0.0201545 7.23755e-06 -0.000400886
0.0228348 -7.01081e-05 -0.000329431
0.0248339 -0.000151256 -0.000234924
0.0263276 -0.000266171 -0.000152102
0.0274358 -0.000380068 -9.0433e-05
0.0282406 -0.000455894 -4.76473e-05
0.0288047 -0.000478477 -1.90884e-05
0.0291824 -0.000453386 -1.25035e-06
0.029422 -0.00039595 8.3022e-06
0.0295648 -0.000321542 1.17893e-05
0.0296434 -0.000240976 1.147e-05
0.0296821 -0.000159908 9.36313e-06
0.0296974 -7.98663e-05 6.94485e-06
0.0297001 6.23018e-07 5.10978e-06
0.0296963 8.53043e-05 4.35721e-06
0.029689 0.000179858 5.05181e-06
0.0296783 0.000291899 7.76421e-06
0.0296614 0.000431174 1.36312e-05
0.0296314 0.000609859 2.48873e-05
0.0295751 0.000842702 4.54737e-05
0.0294675 0.00114645 8.30971e-05
0.0292668 0.00154111 0.00015587
0.0288995 0.00202999 0.000279027
0.0282821 0.00255688 0.000427619
0.0274147 0.00301864 0.000545004
0.026382 0.00332759 0.000591322
0.0253032 0.00344554 0.000565526
0.0242746 0.0033809 0.00049321
0.0233507 0.00316761 0.00040282
0.0225547 0.00284521 0.000313205
0.0218919 0.00244949 0.000233037
0.0213602 0.00200985 0.000164081
0.0209551 0.00154902 0.000104478
0.0206715 0.00108395 5.13441e-05
0.0205011 0.000629961 5.08883e-06
0.0204352 0.000199259 -4.22845e-06
0.0204351 -9.23048e-06 7.40332e-06
0.018 -8.71571e-07 -3.60458e-06
0.0180009 -0.0020201 -0.00305238
0.018309 -0.00391592 -0.00617001
0.0183542 -0.00273945 -0.00529289
0.0173263 0.000540271 -0.00418935
0.0170359 0.00700044 -0.00396603
0.0177664 0.01254 -0.00302422
0.0109031 0.00692263 -0.00152021
7.08427e-05 -4.32556e-05 -0.000444082
-2.14335e-05 -5.10537e-05 5.62529e-07
7.99319e-06 -0.000782193 0.000761537
0.00817331 -0.00306946 0.00111043
0.0153494 -0.00465716 0.000456064
0.0202189 -0.00421249 0.00010675
0.0233248 -0.00318324 -4.00274e-05
0.0253188 -0.00230685 -8.92793e-05
0.0266278 -0.00173185 -9.64472e-05
0.0274885 -0.00138277 -8.84425e-05
0.0280323 -0.00115163 -7.59886e-05
0.0283442 -0.000964851 -6.21381e-05
0.02849 -0.000791049 -4.79034e-05
0.0285253 -0.000626107 -3.45029e-05
0.0284958 -0.000475727 -2.32142e-05
0.0284357 -0.000344755 -1.46797e-05
0.0283682 -0.000233805 -8.72271e-06
0.0283069 -0.000139874 -4.65623e-06
0.0282589 -5.78845e-05 -1.6656e-06
0.0282267 1.82459e-05 1.00069e-06
0.0282109 9.5234e-05 4.05129e-06
0.0282108 0.000180582 8.30214e-06
0.0282247 0.00028306 1.50052e-05
0.02825 0.000413442 2.63573e-05
0.0282808 0.000585412 4.64254e-05
0.0283043 0.000816696 8.25338e-05
0.028293 0.00112891 0.000149098
0.0281956 0.00155052 0.000282832
0.0279097 0.00209491 0.000522113
0.0272909 0.00269273 0.000819308
0.0263326 0.00320791 0.00105507
0.0251686 0.00353372 0.00115156
0.0239781 0.00363443 0.00111336
0.0228826 0.00353325 0.000992714
0.0219342 0.00327824 0.000840206
0.0211434 0.00291661 0.000686014
0.0205026 0.00248701 0.000542673
0.0199991 0.00201936 0.000412191
0.0196217 0.001536 0.000291758
0.0193617 0.00105388 0.000177886
0.0192099 0.000590191 7.42156e-05
0.0191565 0.00016744 1.1658e-05
0.0191564 -3.04966e-05 -2.89426e-06
0.0148 -4.87799e-07 -3.19336e-06
0.0148015 -0.0010438 -0.00283376
0.0162275 -0.00167327 -0.00543494
0.0177787 -8.15529e-05 -0.00429448
0.0190768 0.00310643 -0.00305751
0.0207868 0.00729852 -0.00283033
0.0245902 0.0129668 -0.00240879
0.0278807 0.0194947 -0.00153135
0.022937 0.0112684 -0.000358848
0.0234007 3.66521e-11 0.000617819
0.0265573 -0.00675717 0.00156357
0.0299111 -0.0132071 0.00212879
0.0305919 -0.0111165 0.00165341
0.0298947 -0.00771787 0.00113348
0.0288627 -0.00500194 0.000657207
0.0279326 -0.00322957 0.000297137
0.027195 -0.00215801 7.37249e-05
0.0266148 -0.00150835 -3.97179e-05
0.0261416 -0.00108748 -8.28468e-05
0.0257435 -0.000789085 -8.75983e-05
0.025407 -0.000564515 -7.46239e-05
0.0251277 -0.00039362 -5.60517e-05
0.0249034 -0.000265682 -3.82967e-05
0.0247304 -0.000171316 -2.40119e-05
0.0246033 -0.000101089 -1.35889e-05
0.0245163 -4.63274e-05 -6.31666e-06
0.0244635 3.01658e-07 -1.11356e-06
0.0244407 4.49172e-05 3.13004e-06
0.0244449 9.30338e-05 7.51708e-06
0.0244748 0.000150356 1.33315e-05
0.0245303 0.000223623 2.24598e-05
0.024612 0.000321617 3.8155e-05
0.0247183 0.000456357 6.64761e-05
0.0248417 0.000644912 0.000119018
0.0249587 0.000908886 0.000219485
0.0250173 0.00127208 0.000426127
0.0248922 0.00174377 0.000799344
0.0243595 0.00225579 0.00124766
0.023415 0.00268376 0.00158031
0.0222314 0.00292902 0.00169044
0.0210603 0.00296395 0.00160045
0.0200274 0.00282918 0.00140723
0.019163 0.00257871 0.00118594
0.0184559 0.00225603 0.000972473
0.0178841 0.00189222 0.000776786
0.0174285 0.00150914 0.000596683
0.0170772 0.00112215 0.000426366
0.0168247 0.000743237 0.000261797
0.0166677 0.000385516 0.000110446
0.0166044 7.3955e-05 4.71222e-06
0.0166043 -6.59218e-05 -3.07774e-05
0.01 -9.35135e-07 -2.89414e-06
0.0100008 -0.000639439 -0.002308
0.0113162 -0.000727312 -0.00414864
0.013162 0.000527914 -0.00290488
0.0155643 0.00249003 -0.00179247
0.0194233 0.00553513 -0.00179459
0.025318 0.00835563 -0.0023519
0.0344403 0.0101193 -0.00209252
0.0460444 0.00480941 -0.000517686
0.0458036 -0.0040393 0.000974337
0.0453125 -0.00824593 0.00161324
0.0379587 -0.0084113 0.00180209
0.0309412 -0.00573822 0.001563
0.0258123 -0.0032875 0.00113386
0.0224485 -0.00169652 0.000683264
0.0203377 -0.000826857 0.000326695
0.0190142 -0.000403136 0.000104266
0.0181577 -0.000210907 -5.91682e-06
0.0175784 -0.000124079 -4.56903e-05
0.0171726 -8.09026e-05 -4.9725e-05