# vtk DataFile Version 2.0
Tobias Weinzierl: CPU, Manycore and Cluster Computing
ASCII

DATASET STRUCTURED_POINTS
DIMENSIONS  51 11 6

ORIGIN 0 0 0 

SPACING 0.1 0.1 0.1 

POINT_DATA 3366

VECTORS velocity float
0 0 0
1.9299e-12 0 0
5.80055e-09 0 0
6.34283e-09 0 0
-1.67957e-08 0 0
7.99776e-10 0 0
2.67495e-09 0 0
1.04714e-09 0 0
-7.56535e-10 0 0
-2.53708e-09 0 0
-2.29375e-09 0 0
-1.86842e-09 0 0
-4.60997e-09 0 0
-1.04796e-08 0 0
-1.61707e-08 0 0
-1.91582e-08 0 0
-1.97383e-08 0 0
-1.95806e-08 0 0
-1.98671e-08 0 0
-2.08273e-08 0 0
-2.21658e-08 0 0
-2.35224e-08 0 0
-2.46729e-08 0 0
-2.5541e-08 0 0
-2.61424e-08 0 0
-2.65317e-08 0 0
-2.67691e-08 0 0
-2.69057e-08 0 0
-2.69788e-08 0 0
-2.70121e-08 0 0
-2.70172e-08 0 0
-2.69962e-08 0 0
-2.69435e-08 0 0
-2.68318e-08 0 0
-2.6591e-08 0 0
-2.6135e-08 0 0
-2.54371e-08 0 0
-2.45549e-08 0 0
-2.35806e-08 0 0
-2.25854e-08 0 0
-2.16e-08 0 0
-2.06199e-08 0 0
-1.96157e-08 0 0
-1.85513e-08 0 0
-1.74147e-08 0 0
-1.62398e-08 0 0
-1.51057e-08 0 0
-1.41164e-08 0 0
-1.33755e-08 0 0
-1.29906e-08 0 0
0.00147716 0 0
0 3.90652e-07 0
3.64062e-13 -5.21434e-09 0
9.34146e-09 -1.07519e-08 0
1.42254e-08 -2.3647e-09 0
-1.56135e-08 -1.53401e-08 0
1.60644e-08 -1.97854e-08 0
1.52252e-08 4.60317e-09 0
7.57167e-09 1.29556e-08 0
3.40427e-09 1.36733e-08 0
-7.1956e-10 1.02176e-08 0
-2.74578e-09 5.75079e-09 0
-4.08505e-09 5.94462e-09 0
-9.75518e-09 9.61561e-09 0
-1.9919e-08 1.10561e-08 0
-2.91481e-08 8.15012e-09 0
-3.3824e-08 3.74627e-09 0
-3.54269e-08 9.69769e-10 0
-3.71571e-08 3.87968e-10 0
-4.05884e-08 9.23854e-10 0
-4.53948e-08 1.51794e-09 0
-5.05195e-08 1.74018e-09 0
-5.50835e-08 1.61326e-09 0
-5.86684e-08 1.30541e-09 0
-6.12316e-08 9.61832e-10 0
-6.29296e-08 6.62788e-10 0
-6.39784e-08 4.3662e-10 0
-6.45781e-08 2.8254e-10 0
-6.48833e-08 1.87365e-10 0
-6.49994e-08 1.34449e-10 0
-6.49878e-08 1.07135e-10 0
-6.48714e-08 9.04742e-11 0
-6.46409e-08 7.12696e-11 0
-6.42661e-08 2.59374e-11 0
-6.36795e-08 -9.68798e-11 0
-6.27093e-08 -3.47023e-10 0
-6.11101e-08 -6.99692e-10 0
-5.8765e-08 -1.05206e-09 0
-5.57892e-08 -1.31386e-09 0
-5.24144e-08 -1.46987e-09 0
-4.88429e-08 -1.56009e-09 0
-4.51978e-08 -1.63493e-09 0
-4.15372e-08 -1.73224e-09 0
-3.78637e-08 -1.8669e-09 0
-3.41468e-08 -2.01716e-09 0
-3.03896e-08 -2.12418e-09 0
-2.66926e-08 -2.11787e-09 0
-2.32581e-08 -1.9483e-09 0
-2.03459e-08 -1.59672e-09 0
-1.81988e-08 -1.05776e-09 0
-1.70293e-08 -4.0472e-10 0
0.00412192 -1.10799e-05 0
0 -2.27208e-08 0
-1.38535e-12 -4.42448e-09 0
9.89747e-09 -1.58492e-08 0
2.59058e-08 -2.54065e-08 0
2.03397e-08 -5.22456e-08 0
4.96561e-08 -4.36971e-08 0
3.92224e-08 -2.06883e-09 0
2.52596e-08 2.86836e-09 0
6.81887e-09 -4.1755e-09 0
-7.79196e-09 -7.0127e-09 0
-1.42659e-08 -3.51459e-09 0
-1.38852e-08 2.83803e-09 0
-1.61337e-08 7.52224e-09 0
-2.43158e-08 9.56821e-09 0
-3.21412e-08 1.10328e-08 0
-3.53498e-08 1.30234e-08 0
-3.55e-08 1.46798e-08 0
-3.59861e-08 1.50424e-08 0
-3.85561e-08 1.40002e-08 0
-4.2933e-08 1.19727e-08 0
-4.79387e-08 9.50391e-09 0
-5.25068e-08 7.05875e-09 0
-5.6082e-08 4.93716e-09 0
-5.85687e-08 3.26689e-09 0
-6.01271e-08 2.04868e-09 0
-6.09974e-08 1.21463e-09 0
-6.14011e-08 6.7331e-10 0
-6.15029e-08 3.35375e-10 0
-6.14061e-08 1.23563e-10 0
-6.11613e-08 -2.80686e-11 0
-6.07732e-08 -1.7877e-10 0
-6.02006e-08 -3.79158e-10 0
-5.93795e-08 -6.81229e-10 0
-5.82459e-08 -1.18551e-09 0
-5.66212e-08 -2.02109e-09 0
-5.41346e-08 -3.17477e-09 0
-5.05227e-08 -4.41642e-09 0
-4.58998e-08 -5.48588e-09 0
-4.06025e-08 -6.27265e-09 0
-3.49513e-08 -6.8003e-09 0
-2.91782e-08 -7.13439e-09 0
-2.34583e-08 -7.33773e-09 0
-1.78922e-08 -7.45663e-09 0
-1.24865e-08 -7.48465e-09 0
-7.23677e-09 -7.33705e-09 0
-2.24336e-09 -6.88971e-09 0
2.26512e-09 -6.04678e-09 0
5.99011e-09 -4.7796e-09 0
8.67592e-09 -3.13658e-09 0
1.0212e-08 -1.29537e-09 0
0.00571177 -2.75924e-05 0
0 -6.47629e-07 0
3.81522e-12 -7.2817e-09 0
1.25754e-08 -2.49059e-08 0
3.1636e-08 -4.59842e-08 0
2.13008e-08 -6.17848e-08 0
3.43909e-08 -3.34398e-08 0
2.66812e-08 -1.61854e-11 0
1.87354e-08 -4.00227e-09 0
-1.09591e-08 -1.59733e-08 0
-2.96261e-08 -2.80998e-08 0
-3.18742e-08 -3.40863e-08 0
-3.01095e-08 -3.2992e-08 0
-3.40266e-08 -2.1197e-08 0
-4.50894e-08 -1.95018e-09 0
-5.41154e-08 1.58839e-08 0
-5.56793e-08 2.61228e-08 0
-5.07364e-08 2.82104e-08 0
-4.33066e-08 2.53439e-08 0
-3.70326e-08 2.07324e-08 0
-3.34393e-08 1.60194e-08 0
-3.21775e-08 1.17702e-08 0
-3.21828e-08 8.1792e-09 0
-3.25568e-08 5.33e-09 0
-3.2833e-08 3.21725e-09 0
-3.2879e-08 1.75299e-09 0
-3.27238e-08 8.00641e-10 0
-3.24372e-08 2.1278e-10 0
-3.20746e-08 -1.45028e-10 0
-3.16599e-08 -3.85323e-10 0
-3.11879e-08 -6.01833e-10 0
-3.06322e-08 -8.82223e-10 0
-2.99286e-08 -1.30703e-09 0
-2.89821e-08 -1.93617e-09 0
-2.77605e-08 -2.87863e-09 0
-2.61787e-08 -4.35188e-09 0
-2.37728e-08 -6.42351e-09 0
-2.00381e-08 -8.74695e-09 0
-1.5046e-08 -1.08135e-08 0
-9.25125e-09 -1.23297e-08 0
-3.08529e-09 -1.32532e-08 0
3.14347e-09 -1.36558e-08 0
9.16687e-09 -1.36516e-08 0
1.48172e-08 -1.33783e-08 0
2.01178e-08 -1.29178e-08 0
2.51672e-08 -1.2213e-08 0
2.99361e-08 -1.11075e-08 0
3.42232e-08 -9.47153e-09 0
3.77463e-08 -7.28013e-09 0
4.02748e-08 -4.66915e-09 0
4.18278e-08 -2.07574e-09 0
0.00624407 -4.47187e-05 0
0 -1.25994e-06 0
2.29816e-15 -1.33648e-08 0
5.27902e-09 -3.61554e-08 0
1.08671e-08 -4.65161e-08 0
-1.48536e-09 -3.71178e-08 0
-5.76373e-12 -1.33997e-08 0
-9.46704e-11 -1.23129e-10 0
1.13498e-10 -1.23279e-10 0
-1.36166e-08 -1.51454e-08 0
-4.26711e-08 -4.30613e-08 0
-5.07515e-08 -5.82386e-08 0
-5.04977e-08 -5.33611e-08 0
-5.77487e-08 -3.03259e-08 0
-6.79613e-08 2.75988e-10 0
-7.4468e-08 2.34298e-08 0
-7.42081e-08 3.27388e-08 0
-6.64789e-08 3.05321e-08 0
-5.36209e-08 2.3344e-08 0
-4.00586e-08 1.61259e-08 0
-2.91987e-08 1.05441e-08 0
-2.19516e-08 6.49202e-09 0
-1.75618e-08 3.56749e-09 0
-1.49141e-08 1.51835e-09 0
-1.31961e-08 1.83408e-10 0
-1.19704e-08 -5.95036e-10 0
-1.10361e-08 -9.84113e-10 0
-1.02996e-08 -1.14071e-09 0
-9.70423e-09 -1.19682e-09 0
-9.20079e-09 -1.25701e-09 0
-8.73893e-09 -1.40353e-09 0
-8.27858e-09 -1.71695e-09 0
-7.7668e-09 -2.29215e-09 0
-7.07997e-09 -3.19229e-09 0
-6.17858e-09 -4.49011e-09 0
-5.14499e-09 -6.47523e-09 0
-3.49397e-09 -9.40312e-09 0
-3.05178e-10 -1.28839e-08 0
4.51085e-09 -1.60834e-08 0
1.03681e-08 -1.84053e-08 0
1.67056e-08 -1.96744e-08 0
2.31286e-08 -1.99664e-08 0
2.92483e-08 -1.94896e-08 0
3.48258e-08 -1.85447e-08 0
3.99554e-08 -1.73755e-08 0
4.48659e-08 -1.59961e-08 0
4.95888e-08 -1.42295e-08 0
5.39085e-08 -1.19097e-08 0
5.75202e-08 -9.01175e-09 0
6.01786e-08 -5.71199e-09 0
6.19119e-08 -2.69363e-09 0
0.00634064 -5.89153e-05 0
0 -1.13679e-06 0
-9.69823e-12 -1.46763e-08 0
-3.42091e-09 -3.12961e-08 0
-4.37824e-09 -3.64345e-08 0
-1.55969e-08 -3.83413e-08 0
-1.40113e-08 -1.85297e-08 0
-1.05542e-10 1.02068e-10 0
1.10759e-11 -1.10759e-11 0
1.07596e-10 -1.19781e-10 0
-2.26538e-08 -2.39903e-08 0
-6.04381e-08 -6.13154e-08 0
-6.28007e-08 -6.43615e-08 0
-6.54526e-08 -3.49504e-08 0
-6.73964e-08 1.24538e-09 0
-6.93016e-08 2.72174e-08 0
-7.11009e-08 3.56481e-08 0
-6.80595e-08 2.95694e-08 0
-5.74237e-08 1.80375e-08 0
-4.24592e-08 8.07647e-09 0
-2.83791e-08 1.74414e-09 0
-1.79875e-08 -1.68906e-09 0
-1.13564e-08 -3.34461e-09 0
-7.40845e-09 -3.9548e-09 0
-5.08186e-09 -3.94137e-09 0
-3.6772e-09 -3.58416e-09 0
-2.80111e-09 -3.08932e-09 0
-2.23987e-09 -2.60409e-09 0
-1.87262e-09 -2.22697e-09 0
-1.62444e-09 -2.02412e-09 0
-1.43798e-09 -2.04242e-09 0
-1.28199e-09 -2.33004e-09 0
-1.15196e-09 -2.98225e-09 0
-9.30678e-10 -4.09566e-09 0
-4.95417e-10 -5.699e-09 0
-1.0268e-10 -8.08107e-09 0
5.73863e-10 -1.17606e-08 0
3.05339e-09 -1.64506e-08 0
7.7964e-09 -2.09621e-08 0
1.40449e-08 -2.4252e-08 0
2.10309e-08 -2.59061e-08 0
2.81684e-08 -2.5992e-08 0
3.48595e-08 -2.4857e-08 0
4.08145e-08 -2.30375e-08 0
4.62673e-08 -2.10086e-08 0
5.15988e-08 -1.88947e-08 0
5.68521e-08 -1.65038e-08 0
6.17294e-08 -1.36219e-08 0
6.58625e-08 -1.01982e-08 0
6.89775e-08 -6.40902e-09 0
7.10145e-08 -3.1072e-09 0
0.00626011 -6.78497e-05 0
0 -7.87074e-07 0
-5.71356e-12 -9.43751e-09 0
-3.76359e-09 -2.3925e-08 0
-4.26133e-09 -3.06408e-08 0
-2.37243e-08 -2.90455e-08 0
-3.49115e-08 -1.59497e-08 0
-1.43285e-08 -3.05706e-09 0
-1.02474e-10 1.01728e-10 0
5.35636e-12 -5.35636e-12 0
9.79152e-11 -1.17357e-10 0
-2.77469e-08 -3.57606e-08 0
-4.55324e-08 -6.24229e-08 0
-5.24438e-08 -3.33758e-08 0
-5.04943e-08 4.11439e-09 0
-4.66798e-08 3.05685e-08 0
-4.80023e-08 3.80053e-08 0
-5.10241e-08 2.88984e-08 0
-4.80785e-08 1.35709e-08 0
-3.83541e-08 9.24437e-10 0
-2.68072e-08 -6.2512e-09 0
-1.76607e-08 -9.07271e-09 0
-1.20404e-08 -9.36701e-09 0
-9.19963e-09 -8.43406e-09 0
-8.02917e-09 -7.0323e-09 0
-7.70491e-09 -5.58576e-09 0
-7.75327e-09 -4.31835e-09 0
-7.93983e-09 -3.3305e-09 0
-8.16361e-09 -2.65345e-09 0
-8.39132e-09 -2.2924e-09 0
-8.61128e-09 -2.25338e-09 0
-8.82586e-09 -2.55194e-09 0
-9.09491e-09 -3.26305e-09 0
-9.37752e-09 -4.53861e-09 0
-9.44513e-09 -6.43114e-09 0
-9.62805e-09 -9.14791e-09 0
-9.98806e-09 -1.34016e-08 0
-8.26742e-09 -1.91027e-08 0
-3.24658e-09 -2.47505e-08 0
4.01932e-09 -2.88434e-08 0
1.24224e-08 -3.07573e-08 0
2.10133e-08 -3.05863e-08 0
2.88804e-08 -2.88172e-08 0
3.57849e-08 -2.62005e-08 0
4.21873e-08 -2.34278e-08 0
4.85849e-08 -2.07335e-08 0
5.49412e-08 -1.79078e-08 0
6.08161e-08 -1.4682e-08 0
6.57718e-08 -1.09682e-08 0
6.95357e-08 -6.90894e-09 0
7.1915e-08 -3.38755e-09 0
0.00608783 -7.16135e-05 0
0 -5.52275e-07 0
-4.52738e-14 -7.16201e-09 0
-1.965e-09 -1.78629e-08 0
-6.35322e-09 -2.28403e-08 0
-2.47336e-08 -1.95156e-08 0
-4.33461e-08 -7.70308e-09 0
-3.84625e-08 -7.10515e-10 0
-2.00932e-08 -3.83858e-10 0
-1.09892e-10 9.42897e-11 0
9.5023e-11 8.81493e-11 0
2.7647e-12 -1.9201e-08 0
-2.89855e-08 -3.28119e-08 0
-5.09932e-08 -1.25808e-08 0
-5.16615e-08 1.33566e-08 0
-3.55678e-08 2.92238e-08 0
-2.28231e-08 3.1181e-08 0
-2.30271e-08 2.15505e-08 0
-2.80532e-08 7.65054e-09 0
-2.94672e-08 -3.49775e-09 0
-2.725e-08 -9.38721e-09 0
-2.47271e-08 -1.10329e-08 0
-2.37094e-08 -1.03006e-08 0
-2.41502e-08 -8.59163e-09 0
-2.53534e-08 -6.7061e-09 0
-2.67319e-08 -5.03157e-09 0
-2.79797e-08 -3.71496e-09 0
-2.90001e-08 -2.77883e-09 0
-2.98069e-08 -2.1954e-09 0
-3.04604e-08 -1.93177e-09 0
-3.10277e-08 -1.97943e-09 0
-3.15667e-08 -2.35709e-09 0
-3.21883e-08 -3.11981e-09 0
-3.29621e-08 -4.43373e-09 0
-3.36417e-08 -6.46006e-09 0
-3.45167e-08 -9.35555e-09 0
-3.61849e-08 -1.37947e-08 0
-3.56369e-08 -1.9677e-08 0
-3.01639e-08 -2.51519e-08 0
-2.14824e-08 -2.86808e-08 0
-1.11376e-08 -3.00887e-08 0
-4.55507e-10 -2.97017e-08 0
9.3966e-09 -2.79301e-08 0
1.82463e-08 -2.5405e-08 0
2.6661e-08 -2.27825e-08 0
3.50488e-08 -2.02819e-08 0
4.31506e-08 -1.76474e-08 0
5.03723e-08 -1.45827e-08 0
5.62713e-08 -1.10069e-08 0
6.06573e-08 -7.06347e-09 0
6.32759e-08 -3.53731e-09 0
0.00580714 -7.25446e-05 0
0 -4.70234e-07 0
5.87315e-13 -3.85727e-09 0
-1.07466e-09 -1.05754e-08 0
-9.94734e-09 -1.50982e-08 0
-3.16054e-08 -1.37648e-08 0
-5.26288e-08 -1.90987e-09 0
-5.28101e-08 5.83291e-09 0
-4.44942e-08 -1.02125e-08 0
-2.77742e-08 -1.25709e-08 0
-2.54035e-08 -1.77759e-13 0
-2.84307e-08 -3.28781e-09 0
-5.15893e-08 1.07296e-09 0
-7.19029e-08 1.53249e-08 0
-6.6068e-08 2.1759e-08 0
-3.62586e-08 1.75019e-08 0
-1.19398e-08 8.95109e-09 0
-1.14876e-08 1.18172e-09 0
-2.52743e-08 -3.82323e-09 0
-3.78425e-08 -5.91218e-09 0
-4.44808e-08 -6.03555e-09 0
-4.75986e-08 -5.31507e-09 0
-4.97917e-08 -4.40694e-09 0
-5.19677e-08 -3.54336e-09 0
-5.40956e-08 -2.78637e-09 0
-5.59743e-08 -2.16097e-09 0
-5.75054e-08 -1.68267e-09 0
-5.87042e-08 -1.35842e-09 0
-5.96481e-08 -1.19037e-09 0
-6.04375e-08 -1.1834e-09 0
-6.11754e-08 -1.35755e-09 0
-6.19618e-08 -1.7598e-09 0
-6.29398e-08 -2.44969e-09 0
-6.42555e-08 -3.54254e-09 0
-6.57868e-08 -5.26569e-09 0
-6.78327e-08 -7.80051e-09 0
-7.14036e-08 -1.14582e-08 0
-7.29886e-08 -1.57576e-08 0
-6.77996e-08 -1.86318e-08 0
-5.89027e-08 -1.94073e-08 0
-4.80015e-08 -1.93973e-08 0
-3.63782e-08 -1.9268e-08 0
-2.47507e-08 -1.8806e-08 0
-1.33894e-08 -1.78731e-08 0
-2.26173e-09 -1.67036e-08 0
8.53765e-09 -1.53911e-08 0
1.84464e-08 -1.37161e-08 0
2.68329e-08 -1.14934e-08 0
3.33976e-08 -8.74448e-09 0
3.81191e-08 -5.68592e-09 0
4.07705e-08 -2.94179e-09 0
0.00523976 -6.93234e-05 0
0 -4.86302e-07 0
4.79071e-12 -9.02944e-10 0
-7.56434e-10 -3.38035e-09 0
-1.25322e-08 -5.82211e-09 0
-3.52542e-08 -5.82978e-09 0
-5.67021e-08 -3.51044e-09 0
-5.85749e-08 -3.25619e-10 0
-5.13252e-08 -4.82017e-09 0
-5.91864e-08 -6.20144e-09 0
-5.6032e-08 4.04006e-09 0
-5.13792e-08 1.22737e-08 0
-5.08911e-08 1.55969e-08 0
-4.92068e-08 1.43332e-08 0
-3.69818e-08 9.39561e-09 0
-1.60648e-08 1.82142e-09 0
-5.7783e-09 -6.13795e-09 0
-1.54753e-08 -1.0244e-08 0
-3.42056e-08 -8.89783e-09 0
-4.87651e-08 -4.8589e-09 0
-5.58586e-08 -1.46557e-09 0
-5.8372e-08 1.52061e-10 0
-5.93102e-08 4.8996e-10 0
-6.00411e-08 3.03129e-10 0
-6.08662e-08 3.69513e-11 0
-6.1727e-08 -1.54087e-10 0
-6.25349e-08 -2.61296e-10 0
-6.32556e-08 -3.21526e-10 0
-6.39061e-08 -3.74234e-10 0
-6.45376e-08 -4.52717e-10 0
-6.52238e-08 -5.86508e-10 0
-6.60612e-08 -8.09909e-10 0
-6.719e-08 -1.16066e-09 0
-6.87663e-08 -1.68703e-09 0
-7.08576e-08 -2.54095e-09 0
-7.38735e-08 -3.83729e-09 0
-7.84854e-08 -5.30683e-09 0
-8.11688e-08 -6.39632e-09 0
-7.70043e-08 -6.32597e-09 0
-7.06317e-08 -5.49243e-09 0
-6.35122e-08 -5.32343e-09 0
-5.62469e-08 -6.10471e-09 0
-4.80726e-08 -7.02898e-09 0
-3.87806e-08 -7.36552e-09 0
-2.90177e-08 -7.08914e-09 0
-1.9497e-08 -6.46272e-09 0
-1.08917e-08 -5.60898e-09 0
-3.6897e-09 -4.54813e-09 0
1.94524e-09 -3.31562e-09 0
6.01896e-09 -2.05104e-09 0
8.24502e-09 -1.06007e-09 0
0.00381428 -4.73881e-05 0
0 0 0
3.80589e-12 0 0
-3.64254e-10 0 0
-6.30933e-09 0 0
-1.66263e-08 0 0
-2.65142e-08 0 0
-2.99006e-08 0 0
-2.69238e-08 0 0
-3.14204e-08 0 0
-3.06308e-08 0 0
-2.29458e-08 0 0
-1.34989e-08 0 0
-6.59531e-09 0 0
-1.72922e-09 0 0
1.52077e-09 0 0
-5.47481e-10 0 0
-8.49638e-09 0 0
-1.76058e-08 0 0
-2.36341e-08 0 0
-2.60748e-08 0 0
-2.64681e-08 0 0
-2.62193e-08 0 0
-2.59887e-08 0 0
-2.59355e-08 0 0
-2.60257e-08 0 0
-2.61941e-08 0 0
-2.6397e-08 0 0
-2.6619e-08 0 0
-2.68673e-08 0 0
-2.71662e-08 0 0
-2.75569e-08 0 0
-2.81015e-08 0 0
-2.88713e-08 0 0
-2.99464e-08 0 0
-3.15628e-08 0 0
-3.38241e-08 0 0
-3.50343e-08 0 0
-3.3217e-08 0 0
-3.10366e-08 0 0
-2.91368e-08 0 0
-2.75739e-08 0 0
-2.54867e-08 0 0
-2.24798e-08 0 0
-1.89615e-08 0 0
-1.54087e-08 0 0
-1.21388e-08 0 0
-9.33968e-09 0 0
-7.08382e-09 0 0
-5.40411e-09 0 0
-4.48482e-09 0 0
0.00139035 0 0
0 0 5.42204e-07
4.35372e-13 0 -5.86499e-10
9.32829e-09 0 4.41102e-09
1.92843e-08 0 2.4962e-08
-4.68526e-08 0 2.088e-08
-3.72866e-09 0 3.088e-10
4.23728e-09 0 -4.85367e-09
7.81792e-09 0 -9.52633e-09
1.28801e-08 0 -1.00914e-08
1.70232e-08 0 -8.68266e-09
2.36676e-08 0 -6.42195e-09
2.97992e-08 0 -3.63069e-09
2.75774e-08 0 -1.00607e-09
1.46536e-08 0 5.03895e-10
-2.81644e-09 0 5.28342e-10
-1.747e-08 0 -1.78602e-10
-2.7272e-08 0 -5.46985e-10
-3.42959e-08 0 -2.5849e-10
-4.07173e-08 0 3.23736e-10
-4.71497e-08 0 7.81827e-10
-5.31841e-08 0 9.55854e-10
-5.82835e-08 0 8.94638e-10
-6.21978e-08 0 7.13855e-10
-6.49714e-08 0 5.08188e-10
-6.68086e-08 0 3.28354e-10
-6.79533e-08 0 1.90444e-10
-6.86227e-08 0 9.17649e-11
-6.89828e-08 0 2.2548e-11
-6.91475e-08 0 -2.78612e-11
-6.91851e-08 0 -6.85763e-11
-6.91255e-08 0 -1.06179e-10
-6.89671e-08 0 -1.44692e-10
-6.86845e-08 0 -1.89967e-10
-6.82013e-08 0 -2.55142e-10
-6.73309e-08 0 -3.49159e-10
-6.5824e-08 0 -4.53474e-10
-6.35589e-08 0 -5.27275e-10
-6.06324e-08 0 -5.41802e-10
-5.72591e-08 0 -4.98738e-10
-5.36378e-08 0 -4.19733e-10
-4.98971e-08 0 -3.29996e-10
-4.61007e-08 0 -2.51649e-10
-4.22606e-08 0 -2.01263e-10
-3.83614e-08 0 -1.83433e-10
-3.44192e-08 0 -1.86877e-10
-3.05393e-08 0 -1.90379e-10
-2.69244e-08 0 -1.74281e-10
-2.38385e-08 0 -1.32533e-10
-2.15487e-08 0 -6.75151e-11
-2.03175e-08 0 1.7875e-11
0.00409276 0 1.16194e-05
0.0036 -3.13742e-07 -6.46743e-08
0.0035998 -0.00137063 -1.57009e-05
0.00672542 -0.00387825 0.00010555
0.0135966 -0.00597596 -0.000616693
0.0235971 -0.0143932 -0.00437352
0.0461988 -0.0131359 -0.00489087
0.0496597 -0.00180097 -0.00166192
0.0494075 0.0027351 -0.000184272
0.0444008 0.00504846 0.000534067
0.0387497 0.00520818 0.000495744
0.0335855 0.00454695 0.000217118
0.0292577 0.00365409 -5.00999e-05
0.0258629 0.00272806 -0.000234449
0.0233209 0.00188718 -0.000320446
0.0214555 0.00122833 -0.000313091
0.0200891 0.000782496 -0.000241674
0.0190898 0.000510009 -0.000150786
0.0183668 0.000346644 -7.50126e-05
0.0178546 0.000242051 -2.67139e-05
0.0175016 0.000168948 -2.29304e-06
0.017266 0.000115633 6.96656e-06
0.0171135 7.7151e-05 8.57991e-06
0.0170173 5.05184e-05 7.21271e-06
0.0169573 3.31923e-05 5.18915e-06
0.0169189 2.29208e-05 3.42917e-06
0.0168922 1.78894e-05 2.16894e-06
0.01687 1.68048e-05 1.37722e-06
0.0168471 1.88842e-05 9.55121e-07
0.0168193 2.37971e-05 8.16607e-07
0.0167826 3.15996e-05 9.1534e-07
0.0167329 4.26794e-05 1.25295e-06
0.0166649 5.76715e-05 1.86699e-06
0.0165724 7.73286e-05 2.80479e-06
0.0164478 0.000102548 4.20761e-06
0.016282 0.000134372 6.45981e-06
0.0160645 0.000172835 9.89344e-06
0.0157858 0.000214888 1.41173e-05
0.015443 0.000254062 1.79691e-05
0.0150432 0.000282826 2.02609e-05
0.0146037 0.000295637 2.04511e-05
0.0141478 0.000290671 1.87417e-05
0.0136999 0.000269801 1.58076e-05
0.0132812 0.000237391 1.24865e-05
0.0129073 0.000198593 9.50016e-06
0.0125874 0.000157762 7.2258e-06
0.0123257 0.000117595 5.63925e-06
0.0121234 7.91262e-05 4.40527e-06
0.0119798 4.23723e-05 3.04257e-06
0.0118926 9.95949e-06 3.55968e-06
0.0118589 -4.58075e-06 1.67696e-05
0.0118589 -4.68909e-06 2.86861e-05
0.01 -1.42322e-07 -1.47377e-06
0.0100008 -0.00299092 -0.000588604
0.0148058 -0.00991826 -0.000768137
0.024147 -0.0177001 -0.00130792
0.0383792 -0.0322876 -0.00339599
0.0588887 -0.0244994 -0.000807403
0.0561707 -0.00260428 0.00313111
0.0556397 0.00521827 0.00331537
0.0498718 0.0102628 0.00288606
0.0443768 0.0104589 0.00194946
0.0398609 0.00938395 0.000993431
0.0361472 0.00789879 0.000259874
0.0331692 0.00630689 -0.00024745
0.0308738 0.00482538 -0.000518506
0.0291171 0.00357929 -0.000557457
0.0277816 0.00259361 -0.00044236
0.0267896 0.00184061 -0.000279478
0.0260767 0.00127992 -0.000141739
0.0255821 0.000871412 -5.32601e-05
0.0252511 0.00057992 -7.71915e-06
0.0250379 0.000376845 1.03535e-05
0.0249057 0.000239536 1.43079e-05
0.0248263 0.000150131 1.25034e-05
0.0247792 9.4789e-05 9.17046e-06
0.0247498 6.3203e-05 6.03728e-06
0.0247282 4.81245e-05 3.59289e-06
0.0247073 4.4834e-05 1.8218e-06
0.0246821 5.06207e-05 5.58776e-07
0.0246479 6.43392e-05 -3.66215e-07
0.0246003 8.60728e-05 -1.08017e-06
0.0245338 0.000116922 -1.64139e-06
0.0244417 0.000158837 -2.02859e-06
0.0243152 0.000214233 -2.2186e-06
0.0241429 0.000285644 -2.09232e-06
0.0239118 0.000375783 -9.35487e-07
0.0236061 0.000485438 2.20295e-06
0.0232097 0.000608261 6.817e-06
0.0227146 0.000728749 1.0545e-05
0.0221275 0.000827235 1.09756e-05
0.0214706 0.000887387 7.29455e-06
0.0207765 0.000901071 3.99048e-07
0.0200806 0.000869183 -7.85962e-06
0.0194156 0.000799603 -1.54251e-05
0.0188075 0.00070372 -2.06623e-05
0.0182737 0.000592714 -2.28641e-05
0.0178246 0.000474975 -2.23493e-05
0.0174652 0.000355673 -2.00793e-05
0.0171975 0.000237839 -1.73911e-05
0.0170205 0.000124066 -1.28272e-05
0.016936 2.9133e-05 1.26252e-05
0.0169359 -1.0289e-05 3.47706e-05
0.0148 -9.72894e-07 -1.76429e-06
0.0148024 -0.00528497 -0.00112483
0.0203305 -0.0163468 -0.00242195
0.0273684 -0.0285879 -0.00395644
0.0319392 -0.0457782 -0.00573724
0.0304478 -0.028272 -0.00135693
0.026734 -1.23666e-05 0.00327641
0.0261973 0.00713042 0.00346179
0.0298248 0.014623 0.00331843
0.0302277 0.0141476 0.00232113
0.0294268 0.0124058 0.00133535
0.0285729 0.0105564 0.000483821
0.0278856 0.00858046 -0.000114774
0.0275274 0.00662963 -0.00042681
0.0274015 0.00491294 -0.000472229
0.0274057 0.00351071 -0.000361063
0.0274701 0.00243258 -0.000208824
0.0275501 0.00164469 -8.36724e-05
0.0276232 0.00108868 -6.33189e-06
0.0276835 0.000704887 2.94757e-05
0.0277327 0.000445289 3.8711e-05
0.0277729 0.000274579 3.48697e-05
0.0278052 0.000166993 2.66659e-05
0.0278291 0.000103582 1.84526e-05
0.0278443 7.06839e-05 1.18037e-05
0.0278499 5.89616e-05 6.91315e-06
0.0278453 6.26042e-05 3.45356e-06
0.0278293 7.86105e-05 9.95311e-07
0.0277999 0.000106205 -8.2778e-07
0.027754 0.000146401 -2.27797e-06
0.0276867 0.000201719 -3.49219e-06
0.0275914 0.000276083 -4.39503e-06
0.0274586 0.000374308 -4.81475e-06
0.0272752 0.000501115 -4.60813e-06
0.0270252 0.00066147 -2.59214e-06
0.0266885 0.000858448 3.52718e-06
0.0262406 0.0010834 1.33904e-05
0.0256659 0.00130992 2.21997e-05
0.0249707 0.00150219 2.46632e-05
0.0241837 0.00162907 1.88391e-05
0.0233474 0.00167366 6.35313e-06
0.0225077 0.00163505 -9.21299e-06
0.0217057 0.00152504 -2.38559e-05
0.020973 0.00136236 -3.4387e-05
0.0203302 0.00116647 -3.94114e-05
0.0197888 0.000952794 -3.94954e-05
0.0193549 0.000731163 -3.63173e-05
0.0190312 0.000507304 -3.18965e-05
0.0188176 0.000285764 -2.59194e-05
0.0187157 8.11359e-05 5.14037e-06
0.0187155 -1.38945e-05 3.24789e-05
0.018 -1.96626e-06 -1.7249e-06
0.018003 -0.00694436 -0.00188527
0.0207081 -0.0187946 -0.00491303
0.0206186 -0.0246587 -0.00631895
0.0160206 -0.0267402 -0.00759166
-1.60653e-06 -0.0139415 -0.00430151
9.53674e-05 2.37447e-05 9.19335e-07
-3.0781e-05 3.21901e-05 0.000634852
0.0066707 0.00421592 0.00137778
0.0137377 0.00963469 0.00132296
0.0171897 0.0105723 0.000902
0.018904 0.00959138 0.000345111
0.0205603 0.0078718 -0.000136326
0.0222596 0.00592974 -0.000364635
0.0238213 0.00422224 -0.000376213
0.0251562 0.00286645 -0.000278383
0.0262391 0.00187003 -0.00015422
0.0270724 0.00118511 -4.93241e-05
0.0276814 0.000733872 1.83938e-05
0.028109 0.00044201 4.96857e-05
0.0284017 0.000255961 5.5265e-05
0.0285992 0.000141417 4.75076e-05
0.0287306 7.60675e-05 3.55258e-05
0.0288157 4.45304e-05 2.41833e-05
0.028868 3.61315e-05 1.52355e-05
0.0288964 4.39871e-05 8.79561e-06
0.0289062 6.4387e-05 4.35473e-06
0.0289006 9.6233e-05 1.30547e-06
0.0288802 0.000140592 -8.37784e-07
0.0288437 0.000200383 -2.38161e-06
0.0287877 0.000280168 -3.46335e-06
0.0287061 0.000386265 -3.83871e-06
0.0285898 0.000526595 -2.84398e-06
0.0284244 0.000708915 -5.92974e-08
0.0281905 0.000941382 6.43004e-06
0.0278621 0.00123229 2.19238e-05
0.0274008 0.00157367 4.74501e-05
0.026777 0.00192628 7.33249e-05
0.0259962 0.00223216 8.72291e-05
0.0250982 0.00244008 8.35502e-05
0.0241422 0.00252212 6.44528e-05
0.0231888 0.00247616 3.68407e-05
0.0222884 0.0023199 8.78635e-06
0.0214761 0.0020817 -1.33644e-05
0.0207719 0.00179104 -2.69122e-05
0.0201852 0.00147126 -3.28469e-05
0.0197194 0.0011372 -3.40544e-05
0.0193759 0.000797417 -3.35867e-05
0.019153 0.000458856 -3.16328e-05
0.0190504 0.00013857 -2.85438e-06
0.0190501 -1.36844e-05 2.42638e-05
0.0196 -2.82505e-06 -2.61139e-06
0.019601 -0.00582223 -0.0027447
0.0190685 -0.0129915 -0.00645641
0.0159971 -0.0159526 -0.00666342
0.0109906 -0.0149217 -0.00668184
0.00179098 -0.00614121 -0.00501645
7.03034e-05 -6.42905e-05 -0.00128381
3.35095e-05 -3.35095e-05 -4.02266e-08
-3.01326e-05 3.14293e-05 0.000240488
0.00407513 0.00295386 0.000507629
0.00939751 0.00695187 0.000434871
0.012317 0.0072824 9.12888e-05
0.0155613 0.00558921 -0.00027596
0.0187137 0.00380592 -0.000412202
0.0214115 0.00238763 -0.000389961
0.0235962 0.00134329 -0.000302935
0.0253086 0.000647664 -0.000196197
0.0265971 0.000243504 -9.41075e-05
0.0275176 3.93808e-05 -1.6311e-05
0.0281436 -5.1019e-05 2.79944e-05
0.0285538 -8.33753e-05 4.32694e-05
0.0288155 -8.58935e-05 4.09563e-05
0.0289789 -7.18517e-05 3.15894e-05
0.0290784 -4.80475e-05 2.15078e-05
0.0291364 -1.80943e-05 1.33162e-05
0.0291675 1.66554e-05 7.48061e-06
0.0291805 5.67666e-05 3.60795e-06
0.0291805 0.000104461 1.13527e-06
0.0291696 0.000163468 -3.64149e-07
0.0291477 0.000239048 -1.05895e-06
0.0291124 0.000338016 -9.16982e-07
0.0290584 0.000469095 5.92566e-07
0.0289775 0.000643726 5.12195e-06
0.0288543 0.000873959 1.4101e-05
0.0286644 0.0011723 3.07704e-05
0.0283736 0.00155603 6.70185e-05
0.0279212 0.00202319 0.000129722
0.027251 0.00251945 0.000200519
0.0263681 0.00295589 0.000250084
0.0253337 0.00325457 0.000261815
0.0242358 0.00337518 0.000237055
0.0231579 0.00331683 0.000189532
0.022161 0.00310667 0.000136134
0.0212814 0.00278575 8.966e-05
0.0205341 0.00239537 5.52817e-05
0.0199218 0.00196729 3.13635e-05
0.0194435 0.00152112 1.33248e-05
0.019097 0.00106813 -3.0876e-06
0.0188784 0.000617823 -1.79257e-05
0.0187828 0.000192075 -5.3748e-06
0.0187825 -1.04954e-05 1.37652e-05
0.0196 -1.35154e-06 -3.61865e-06
0.0195999 -0.00364065 -0.00311786
0.0188149 -0.00794894 -0.00649182
0.0175755 -0.00790174 -0.00605369
0.0133031 -0.00405609 -0.00556399
0.00921196 0.00274452 -0.00528905
0.00618613 0.00320852 -0.00303805
7.0452e-05 -5.81289e-05 -0.00063705
2.79963e-05 -2.79963e-05 -1.28818e-07
-2.95371e-05 3.07281e-05 8.37617e-05
0.00292355 0.00222205 0.000344077
0.00738558 0.00354774 0.000269284
0.0127328 0.00180003 -0.000116135
0.017392 0.000462449 -0.000280414
0.0209722 -0.000311304 -0.000305111
0.0236039 -0.000757038 -0.000281963
0.0255067 -0.000948935 -0.000232596
0.0268444 -0.000930154 -0.000160041
0.0277379 -0.000786239 -8.37784e-05
0.0282995 -0.000606395 -2.65287e-05
0.0286332 -0.000442369 4.16364e-06
0.0288223 -0.000309785 1.44878e-05
0.0289249 -0.000206592 1.41981e-05
0.0289782 -0.000125864 1.03741e-05
0.0290043 -6.04935e-05 6.48644e-06
0.0290162 -4.01812e-06 3.65995e-06
0.0290209 4.95874e-05 1.97823e-06
0.0290221 0.000106274 1.24304e-06
0.0290214 0.000172334 1.33642e-06
0.0290188 0.000254977 2.45095e-06
0.0290128 0.000362875 5.06585e-06
0.0289991 0.000506673 1.01911e-05
0.0289706 0.000700806 2.10149e-05
0.0289126 0.000962532 4.14613e-05
0.0287949 0.00130981 7.75176e-05
0.0285725 0.00177181 0.000154219
0.0281536 0.00235906 0.000295446
0.0274334 0.00300011 0.000468812
0.026417 0.0035649 0.000605578
0.0252041 0.00394477 0.000661639
0.0239312 0.00408997 0.000635425
0.0227139 0.00400609 0.000554977
0.0216231 0.00373448 0.000454888
0.0206893 0.00333106 0.000359838
0.0199161 0.00284923 0.000279453
0.0192955 0.00232795 0.000211796
0.0188195 0.00179001 0.000150708
0.0184824 0.0012485 9.1181e-05
0.0182775 0.000715923 3.42789e-05
0.0181943 0.000221344 6.43714e-06
0.0181939 -1.09977e-05 5.66779e-06
0.018 -8.71491e-07 -3.5979e-06
0.018001 -0.00197199 -0.00304014
0.0183369 -0.00375817 -0.00613808
0.0184294 -0.00247133 -0.00529275
0.0174594 0.000845008 -0.00424139
0.0172132 0.0072271 -0.00396848
0.017943 0.0126329 -0.00292583
0.0110426 0.00693509 -0.00142245
7.19914e-05 -4.42664e-05 -0.000414691
-2.25212e-05 -5.19799e-05 5.58738e-07
7.92628e-06 -0.000558573 0.000746561
0.00850923 -0.00256862 0.00110264
0.0160219 -0.00425262 0.000514557
0.021112 -0.00416492 0.000241364
0.024269 -0.00351455 0.000110895
0.0261449 -0.00288249 -7.65228e-06
0.0272218 -0.00232989 -0.000112883
0.0278049 -0.00180396 -0.000158785
0.028084 -0.00131497 -0.000141563
0.028185 -0.000907183 -9.61235e-05
0.0281935 -0.00060076 -5.4052e-05
0.0281632 -0.000385032 -2.66365e-05
0.0281235 -0.000236962 -1.20253e-05
0.0280883 -0.000134498 -5.09538e-06
0.0280627 -6.05459e-05 -1.88344e-06
0.0280477 -2.53716e-06 -1.70006e-07
0.0280429 4.8996e-05 1.1357e-06
0.0280477 0.00010178 2.6107e-06
0.0280618 0.000162927 4.72083e-06
0.0280853 0.000239986 8.19436e-06
0.028118 0.000342053 1.42296e-05
0.028158 0.00048052 2.4692e-05
0.0282009 0.000670986 4.47192e-05
0.0282347 0.000934834 8.26118e-05
0.0282265 0.00129577 0.000150012
0.0281206 0.00179245 0.000294218
0.0277921 0.00244806 0.000572953
0.0270584 0.00317375 0.000927823
0.0259214 0.00379973 0.00121306
0.0245355 0.00419804 0.00133744
0.0231068 0.0043219 0.00130154
0.0217847 0.00419173 0.00116373
0.02064 0.00386552 0.000987895
0.0196875 0.00341084 0.000814833
0.0189136 0.00288706 0.000658884
0.0182992 0.00233405 0.000517406
0.0178311 0.00177292 0.000382793
0.0175021 0.00121571 0.00025
0.0173051 0.000677058 0.000122725
0.0172281 0.000193734 3.01504e-05
0.0172278 -2.72686e-05 -1.43035e-06
0.0148 -4.89347e-07 -3.1862e-06
0.0148015 -0.00100735 -0.00281456
0.0162521 -0.00155199 -0.00540655
0.0178762 0.000129797 -0.00431206
0.0192943 0.00335747 -0.00313594
0.0211142 0.00746389 -0.00289971
0.0249342 0.0129711 -0.002402
0.0282128 0.0195538 -0.001464
0.0231658 0.0113641 -0.000306172
0.023596 1.48451e-10 0.000633993
0.0267562 -0.00665537 0.00156437
0.0303851 -0.0130387 0.00211688
0.0314264 -0.0110958 0.00167099
0.0309118 -0.00790573 0.0012297
0.029819 -0.00532001 0.000803569
0.0286568 -0.00355228 0.000385574
0.0276319 -0.0023737 4.05714e-05
0.026808 -0.00156011 -0.000152495
0.0261859 -0.000992661 -0.000195396
0.0257379 -0.000611636 -0.000156352
0.025427 -0.000368489 -9.98368e-05
0.0252185 -0.000217854 -5.5588e-05
0.0250835 -0.000124056 -2.81655e-05
0.0250004 -6.31114e-05 -1.3058e-05
0.0249537 -2.00364e-05 -5.10219e-06
0.0249334 1.45977e-05 -7.38989e-07
0.0249338 4.72294e-05 2.12976e-06
0.024952 8.29742e-05 4.76131e-06
0.0249878 0.000126736 8.1052e-06
0.0250429 0.00018408 1.33039e-05
0.0251201 0.000262252 2.21961e-05
0.0252221 0.000371184 3.77819e-05
0.0253499 0.000524704 6.70941e-05
0.0254982 0.000743932 0.000123471
0.0256392 0.0010546 0.000228083
0.0257178 0.0014885 0.000454011
0.0255884 0.00205972 0.000891209
0.0249658 0.00267347 0.00142491
0.023862 0.00317528 0.00182195
0.0224589 0.00345983 0.00196249
0.0210427 0.00349718 0.00186845
0.0197678 0.0033284 0.00165095
0.0186822 0.00301584 0.00140165
0.0177804 0.00261972 0.0011659
0.017039 0.00218647 0.000953049
0.0164385 0.00174263 0.000754657
0.0159699 0.0012998 0.00056034
0.0156301 0.000865229 0.000365726
0.0154169 0.00045195 0.000178602
0.0153253 9.62622e-05 3.22474e-05
0.0153251 -6.04032e-05 -2.44238e-05
0.01 -9.34044e-07 -2.87963e-06
0.0100008 -0.000619305 -0.00229362
0.0113536 -0.000664337 -0.00414116
0.0133004 0.00062972 -0.00295273
0.0158618 0.00260648 -0.00189436
0.0198846 0.00563298 -0.00189455
0.0258335 0.00836881 -0.00239008
0.0348969 0.0101277 -0.00208056
0.0465637 0.00486377 -0.000492196
0.0463003 -0.004032 0.00100799
0.045792 -0.00830383 0.00164388
0.0385349 -0.0085435 0.0018068
0.0315879 -0.00591033 0.00155425
0.026409 -0.00343397 0.00116083
0.0228932 -0.00177859 0.000748649
0.0206189 -0.000829736 0.000364895