# vtk DataFile Version 2.0
Tobias Weinzierl: CPU, Manycore and Cluster Computing
ASCII

DATASET STRUCTURED_POINTS
DIMENSIONS  51 11 6

ORIGIN 0 0 0 

SPACING 0.1 0.1 0.1 

POINT_DATA 3366

VECTORS velocity float
0 0 0
1.21753e-08 0 0
4.07727e-09 0 0
6.687e-10 0 0
7.29969e-11 0 0
5.9794e-12 0 0
3.92561e-13 0 0
2.15204e-14 0 0
1.01304e-15 0 0
4.17881e-17 0 0
1.53408e-18 0 0
5.07342e-20 0 0
1.52647e-21 0 0
4.21256e-23 0 0
1.0736e-24 0 0
2.54164e-26 0 0
5.6175e-28 0 0
1.16422e-29 0 0
2.27125e-31 0 0
4.18524e-33 0 0
7.30678e-35 0 0
1.21191e-36 0 0
1.9144e-38 0 0
2.8866e-40 0 0
4.16316e-42 0 0
5.7538e-44 0 0
7.63364e-46 0 0
9.73738e-48 0 0
1.19599e-49 0 0
1.41636e-51 0 0
1.61934e-53 0 0
1.78949e-55 0 0
1.9135e-57 0 0
1.98192e-59 0 0
1.99033e-61 0 0
1.93972e-63 0 0
1.83613e-65 0 0
1.68956e-67 0 0
1.51245e-69 0 0
1.31807e-71 0 0
1.11905e-73 0 0
9.26191e-76 0 0
7.47752e-78 0 0
5.89222e-80 0 0
4.53431e-82 0 0
3.40947e-84 0 0
2.50628e-86 0 0
1.802e-88 0 0
1.26784e-90 0 0
8.7918e-93 0 0
5.87745e-91 0 0
0 -7.97319e-218 0
7.41358e-08 -2.49043e-215 0
2.52597e-08 -6.58255e-213 0
4.10003e-09 -1.54923e-210 0
4.42784e-10 -3.33625e-208 0
3.57716e-11 -6.30317e-206 0
2.32176e-12 -8.82583e-204 0
1.2615e-13 -8.17322e-206 0
5.89751e-15 -4.62388e-204 0
2.4197e-16 -1.10097e-201 0
8.84515e-18 -2.57206e-199 0
2.91519e-19 -5.90986e-197 0
8.7465e-21 -1.33556e-194 0
2.40813e-22 -2.96743e-192 0
6.12532e-24 -6.47964e-190 0
1.4477e-25 -1.38989e-187 0
3.19513e-27 -2.92727e-185 0
6.61371e-29 -6.05035e-183 0
1.28887e-30 -1.22659e-180 0
2.37275e-32 -2.43763e-178 0
4.13898e-34 -4.74591e-176 0
6.85987e-36 -9.04617e-174 0
1.0829e-37 -1.68691e-171 0
1.63185e-39 -3.07512e-169 0
2.35224e-41 -5.47533e-167 0
3.24937e-43 -9.51345e-165 0
4.30904e-45 -1.61142e-162 0
5.49431e-47 -2.65792e-160 0
6.74579e-49 -4.26394e-158 0
7.98603e-51 -6.64403e-156 0
9.12757e-53 -1.00405e-153 0
1.00837e-54 -1.46909e-151 0
1.07795e-56 -2.07731e-149 0
1.11621e-58 -2.83258e-147 0
1.12068e-60 -3.71566e-145 0
1.09195e-62 -4.67572e-143 0
1.03342e-64 -5.62615e-141 0
9.50743e-67 -6.44879e-139 0
8.50925e-69 -7.00968e-137 0
7.41442e-71 -7.18673e-135 0
6.29391e-73 -6.90452e-133 0
5.20841e-75 -6.16567e-131 0
4.20437e-77 -5.06546e-129 0
3.31257e-79 -3.77812e-127 0
2.54884e-81 -2.51317e-125 0
1.91632e-83 -1.45437e-123 0
1.40852e-85 -7.05871e-122 0
1.01261e-87 -2.70948e-120 0
7.1238e-90 -7.38971e-119 0
4.9395e-92 -1.11285e-117 0
3.33773e-90 -1.18283e-115 0
0 -3.80476e-216 0
1.925e-07 -1.17591e-213 0
6.78003e-08 -3.79396e-211 0
1.0888e-08 -1.10973e-208 0
1.15818e-09 -3.15116e-206 0
8.73423e-11 -8.82562e-204 0
5.42717e-12 -2.44214e-201 0
2.86234e-13 -9.56654e-204 0
1.31083e-14 -2.10089e-202 0
5.2982e-16 -5.13259e-200 0
1.91495e-17 -1.21252e-197 0
6.25593e-19 -2.81279e-195 0
1.86382e-20 -6.41842e-193 0
5.10218e-22 -1.44041e-190 0
1.29161e-23 -3.1779e-188 0
3.04041e-25 -6.88971e-186 0
6.68721e-27 -1.46714e-183 0
1.38008e-28 -3.0672e-181 0
2.68246e-30 -6.29198e-179 0
4.92689e-32 -1.2658e-176 0
8.5767e-34 -2.49586e-174 0
1.41886e-35 -4.82027e-172 0
2.23606e-37 -9.11215e-170 0
3.36446e-39 -1.68478e-167 0
4.84295e-41 -3.04429e-165 0
6.68145e-43 -5.37112e-163 0
8.84986e-45 -9.24402e-161 0
1.12717e-46 -1.55029e-158 0
1.3825e-48 -2.53053e-156 0
1.6351e-50 -4.01509e-154 0
1.86713e-52 -6.18354e-152 0
2.06095e-54 -9.2286e-150 0
2.2014e-56 -1.3323e-147 0
2.27779e-58 -1.8567e-145 0
2.28525e-60 -2.49191e-143 0
2.22511e-62 -3.21219e-141 0
2.10445e-64 -3.96446e-139 0
1.93486e-66 -4.66749e-137 0
1.73066e-68 -5.21921e-135 0
1.50711e-70 -5.51408e-133 0
1.27863e-72 -5.4691e-131 0
1.05753e-74 -5.05235e-129 0
8.53219e-77 -4.30375e-127 0
6.719e-79 -3.33668e-125 0
5.16736e-81 -2.31362e-123 0
3.88317e-83 -1.40006e-121 0
2.85287e-85 -7.13065e-120 0
2.05006e-87 -2.88352e-118 0
1.4416e-89 -8.31949e-117 0
9.99147e-92 -1.32938e-115 0
6.78383e-90 -1.44285e-113 0
0 -4.92158e-218 0
3.29366e-07 -1.5355e-215 0
1.21034e-07 -3.89389e-213 0
1.92642e-08 -7.73647e-211 0
2.01099e-09 -1.11205e-208 0
5.75502e-11 -1.10435e-208 0
3.49797e-12 0 0
1.81604e-13 6.67622e-199 0
8.54621e-15 -7.53624e-201 0
3.52599e-16 -2.08674e-198 0
1.295e-17 -5.0423e-196 0
4.28517e-19 -1.18251e-193 0
1.2901e-20 -2.72546e-191 0
3.56243e-22 -6.17993e-189 0
9.08449e-24 -1.37807e-186 0
2.15185e-25 -3.0208e-184 0
4.75839e-27 -6.5065e-182 0
9.86623e-29 -1.3764e-179 0
1.92558e-30 -2.85826e-177 0
3.54955e-32 -5.82353e-175 0
6.19893e-34 -1.16345e-172 0
1.02845e-35 -2.27785e-170 0
1.62498e-37 -4.36746e-168 0
2.45068e-39 -8.19497e-166 0
3.53504e-41 -1.50364e-163 0
4.88635e-43 -2.69558e-161 0
6.48346e-45 -4.71703e-159 0
8.27087e-47 -8.0492e-157 0
1.01591e-48 -1.33788e-154 0
1.20314e-50 -2.16334e-152 0
1.37557e-52 -3.39838e-150 0
1.52009e-54 -5.17832e-148 0
1.62539e-56 -7.64042e-146 0
1.68342e-58 -1.08943e-143 0
1.69046e-60 -1.49778e-141 0
1.64734e-62 -1.98035e-139 0
1.55923e-64 -2.51051e-137 0
1.43461e-66 -3.04066e-135 0
1.28407e-68 -3.50373e-133 0
1.11891e-70 -3.82162e-131 0
9.49832e-73 -3.9213e-129 0
7.86018e-75 -3.75608e-127 0
6.34487e-77 -3.32595e-125 0
4.99889e-79 -2.68806e-123 0
3.8462e-81 -1.9492e-121 0
2.89155e-83 -1.23796e-119 0
2.12517e-85 -6.64426e-118 0
1.5277e-87 -2.84432e-116 0
1.07464e-89 -8.73029e-115 0
7.45056e-92 -1.48993e-113 0
5.04867e-90 -1.65204e-111 0
0 -3.97136e-220 0
4.47345e-07 -1.25082e-217 0
1.70736e-07 -2.64404e-215 0
2.7034e-08 -4.0108e-213 0
2.77559e-09 -3.89754e-211 0
0 -3.85769e-211 0
0 0 0
0 0 0
3.2238e-16 -1.8163e-196 0
2.36947e-17 -6.6629e-197 0
1.16549e-18 -1.80048e-194 0
4.63375e-20 -4.30443e-192 0
1.58539e-21 -1.00238e-189 0
4.81353e-23 -2.29726e-187 0
1.32102e-24 -5.17948e-185 0
3.3181e-26 -1.14839e-182 0
7.6979e-28 -2.50291e-180 0
1.66125e-29 -5.35987e-178 0
3.35393e-31 -1.12724e-175 0
6.36486e-33 -2.32705e-173 0
1.13994e-34 -4.71295e-171 0
1.93347e-36 -9.35885e-169 0
3.1151e-38 -1.82105e-166 0
4.78018e-40 -3.46971e-164 0
7.00318e-42 -6.46871e-162 0
9.81648e-44 -1.17909e-159 0
1.31908e-45 -2.09939e-157 0
1.7022e-47 -3.6479e-155 0
2.11288e-49 -6.17918e-153 0
2.52647e-51 -1.01916e-150 0
2.91422e-53 -1.63459e-148 0
3.24679e-55 -2.54558e-146 0
3.498e-57 -3.84287e-144 0
3.64838e-59 -5.61302e-142 0
3.68757e-61 -7.91539e-140 0
3.61543e-63 -1.07499e-137 0
3.44153e-65 -1.40195e-135 0
3.18334e-67 -1.74977e-133 0
2.86355e-69 -2.08159e-131 0
2.50694e-71 -2.34885e-129 0
2.13753e-73 -2.49903e-127 0
1.77624e-75 -2.48836e-125 0
1.43945e-77 -2.29701e-123 0
1.13831e-79 -1.94154e-121 0
8.78906e-82 -1.47773e-119 0
6.6296e-84 -9.8916e-118 0
4.88791e-86 -5.62173e-116 0
3.52427e-88 -2.56207e-114 0
2.48619e-90 -8.42183e-113 0
1.72841e-92 -1.54716e-111 0
1.15173e-90 -1.75341e-109 0
0 -1.85248e-220 0
5.15158e-07 -5.78294e-218 0
2.00996e-07 -1.09755e-215 0
3.17588e-08 -1.53485e-213 0
3.24655e-09 -1.47302e-211 0
1.17517e-10 -1.45778e-211 0
0 0 0
0 0 0
0 0 0
7.33909e-19 4.87411e-194 0
5.54039e-20 -5.00694e-193 0
2.73916e-21 -1.31945e-190 0
1.08066e-22 -3.10558e-188 0
3.63957e-24 -7.19628e-186 0
1.08219e-25 -1.64111e-183 0
2.89889e-27 -3.68187e-181 0
7.09205e-29 -8.12327e-179 0
1.60045e-30 -1.76174e-176 0
3.35708e-32 -3.75413e-174 0
6.58527e-34 -7.8564e-172 0
1.21409e-35 -1.61385e-169 0
2.11263e-37 -3.25227e-167 0
3.48217e-39 -6.42594e-165 0
5.45367e-41 -1.24404e-162 0
8.13825e-43 -2.35819e-160 0
1.15993e-44 -4.37357e-158 0
1.58249e-46 -7.92956e-156 0
2.07064e-48 -1.40417e-153 0
2.60317e-50 -2.42611e-151 0
3.14945e-52 -4.08545e-149 0
3.67239e-54 -6.69678e-147 0
4.13277e-56 -1.06705e-144 0
4.49427e-58 -1.65011e-142 0
4.7284e-60 -2.47217e-140 0
4.81813e-62 -3.5809e-138 0
4.75986e-64 -5.003e-136 0
4.56327e-66 -6.72363e-134 0
4.24924e-68 -8.66376e-132 0
3.84649e-70 -1.06627e-129 0
3.38749e-72 -1.24757e-127 0
2.90453e-74 -1.37982e-125 0
2.42641e-76 -1.43233e-123 0
1.97621e-78 -1.38282e-121 0
1.57021e-80 -1.22688e-119 0
1.21786e-82 -9.84253e-118 0
9.22572e-85 -6.9776e-116 0
6.82974e-87 -4.22308e-114 0
4.94349e-89 -2.06272e-112 0
3.50029e-91 -7.31944e-111 0
2.44206e-93 -1.46137e-109 0
1.59524e-91 -1.69361e-107 0
0 -2.56357e-218 0
5.1514e-07 -7.92536e-216 0
2.00989e-07 -1.68753e-213 0
3.17584e-08 -2.89872e-211 0
3.26069e-09 -4.12513e-209 0
2.39489e-10 -4.14178e-207 0
6.9779e-12 -4.10082e-207 0
0 0 0
0 0 0
0 0 0
1.45322e-21 -1.34357e-191 0
4.24212e-22 -3.27109e-189 0
2.8989e-23 -7.78454e-187 0
1.3096e-24 -1.82452e-184 0
4.68975e-26 -4.21018e-182 0
1.42922e-27 -9.56178e-180 0
3.84451e-29 -2.13649e-177 0
9.3304e-31 -4.69481e-175 0
2.073e-32 -1.01416e-172 0
4.26042e-34 -2.15263e-170 0
8.16312e-36 -4.48744e-168 0
1.46715e-37 -9.18273e-166 0
2.48575e-39 -1.84351e-163 0
3.98652e-41 -3.62878e-161 0
6.07285e-43 -6.99894e-159 0
8.81363e-45 -1.32176e-156 0
1.22184e-46 -2.44221e-154 0
1.62169e-48 -4.4112e-152 0
2.06495e-50 -7.78149e-150 0
2.52719e-52 -1.33921e-147 0
2.97766e-54 -2.24602e-145 0
3.38283e-56 -3.66599e-143 0
3.71069e-58 -5.81489e-141 0
3.93508e-60 -8.94835e-139 0
4.03911e-62 -1.33341e-136 0
4.01722e-64 -1.91976e-134 0
3.87538e-66 -2.66362e-132 0
3.62963e-68 -3.55077e-130 0
3.30334e-70 -4.53129e-128 0
2.9238e-72 -5.51144e-126 0
2.51876e-74 -6.35487e-124 0
2.11342e-76 -6.89933e-122 0
1.72842e-78 -6.99193e-120 0
1.37867e-80 -6.53899e-118 0
1.07323e-82 -5.55621e-116 0
8.15825e-85 -4.19531e-114 0
6.05927e-87 -2.72214e-112 0
4.3994e-89 -1.43641e-110 0
3.1242e-91 -5.55588e-109 0
2.18579e-93 -1.22002e-107 0
1.42716e-91 -1.44662e-105 0
0 -2.84015e-216 0
4.47099e-07 -8.6982e-214 0
1.70645e-07 -2.03437e-211 0
2.70206e-08 -4.10988e-209 0
2.7947e-09 -7.42158e-207 0
2.18995e-10 -1.14307e-204 0
1.31546e-11 -1.25431e-202 0
3.0114e-13 -1.24295e-202 0
0 0 0
0 0 0
0 -2.50884e-190 0
1.1953e-20 -6.15218e-188 0
6.5126e-22 -1.48084e-185 0
2.46277e-23 -3.51192e-183 0
7.70206e-25 -8.20351e-181 0
2.11091e-26 -1.88683e-178 0
5.21324e-28 -4.27166e-176 0
1.17927e-29 -9.51544e-174 0
2.46993e-31 -2.08478e-171 0
4.82743e-33 -4.49067e-169 0
8.85734e-35 -9.50576e-167 0
1.53292e-36 -1.97642e-164 0
2.51234e-38 -4.03428e-162 0
3.91221e-40 -8.07987e-160 0
5.80497e-42 -1.58684e-157 0
8.22812e-44 -3.05399e-155 0
1.11658e-45 -5.75568e-153 0
1.45354e-47 -1.0614e-150 0
1.81842e-49 -1.91355e-148 0
2.18976e-51 -3.36947e-146 0
2.542e-53 -5.78868e-144 0
2.84857e-55 -9.69113e-142 0
3.08528e-57 -1.57891e-139 0
3.23358e-59 -2.49956e-137 0
3.28295e-61 -3.83818e-135 0
3.23203e-63 -5.70503e-133 0
3.08834e-65 -8.18896e-131 0
2.8668e-67 -1.13192e-128 0
2.58733e-69 -1.50162e-126 0
2.27211e-71 -1.90409e-124 0
1.94289e-73 -2.29622e-122 0
1.61887e-75 -2.6169e-120 0
1.31525e-77 -2.79555e-118 0
1.04258e-79 -2.76926e-116 0
8.06806e-82 -2.50642e-114 0
6.0987e-84 -2.02921e-112 0
4.50554e-86 -1.42288e-110 0
3.25477e-88 -8.19072e-109 0
2.30023e-90 -3.49519e-107 0
1.60189e-92 -8.57094e-106 0
1.06767e-90 -1.04037e-103 0
0 -2.24909e-214 0
3.26994e-07 -6.8233e-212 0
1.20186e-07 -1.74621e-209 0
1.91289e-08 -4.11458e-207 0
2.00355e-09 -9.12615e-205 0
1.59206e-10 -1.87354e-202 0
1.0198e-11 -3.37807e-200 0
5.18071e-13 -4.51729e-198 0
9.20207e-15 -4.48369e-198 0
3.4998e-16 0 0
1.24239e-17 -3.14842e-189 0
4.11815e-19 -7.80849e-187 0
1.24155e-20 -1.90177e-184 0
3.43236e-22 -4.56549e-182 0
8.76147e-24 -1.08002e-179 0
2.0771e-25 -2.51684e-177 0
4.59651e-27 -5.77598e-175 0
9.53679e-29 -1.30495e-172 0
1.86236e-30 -2.90138e-170 0
3.43479e-32 -6.34588e-168 0
6.00131e-34 -1.36483e-165 0
9.9608e-36 -2.88518e-163 0
1.57444e-37 -5.99204e-161 0
2.3753e-39 -1.22197e-158 0
3.4274e-41 -2.44566e-156 0
4.73896e-43 -4.80085e-154 0
6.2896e-45 -9.23737e-152 0
8.02559e-47 -1.74091e-149 0
9.86018e-49 -3.21116e-147 0
1.16799e-50 -5.792e-145 0
1.33566e-52 -1.0206e-142 0
1.47626e-54 -1.75499e-140 0
1.5788e-56 -2.9414e-138 0
1.63545e-58 -4.79835e-136 0
1.64254e-60 -7.60669e-134 0
1.60089e-62 -1.16968e-131 0
1.51547e-64 -1.74087e-129 0
1.39454e-66 -2.50146e-127 0
1.24836e-68 -3.45953e-125 0
1.08792e-70 -4.58804e-123 0
9.23632e-73 -5.80798e-121 0
7.64419e-75 -6.97734e-119 0
6.17114e-77 -7.89516e-117 0
4.86249e-79 -8.33099e-115 0
3.7416e-81 -8.08552e-113 0
2.81316e-83 -7.07526e-111 0
2.06774e-85 -5.41387e-109 0
1.48653e-87 -3.44106e-107 0
1.04577e-89 -1.64509e-105 0
7.2509e-92 -4.59629e-104 0
4.91774e-90 -5.71461e-102 0
0 -9.74179e-213 0
1.75968e-07 -2.92747e-210 0
6.20893e-08 -8.23212e-208 0
9.96437e-09 -2.2798e-205 0
1.05941e-09 -6.23785e-203 0
8.52277e-11 -1.68597e-200 0
5.52813e-12 -4.50055e-198 0
2.99322e-13 -1.18631e-195 0
1.30442e-14 -3.08719e-193 0
5.06693e-16 -7.92997e-191 0
1.81235e-17 -2.01013e-188 0
5.87207e-19 -5.02404e-186 0
1.73783e-20 -1.23856e-183 0
4.7313e-22 -3.01102e-181 0
1.19226e-23 -7.21648e-179 0
2.79572e-25 -1.70466e-176 0
6.12873e-27 -3.96753e-174 0
1.26122e-28 -9.09589e-172 0
2.44532e-30 -2.05338e-169 0
4.48153e-32 -4.56294e-167 0
7.7863e-34 -9.97725e-165 0
1.28588e-35 -2.14585e-162 0
2.02335e-37 -4.53759e-160 0
3.04016e-39 -9.42961e-158 0
4.3706e-41 -1.92483e-155 0
6.02285e-43 -3.85739e-153 0
7.96913e-45 -7.58482e-151 0
1.01402e-46 -1.46243e-148 0
1.2426e-48 -2.76301e-146 0
1.46844e-50 -5.11133e-144 0
1.67554e-52 -9.25044e-142 0
1.84817e-54 -1.63627e-139 0
1.97281e-56 -2.82581e-137 0
2.04002e-58 -4.75882e-135 0
2.04552e-60 -7.80402e-133 0
1.99061e-62 -1.24422e-130 0
1.88171e-64 -1.92494e-128 0
1.72924e-66 -2.88339e-126 0
1.54605e-68 -4.17052e-124 0
1.34576e-70 -5.80571e-122 0
1.14128e-72 -7.74695e-120 0
9.43568e-75 -9.85775e-118 0
7.60997e-77 -1.18818e-115 0
5.99068e-79 -1.34445e-113 0
4.60571e-81 -1.41039e-111 0
3.46001e-83 -1.34696e-109 0
2.54121e-85 -1.13838e-107 0
1.82558e-87 -8.11301e-106 0
1.28339e-89 -4.43406e-104 0
8.89261e-92 -1.45097e-102 0
6.05316e-90 -1.84892e-100 0
0 0 0
4.7572e-08 0 0
1.62347e-08 0 0
2.62997e-09 0 0
2.83433e-10 0 0
2.30442e-11 0 0
1.50683e-12 0 0
8.23919e-14 0 0
3.8421e-15 0 0
1.56713e-16 0 0
5.69959e-18 0 0
1.87031e-19 0 0
5.5906e-21 0 0
1.53429e-22 0 0
3.89174e-24 0 0
9.17568e-26 0 0
2.0208e-27 0 0
4.17505e-29 0 0
8.12269e-31 0 0
1.49313e-32 0 0
2.6011e-34 0 0
4.30582e-36 0 0
6.78975e-38 0 0
1.02215e-39 0 0
1.47205e-41 0 0
2.0318e-43 0 0
2.69236e-45 0 0
3.43053e-47 0 0
4.20921e-49 0 0
4.98009e-51 0 0
5.68879e-53 0 0
6.28143e-55 0 0
6.71166e-57 0 0
6.94674e-59 0 0
6.97161e-61 0 0
6.79015e-63 0 0
6.42383e-65 0 0
5.90782e-67 0 0
5.28581e-69 0 0
4.60429e-71 0 0
3.90731e-73 0 0
3.23253e-75 0 0
2.6087e-77 0 0
2.05485e-79 0 0
1.58072e-81 0 0
1.18818e-83 0 0
8.73143e-86 0 0
6.27591e-88 0 0
4.41429e-90 0 0
3.06022e-92 0 0
2.08299e-90 0 0
0 0 -2.02984e-218
7.07271e-08 0 -6.33757e-216
2.40404e-08 0 -1.54868e-213
3.90187e-09 0 -3.12525e-211
4.2165e-10 0 -5.49322e-209
3.42977e-11 0 -7.93987e-207
2.24106e-12 0 -7.56744e-205
1.22449e-13 0 -1.67571e-206
5.75028e-15 0 -2.13479e-204
2.36778e-16 0 -5.06671e-202
8.68051e-18 0 -1.18289e-199
2.86771e-19 0 -2.71703e-197
8.62094e-21 0 -6.13822e-195
2.37746e-22 0 -1.36339e-192
6.05573e-24 0 -2.97611e-190
1.43296e-25 0 -6.38163e-188
3.16586e-27 0 -1.34358e-185
6.55903e-29 0 -2.77606e-183
1.27923e-30 0 -5.62589e-181
2.35665e-32 0 -1.11764e-178
4.11348e-34 0 -2.17515e-176
6.82142e-36 0 -4.14444e-174
1.07738e-37 0 -7.7254e-172
1.62428e-39 0 -1.40772e-169
2.3423e-41 0 -2.50544e-167
3.23688e-43 0 -4.35138e-165
4.29399e-45 0 -7.3673e-163
5.4769e-47 0 -1.21464e-160
6.72644e-49 0 -1.94768e-158
7.96533e-51 0 -3.03344e-156
9.10629e-53 0 -4.58192e-154
1.00626e-54 0 -6.70084e-152
1.07594e-56 0 -9.47022e-150
1.11437e-58 0 -1.29067e-147
1.11906e-60 0 -1.69214e-145
1.09057e-62 0 -2.12819e-143
1.0323e-64 0 -2.55934e-141
9.49874e-67 0 -2.93185e-139
8.50284e-69 0 -3.18495e-137
7.40997e-71 0 -3.26339e-135
6.29104e-73 0 -3.13325e-133
5.20676e-75 0 -2.79614e-131
4.20359e-77 0 -2.29566e-129
3.31238e-79 0 -1.71105e-127
2.549e-81 0 -1.13737e-125
1.91666e-83 0 -6.57711e-124
1.40893e-85 0 -3.18975e-122
1.01301e-87 0 -1.22343e-120
7.12734e-90 0 -3.33409e-119
4.94245e-92 0 -5.01702e-118
3.33792e-90 0 -5.33094e-116
0.0036 -3.26688e-217 -3.92215e-217
0.00154971 -1.31556e-212 -1.36255e-212
0.000263988 -5.10612e-210 -5.04138e-210
2.80325e-05 -1.28717e-207 -1.25698e-207
2.23847e-06 -2.83618e-205 -2.75622e-205
1.43559e-07 -5.45979e-203 -5.28845e-203
7.72142e-09 -7.78962e-201 -7.52935e-201
3.57949e-10 -7.02031e-203 -6.85005e-203
1.45844e-11 -3.92822e-201 -3.9286e-201
5.30048e-13 -9.52645e-199 -9.52658e-199
1.73847e-14 -2.26758e-196 -2.26758e-196
5.19461e-16 -5.31062e-194 -5.31062e-194
1.42521e-17 -1.22374e-191 -1.22374e-191
3.6143e-19 -2.77358e-189 -2.77358e-189
8.52015e-21 -6.18059e-187 -6.18059e-187
1.8762e-22 -1.35353e-184 -1.35353e-184
3.87596e-24 -2.91181e-182 -2.91181e-182
7.54037e-26 -6.15037e-180 -6.15037e-180
1.38604e-27 -1.27485e-177 -1.27485e-177
2.41453e-29 -2.59179e-175 -2.59179e-175
3.99702e-31 -5.1649e-173 -5.1649e-173
6.303e-33 -1.00826e-170 -1.00826e-170
9.48923e-35 -1.92676e-168 -1.92676e-168
1.36668e-36 -3.6017e-166 -3.6017e-166
1.88651e-38 -6.58052e-164 -6.58052e-164
2.50005e-40 -1.17409e-161 -1.17409e-161
3.18583e-42 -2.04369e-159 -2.04369e-159
3.90941e-44 -3.46689e-157 -3.46689e-157
4.62597e-46 -5.7249e-155 -5.7249e-155
5.28499e-48 -9.1905e-153 -9.1905e-153
5.8364e-50 -1.43228e-150 -1.43228e-150
6.23709e-52 -2.16338e-148 -2.16338e-148
6.45659e-54 -3.16132e-146 -3.16132e-146
6.48078e-56 -4.46006e-144 -4.46006e-144
6.3132e-58 -6.06079e-142 -6.06079e-142
5.97368e-60 -7.91155e-140 -7.91155e-140
5.49485e-62 -9.88954e-138 -9.88954e-138
4.91727e-64 -1.17944e-135 -1.17944e-135
4.2841e-66 -1.3362e-133 -1.3362e-133
3.63633e-68 -1.43049e-131 -1.43049e-131
3.00896e-70 -1.43796e-129 -1.43796e-129
2.42879e-72 -1.34654e-127 -1.34654e-127
1.91354e-74 -1.1629e-125 -1.1629e-125
1.47234e-76 -9.14243e-124 -9.14243e-124
1.10696e-78 -6.42938e-122 -6.42938e-122
8.13642e-81 -3.94667e-120 -3.94667e-120
5.84957e-83 -2.03937e-118 -2.03937e-118
4.11537e-85 -8.36826e-117 -8.36826e-117
2.83455e-87 -2.45008e-115 -2.45008e-115
1.92485e-89 -3.97155e-114 -3.97155e-114
1.89706e-89 -7.40529e-114 -7.40529e-114
0.01 3.11752e-216 9.36162e-216
0.00441542 -4.47843e-211 -3.85107e-211
0.000763489 -2.89207e-208 -2.8576e-208
7.8639e-05 -9.36118e-206 -9.23673e-206
6.10497e-06 -2.72804e-203 -2.66548e-203
3.65723e-07 -7.78935e-201 -7.55518e-201
1.87874e-08 -2.19701e-198 -2.12277e-198
8.42881e-10 -8.41897e-201 -8.18769e-201
3.35372e-11 -1.81782e-199 -1.81883e-199
1.19729e-12 -4.5249e-197 -4.52525e-197
3.87285e-14 -1.08955e-194 -1.08956e-194
1.14452e-15 -2.57724e-192 -2.57724e-192
3.11208e-17 -5.99902e-190 -5.99902e-190
7.83369e-19 -1.37391e-187 -1.37391e-187
1.83515e-20 -3.09472e-185 -3.09472e-185
4.01962e-22 -6.85321e-183 -6.85321e-183
8.26581e-24 -1.49137e-180 -1.49137e-180
1.6016e-25 -3.18784e-178 -3.18784e-178
2.93359e-27 -6.68978e-176 -6.68978e-176
5.09438e-29 -1.37753e-173 -1.37753e-173
8.40958e-31 -2.78176e-171 -2.78176e-171
1.32278e-32 -5.50557e-169 -5.50557e-169
1.98689e-34 -1.06724e-166 -1.06724e-166
2.85562e-36 -2.02482e-164 -2.02482e-164
3.93424e-38 -3.75703e-162 -3.75703e-162
5.20458e-40 -6.8119e-160 -6.8119e-160
6.62142e-42 -1.20574e-157 -1.20574e-157
8.11302e-44 -2.08145e-155 -2.08145e-155
9.58654e-46 -3.5004e-153 -3.5004e-153
1.09378e-47 -5.72754e-151 -5.72754e-151
1.20641e-49 -9.10587e-149 -9.10587e-149
1.28773e-51 -1.40445e-146 -1.40445e-146
1.33159e-53 -2.0978e-144 -2.0978e-144
1.33519e-55 -3.02859e-142 -3.02859e-142
1.29938e-57 -4.21652e-140 -4.21652e-140
1.22835e-59 -5.64646e-138 -5.64646e-138
1.12888e-61 -7.25097e-136 -7.25097e-136
1.00936e-63 -8.89761e-134 -8.89761e-134
8.78678e-66 -1.03892e-131 -1.03892e-131
7.45237e-68 -1.14846e-129 -1.14846e-129
6.16201e-70 -1.19452e-127 -1.19452e-127
4.9703e-72 -1.16003e-125 -1.16003e-125
3.91319e-74 -1.04161e-123 -1.04161e-123
3.00892e-76 -8.53808e-122 -8.53808e-122
2.26076e-78 -6.28046e-120 -6.28046e-120
1.66068e-80 -4.04705e-118 -4.04705e-118
1.1932e-82 -2.2042e-116 -2.2042e-116
8.38967e-85 -9.57688e-115 -9.57688e-115
5.77528e-87 -2.98366e-113 -2.98366e-113
3.91963e-89 -5.16692e-112 -5.16692e-112
3.86332e-89 -9.67349e-112 -9.67349e-112
0.0148 9.54605e-218 8.43422e-216
0.00760474 -3.98589e-213 -3.50691e-211
0.00139594 -2.83827e-210 -1.04939e-207
0.000141957 -6.40015e-208 -2.78737e-205
1.07688e-05 -9.45237e-206 -5.37626e-203
2.43723e-07 -9.38865e-206 -7.52977e-201
1.22595e-08 0 -2.11527e-198
5.41455e-10 6.12443e-196 5.89385e-196
2.20325e-11 -6.64391e-198 -6.66988e-198
8.00508e-13 -1.8751e-195 -1.87602e-195
2.62613e-14 -4.62e-193 -4.62022e-193
7.85077e-16 -1.10523e-190 -1.10523e-190
2.15527e-17 -2.5996e-188 -2.5996e-188
5.46921e-19 -6.01812e-186 -6.01812e-186
1.2901e-20 -1.37075e-183 -1.37075e-183
2.84261e-22 -3.07066e-181 -3.07066e-181
5.87575e-24 -6.76236e-179 -6.76236e-179
1.14367e-25 -1.46342e-176 -1.46342e-176
2.10322e-27 -3.11054e-174 -3.11054e-174
3.66539e-29 -6.49058e-172 -6.49058e-172
6.06992e-31 -1.32885e-169 -1.32885e-169
9.57489e-33 -2.66786e-167 -2.66786e-167
1.44191e-34 -5.24893e-165 -5.24893e-165
2.07718e-36 -1.01136e-162 -1.01136e-162
2.86783e-38 -1.90698e-160 -1.90698e-160
3.80116e-40 -3.51598e-158 -3.51598e-158
4.84447e-42 -6.3332e-156 -6.3332e-156
5.94537e-44 -1.11342e-153 -1.11342e-153
7.03563e-46 -1.9085e-151 -1.9085e-151
8.03832e-48 -3.18575e-149 -3.18575e-149
8.87721e-50 -5.17185e-147 -5.17185e-147
9.4867e-52 -8.15373e-145 -8.15373e-145
9.82038e-54 -1.2463e-142 -1.2463e-142
9.85681e-56 -1.84343e-140 -1.84343e-140
9.60141e-58 -2.6329e-138 -2.6329e-138
9.08441e-60 -3.62216e-136 -3.62216e-136
8.35552e-62 -4.78596e-134 -4.78596e-134
7.47649e-64 -6.05292e-132 -6.05292e-132
6.51306e-66 -7.29794e-130 -7.29794e-130
5.52757e-68 -8.34755e-128 -8.34755e-128
4.57328e-70 -9.00432e-126 -9.00432e-126
3.69094e-72 -9.09176e-124 -9.09176e-124
2.90749e-74 -8.51211e-122 -8.51211e-122
2.23674e-76 -7.29863e-120 -7.29863e-120
1.68137e-78 -5.63631e-118 -5.63631e-118
1.23562e-80 -3.82874e-116 -3.82874e-116
8.88166e-83 -2.20867e-114 -2.20867e-114
6.24732e-85 -1.02187e-112 -1.02187e-112
4.30209e-87 -3.41031e-111 -3.41031e-111
2.92079e-89 -6.35906e-110 -6.35906e-110
2.87875e-89 -1.19561e-109 -1.19561e-109
0.018 5.83066e-220 -4.04081e-213
0.0102883 -2.22716e-215 4.60766e-209
0.00199272 -1.85715e-212 -6.97851e-206
0.000201478 -3.25644e-210 -2.67127e-203
1.50008e-05 -3.25362e-208 -7.7208e-201
0 -3.22124e-208 -7.69416e-201
0 0 0
0 0 5.89394e-196
7.38959e-13 -1.69944e-193 -1.63481e-193
4.84702e-14 -6.1048e-194 -6.12833e-194
2.15406e-15 -1.68279e-191 -1.68341e-191
7.80998e-17 -4.1056e-189 -4.1056e-189
2.45557e-18 -9.76123e-187 -9.76123e-187
6.8959e-20 -2.28504e-184 -2.28504e-184
1.76021e-21 -5.26491e-182 -5.26491e-182
4.13209e-23 -1.19354e-179 -1.19354e-179
8.99738e-25 -2.6611e-177 -2.6611e-177
1.82922e-26 -5.83287e-175 -5.83287e-175
3.49078e-28 -1.25634e-172 -1.25634e-172
6.2804e-30 -2.65784e-170 -2.65784e-170
1.06925e-31 -5.51985e-168 -5.51985e-168
1.72817e-33 -1.12476e-165 -1.12476e-165
2.65909e-35 -2.24738e-163 -2.24738e-163
3.90477e-37 -4.40041e-161 -4.40041e-161
5.48453e-39 -8.43742e-159 -8.43742e-159
7.38301e-41 -1.58306e-156 -1.58306e-156
9.54256e-43 -2.90402e-154 -2.90402e-154
1.18618e-44 -5.20377e-152 -5.20377e-152
1.42021e-46 -9.09952e-150 -9.09952e-150
1.64011e-48 -1.55102e-147 -1.55102e-147
1.82924e-50 -2.57382e-145 -2.57382e-145
1.97274e-52 -4.15238e-143 -4.15238e-143
2.05945e-54 -6.50267e-141 -6.50267e-141
2.08337e-56 -9.86712e-139 -9.86712e-139
2.04426e-58 -1.4478e-136 -1.4478e-136
1.94741e-60 -2.04938e-134 -2.04938e-134
1.80261e-62 -2.7909e-132 -2.7909e-132
1.62263e-64 -3.64478e-130 -3.64478e-130
1.42148e-66 -4.54708e-128 -4.54708e-128
1.21277e-68 -5.394e-126 -5.394e-126
1.00839e-70 -6.04963e-124 -6.04963e-124
8.1766e-73 -6.36929e-122 -6.36929e-122
6.46957e-75 -6.23795e-120 -6.23795e-120
4.99795e-77 -5.61552e-118 -5.61552e-118
3.77192e-79 -4.57187e-116 -4.57187e-116
2.78239e-81 -3.28988e-114 -3.28988e-114
2.00714e-83 -2.02151e-112 -2.02151e-112
1.41662e-85 -1.00261e-110 -1.00261e-110
9.78686e-88 -3.613e-109 -3.613e-109
6.66515e-90 -7.32402e-108 -7.32402e-108
6.56758e-90 -1.38315e-107 -1.38315e-107
0.0196 3.62232e-220 2.0829e-213
0.011812 -1.20613e-215 -1.80863e-209
0.00235878 -7.89575e-213 -3.37425e-207
0.000238039 -1.26703e-210 -2.62701e-205
1.75985e-05 -1.24997e-208 -2.88176e-203
5.07945e-07 -1.23738e-208 2.1473e-198
0 0 2.14733e-198
0 0 0
0 0 -1.63475e-193
1.36333e-15 4.65378e-191 4.46852e-191
9.37301e-17 -4.77557e-190 -4.79258e-190
4.25637e-18 -1.28486e-187 -1.28486e-187
1.55263e-19 -3.089e-185 -3.089e-185
4.86212e-21 -7.31482e-183 -7.31482e-183
1.35079e-22 -1.70559e-180 -1.70559e-180
3.39535e-24 -3.9145e-178 -3.9145e-178
7.82399e-26 -8.83997e-176 -8.83997e-176
1.66863e-27 -1.96349e-173 -1.96349e-173
3.31776e-29 -4.28771e-171 -4.28771e-171
6.18582e-31 -9.20132e-169 -9.20132e-169
1.08662e-32 -1.93952e-166 -1.93952e-166
1.80559e-34 -4.0136e-164 -4.0136e-164
2.84773e-36 -8.14948e-162 -8.14948e-162
4.2756e-38 -1.62264e-159 -1.62264e-159
6.12691e-40 -3.16611e-157 -3.16611e-157
8.39909e-42 -6.04975e-155 -6.04975e-155
1.10373e-43 -1.13115e-152 -1.13115e-152
1.39297e-45 -2.06778e-150 -2.06778e-150
1.69122e-47 -3.69219e-148 -3.69219e-148
1.97836e-49 -6.43294e-146 -6.43294e-146
2.23292e-51 -1.09239e-143 -1.09239e-143
2.43481e-53 -1.8056e-141 -1.8056e-141
2.56805e-55 -2.90075e-139 -2.90075e-139
2.62286e-57 -4.52188e-137 -4.52188e-137
2.59675e-59 -6.82683e-135 -6.82683e-135
2.49453e-61 -9.95989e-133 -9.95989e-133
2.32727e-63 -1.40058e-130 -1.40058e-130
2.11044e-65 -1.89262e-128 -1.89262e-128
1.86173e-67 -2.44876e-126 -2.44876e-126
1.59884e-69 -3.02032e-124 -3.02032e-124
1.33767e-71 -3.53218e-122 -3.53218e-122
1.09104e-73 -3.89023e-120 -3.89023e-120
8.68071e-76 -4.00023e-118 -4.00023e-118
6.74157e-78 -3.79669e-116 -3.79669e-116
5.11335e-80 -3.27469e-114 -3.27469e-114
3.7899e-82 -2.5104e-112 -2.5104e-112
2.74635e-84 -1.65411e-110 -1.65411e-110
1.94673e-86 -8.86525e-109 -8.86525e-109
1.35046e-88 -3.48321e-107 -3.48321e-107
9.23351e-91 -7.76837e-106 -7.76837e-106
9.09565e-91 -1.47387e-105 -1.47387e-105
0.0196 6.55613e-218 2.12279e-213
0.0118119 -2.45663e-213 -1.85415e-209
0.00235875 -1.2659e-210 -2.6288e-207
0.000238037 -2.44069e-208 -7.53097e-206
1.76486e-05 -3.56645e-206 -1.37645e-204
1.02431e-06 -3.65006e-204 -2.52392e-204
2.46141e-08 -3.61464e-204 -5.95612e-196
0 0 -5.95612e-196
0 0 0
0 0 4.47446e-191
2.26608e-18 -1.30852e-188 -1.30418e-188
6.4617e-19 -3.25352e-186 -3.25352e-186
4.11204e-20 -7.91254e-184 -7.91254e-184
1.73271e-21 -1.89615e-181 -1.89615e-181
5.80859e-23 -4.47606e-179 -4.47606e-179
1.66322e-24 -1.04051e-176 -1.04051e-176
4.21809e-26 -2.38108e-174 -2.38108e-174
9.68193e-28 -5.36194e-172 -5.36194e-172
2.04027e-29 -1.18774e-169 -1.18774e-169
3.98743e-31 -2.58695e-167 -2.58695e-167
7.28245e-33 -5.53778e-165 -5.53778e-165
1.2503e-34 -1.16454e-162 -1.16454e-162
2.02757e-36 -2.40449e-160 -2.40449e-160
3.11803e-38 -4.87191e-158 -4.87191e-158
4.56223e-40 -9.6811e-156 -9.6811e-156
6.36959e-42 -1.88545e-153 -1.88545e-153
8.5068e-44 -3.59634e-151 -3.59634e-151
1.08918e-45 -6.71309e-149 -6.71309e-149
1.33955e-47 -1.22525e-146 -1.22525e-146
1.5853e-49 -2.18451e-144 -2.18451e-144
1.80819e-51 -3.80056e-142 -3.80056e-142
1.99063e-53 -6.44444e-140 -6.44444e-140
2.11799e-55 -1.06361e-137 -1.06361e-137
2.18058e-57 -1.70597e-135 -1.70597e-135
2.17483e-59 -2.65456e-133 -2.65456e-133
2.10346e-61 -3.99906e-131 -3.99906e-131
1.9748e-63 -5.81888e-129 -5.81888e-129
1.8013e-65 -8.15486e-127 -8.15486e-127
1.59768e-67 -1.09706e-124 -1.09706e-124
1.37905e-69 -1.41096e-122 -1.41096e-122
1.15926e-71 -1.72615e-120 -1.72615e-120
9.49726e-74 -1.99608e-118 -1.99608e-118
7.58795e-76 -2.16408e-116 -2.16408e-116
5.91606e-78 -2.17609e-114 -2.17609e-114
4.50382e-80 -1.9997e-112 -1.9997e-112
3.34979e-82 -1.64411e-110 -1.64411e-110
2.43543e-84 -1.17101e-108 -1.17101e-108
1.73173e-86 -6.84831e-107 -6.84831e-107
1.20487e-88 -2.9694e-105 -2.9694e-105
8.26137e-91 -7.3979e-104 -7.3979e-104
8.13797e-91 -1.41038e-103 -1.41038e-103
0.018 3.44309e-216 -4.87527e-213
0.0102868 -4.00109e-211 5.90634e-209
0.00199226 -1.60695e-208 6.54344e-207
0.000201425 -3.53329e-206 1.50945e-205
1.50684e-05 -6.53848e-204 -3.15994e-204
9.24593e-07 -1.02682e-201 -9.76885e-202
4.59865e-08 -1.14885e-199 -1.1448e-199
8.94528e-10 -1.13865e-199 1.6324e-193
0 0 1.6324e-193
0 0 0
0 -2.49546e-187 -2.49455e-187
2.01292e-17 -6.25303e-185 -6.25302e-185
1.00827e-18 -1.53891e-182 -1.53891e-182
3.52753e-20 -3.73352e-180 -3.73352e-180
1.02627e-21 -8.92661e-178 -8.92661e-178
2.62908e-23 -2.10274e-175 -2.10274e-175
6.09464e-25 -4.87843e-173 -4.87843e-173
1.29889e-26 -1.11435e-170 -1.11435e-170
2.57158e-28 -2.50531e-168 -2.50531e-168
4.76518e-30 -5.54152e-166 -5.54152e-166
8.31141e-32 -1.20545e-163 -1.20545e-163
1.37073e-33 -2.57773e-161 -2.57773e-161
2.1455e-35 -5.4161e-159 -5.4161e-159
3.19718e-37 -1.11758e-156 -1.11758e-156
4.54821e-39 -2.26349e-154 -2.26349e-154
6.19122e-41 -4.49706e-152 -4.49706e-152
8.0813e-43 -8.75886e-150 -8.75886e-150
1.01337e-44 -1.6712e-147 -1.6712e-147
1.22284e-46 -3.12127e-145 -3.12127e-145
1.42217e-48 -5.70142e-143 -5.70142e-143
1.59632e-50 -1.01757e-140 -1.01757e-140
1.73156e-52 -1.77258e-138 -1.77258e-138
1.81726e-54 -3.01009e-136 -3.01009e-136
1.84731e-56 -4.97607e-134 -4.97607e-134
1.82074e-58 -7.99529e-132 -7.99529e-132
1.74164e-60 -1.24631e-129 -1.24631e-129
1.6183e-62 -1.88073e-127 -1.88073e-127
1.46188e-64 -2.74053e-125 -2.74053e-125
1.28489e-66 -3.84436e-123 -3.84436e-123
1.09961e-68 -5.17231e-121 -5.17231e-121
9.16936e-71 -6.64385e-119 -6.64385e-119
7.4551e-73 -8.10051e-117 -8.10051e-117
5.91366e-75 -9.3047e-115 -9.3047e-115
4.57939e-77 -9.96898e-113 -9.96898e-113
3.46381e-79 -9.82585e-111 -9.82585e-111
2.56053e-81 -8.73393e-109 -8.73393e-109
1.85081e-83 -6.7901e-107 -6.7901e-107
1.30876e-85 -4.38585e-105 -4.38585e-105
9.05803e-88 -2.13116e-103 -2.13116e-103
6.17942e-90 -6.05158e-102 -6.05158e-102
6.08899e-90 -1.15956e-101 -1.15956e-101
0.0148 -1.05824e-213 2.71715e-213
0.00758583 -4.39021e-209 -1.23656e-208
0.00139078 -1.45638e-206 -2.17072e-206
0.000141337 -3.61479e-204 -3.81416e-204
1.074e-05 -8.19667e-202 -8.23518e-202
6.68601e-07 -1.71613e-199 -1.71676e-199
3.52114e-08 -3.15635e-197 -3.15643e-197
1.52861e-09 -4.30713e-195 -4.30714e-195
2.35899e-11 -4.27574e-195 -4.42121e-191
7.9724e-13 0 -1.15639e-188
2.53532e-14 -3.20004e-186 -3.21156e-186
7.58694e-16 -8.11397e-184 -8.11397e-184
2.08458e-17 -2.02161e-181 -2.02161e-181
5.29358e-19 -4.9675e-179 -4.9675e-179
1.24943e-20 -1.2035e-176 -1.2035e-176