# vtk DataFile Version 2.0
Tobias Weinzierl: CPU, Manycore and Cluster Computing
ASCII

DATASET STRUCTURED_POINTS
DIMENSIONS  51 11 6

ORIGIN 0 0 0 

SPACING 0.1 0.1 0.1 

POINT_DATA 3366

VECTORS velocity float
0 0 0
1.63299e-08 0 0
1.3391e-08 0 0
5.00404e-09 0 0
1.20141e-09 0 0
2.13383e-10 0 0
3.04952e-11 0 0
3.67093e-12 0 0
3.82844e-13 0 0
3.52612e-14 0 0
2.90893e-15 0 0
2.17317e-16 0 0
1.4833e-17 0 0
9.31806e-19 0 0
5.42111e-20 0 0
2.93653e-21 0 0
1.48793e-22 0 0
7.08109e-24 0 0
3.17658e-25 0 0
1.34759e-26 0 0
5.42191e-28 0 0
2.07431e-29 0 0
7.56398e-31 0 0
2.63463e-32 0 0
8.78286e-34 0 0
2.80729e-35 0 0
8.61782e-37 0 0
2.5447e-38 0 0
7.23812e-40 0 0
1.98582e-41 0 0
5.26163e-43 0 0
1.34792e-44 0 0
3.34231e-46 0 0
8.02983e-48 0 0
1.87093e-49 0 0
4.23145e-51 0 0
9.2976e-53 0 0
1.98633e-54 0 0
4.12911e-56 0 0
8.35797e-58 0 0
1.64846e-59 0 0
3.1701e-61 0 0
5.94769e-63 0 0
1.08933e-64 0 0
1.94874e-66 0 0
3.40689e-68 0 0
5.82367e-70 0 0
9.73824e-72 0 0
1.59373e-73 0 0
2.59388e-75 0 0
4.18213e-73 0 0
0 -1.04254e-180 0
7.70825e-08 -1.35465e-178 0
6.87552e-08 -1.74414e-176 0
2.58467e-08 -1.91598e-174 0
6.05061e-09 -1.81339e-172 0
1.02368e-09 -1.47673e-170 0
1.40563e-10 -8.88096e-169 0
1.64212e-11 -4.03816e-170 0
1.67545e-12 -2.71797e-168 0
1.51841e-13 -2.77854e-166 0
1.23756e-14 -2.78754e-164 0
9.16041e-16 -2.75119e-162 0
6.20769e-17 -2.67127e-160 0
3.8776e-18 -2.5507e-158 0
2.24566e-19 -2.39423e-156 0
1.21193e-20 -2.20823e-154 0
6.12199e-22 -2.0003e-152 0
2.90602e-23 -1.77868e-150 0
1.30083e-24 -1.55175e-148 0
5.50831e-26 -1.32746e-146 0
2.21271e-27 -1.11283e-144 0
8.45376e-29 -9.13611e-143 0
3.07898e-30 -7.34019e-141 0
1.07132e-31 -5.76678e-139 0
3.56805e-33 -4.42667e-137 0
1.13952e-34 -3.31698e-135 0
3.49553e-36 -2.42381e-133 0
1.03149e-37 -1.72533e-131 0
2.93219e-39 -1.19492e-129 0
8.04031e-41 -8.04115e-128 0
2.12931e-42 -5.25013e-126 0
5.45241e-44 -3.32025e-124 0
1.35142e-45 -2.03008e-122 0
3.24554e-47 -1.1975e-120 0
7.55939e-49 -6.79854e-119 0
1.70915e-50 -3.70449e-117 0
3.75434e-52 -1.93117e-115 0
8.0185e-54 -9.59534e-114 0
1.66643e-55 -4.52397e-112 0
3.37232e-57 -2.01319e-110 0
6.64982e-59 -8.40128e-109 0
1.27853e-60 -3.26156e-107 0
2.3983e-62 -1.1661e-105 0
4.39174e-64 -3.78972e-104 0
7.85515e-66 -1.10019e-102 0
1.37306e-67 -2.78494e-101 0
2.34671e-69 -5.93299e-100 0
3.92356e-71 -1.0059e-98 0
6.42028e-73 -1.22883e-97 0
1.0448e-74 -8.68986e-97 0
1.69424e-72 -2.04705e-94 0
0 -1.94519e-179 0
1.78195e-07 -2.49737e-177 0
1.84976e-07 -4.08743e-175 0
7.18893e-08 -5.81765e-173 0
1.62685e-08 -7.3407e-171 0
2.34825e-09 -8.87614e-169 0
2.92096e-10 -1.05482e-166 0
3.19692e-11 -1.32457e-168 0
3.12838e-12 -5.31546e-167 0
2.75727e-13 -5.57669e-165 0
2.20445e-14 -5.6586e-163 0
1.60951e-15 -5.63952e-161 0
1.07983e-16 -5.53001e-159 0
6.6946e-18 -5.33445e-157 0
3.85489e-19 -5.06012e-155 0
2.07111e-20 -4.71797e-153 0
1.04251e-21 -4.32193e-151 0
4.93461e-23 -3.88794e-149 0
2.20379e-24 -3.43289e-147 0
9.31414e-26 -2.97344e-145 0
3.73562e-27 -2.525e-143 0
1.42532e-28 -2.10084e-141 0
5.18538e-30 -1.71142e-139 0
1.8025e-31 -1.36405e-137 0
5.99833e-33 -1.06284e-135 0
1.91431e-34 -8.08886e-134 0
5.86857e-36 -6.00722e-132 0
1.7308e-37 -4.34881e-130 0
4.91776e-39 -3.06532e-128 0
1.34791e-40 -2.10102e-126 0
3.56832e-42 -1.39835e-124 0
9.13412e-44 -9.02271e-123 0
2.26328e-45 -5.63395e-121 0
5.43393e-47 -3.39748e-119 0
1.26533e-48 -1.97405e-117 0
2.86022e-50 -1.10218e-115 0
6.2815e-52 -5.89516e-114 0
1.34135e-53 -3.00954e-112 0
2.78715e-55 -1.46014e-110 0
5.63938e-57 -6.69772e-109 0
1.11186e-58 -2.88642e-107 0
2.13742e-60 -1.15957e-105 0
4.00891e-62 -4.29976e-104 0
7.34018e-64 -1.45289e-102 0
1.31273e-65 -4.39754e-101 0
2.29437e-67 -1.16413e-99 0
3.92095e-69 -2.60229e-98 0
6.55498e-71 -4.64603e-97 0
1.07252e-72 -5.99643e-96 0
1.74521e-74 -4.4818e-95 0
2.84132e-72 -1.08232e-92 0
0 -5.36793e-181 0
2.81877e-07 -6.95167e-179 0
3.56108e-07 -9.16201e-177 0
1.48113e-07 -9.31152e-175 0
3.24026e-08 -6.02993e-173 0
1.53795e-09 -5.93772e-173 0
1.82028e-10 0 0
1.92189e-11 1.23838e-164 0
1.98568e-12 -8.19788e-166 0
1.82269e-13 -9.75171e-164 0
1.50366e-14 -1.01235e-161 0
1.12545e-15 -1.0202e-159 0
7.70384e-17 -1.01065e-157 0
4.8558e-18 -9.8524e-156 0
2.83503e-19 -9.44799e-154 0
1.54115e-20 -8.90879e-152 0
7.83597e-22 -8.25643e-150 0
3.74157e-23 -7.51728e-148 0
1.68377e-24 -6.72065e-146 0
7.16432e-26 -5.89679e-144 0
2.89058e-27 -5.07494e-142 0
1.10879e-28 -4.28146e-140 0
4.0532e-30 -3.53848e-138 0
1.41505e-31 -2.86284e-136 0
4.72747e-33 -2.26569e-134 0
1.51413e-34 -1.75252e-132 0
4.65695e-36 -1.32369e-130 0
1.37759e-37 -9.75295e-129 0
3.925e-39 -7.00212e-127 0
1.07856e-40 -4.89252e-125 0
2.86201e-42 -3.3224e-123 0
7.34223e-44 -2.18939e-121 0
1.823e-45 -1.39764e-119 0
4.38521e-47 -8.62616e-118 0
1.02295e-48 -5.13594e-116 0
2.3162e-50 -2.94227e-114 0
5.09473e-52 -1.61699e-112 0
1.08953e-53 -8.49505e-111 0
2.26705e-55 -4.24865e-109 0
4.59303e-57 -2.01272e-107 0
9.06679e-59 -8.97645e-106 0
1.74503e-60 -3.74037e-104 0
3.27657e-62 -1.44221e-102 0
6.0056e-64 -5.08157e-101 0
1.07512e-65 -1.60885e-99 0
1.88086e-67 -4.47056e-98 0
3.21719e-69 -1.05307e-96 0
5.38305e-71 -1.98948e-95 0
8.81492e-73 -2.72814e-94 0
1.4355e-74 -2.16886e-93 0
2.33031e-72 -5.37312e-91 0
0 -9.4568e-183 0
3.51657e-07 -1.23582e-180 0
5.35074e-07 -1.36803e-178 0
2.4121e-07 -1.11084e-176 0
5.17691e-08 -4.94374e-175 0
0 -4.83401e-175 0
0 0 0
0 0 0
1.4991e-13 -1.46232e-162 0
2.47167e-14 -1.3398e-162 0
2.71746e-15 -1.55611e-160 0
2.42734e-16 -1.59902e-158 0
1.87567e-17 -1.60081e-156 0
1.29193e-18 -1.57762e-154 0
8.07283e-20 -1.52996e-152 0
4.63064e-21 -1.4595e-150 0
2.45935e-22 -1.36898e-148 0
1.21747e-23 -1.26204e-146 0
5.64792e-25 -1.14294e-144 0
2.46633e-26 -1.01633e-142 0
1.01765e-27 -8.869e-141 0
3.9807e-29 -7.59088e-139 0
1.48043e-30 -6.36821e-137 0
5.24804e-32 -5.2331e-135 0
1.77739e-33 -4.2092e-133 0
5.76293e-35 -3.31127e-131 0
1.79224e-36 -2.54546e-129 0
5.35529e-38 -1.91029e-127 0
1.53988e-39 -1.39809e-125 0
4.26717e-41 -9.9671e-124 0
1.14109e-42 -6.91248e-122 0
2.94829e-44 -4.65689e-120 0
7.36865e-46 -3.04259e-118 0
1.78338e-47 -1.92426e-116 0
4.18387e-49 -1.17552e-114 0
9.52355e-51 -6.91951e-113 0
2.1052e-52 -3.9134e-111 0
4.52297e-54 -2.11937e-109 0
9.45223e-56 -1.0947e-107 0
1.92287e-57 -5.36689e-106 0
3.81044e-59 -2.48273e-104 0
7.36044e-61 -1.07578e-102 0
1.38679e-62 -4.32563e-101 0
2.5501e-64 -1.59444e-99 0
4.57926e-66 -5.29982e-98 0
8.03456e-68 -1.55235e-96 0
1.37812e-69 -3.87196e-95 0
2.31197e-71 -7.78432e-94 0
3.79545e-73 -1.14165e-92 0
6.19589e-75 -9.72791e-92 0
9.92192e-73 -2.47413e-89 0
0 -2.27027e-183 0
3.79663e-07 -2.94877e-181 0
6.48563e-07 -2.88931e-179 0
3.08922e-07 -2.12803e-177 0
6.70532e-08 -9.24656e-176 0
4.42552e-09 -9.03661e-176 0
0 0 0
0 0 0
0 0 0
1.59434e-15 1.69215e-160 0
2.73958e-16 -1.86402e-159 0
3.06727e-17 -2.11231e-157 0
2.74976e-18 -2.13779e-155 0
2.11186e-19 -2.13058e-153 0
1.43615e-20 -2.09032e-151 0
8.81955e-22 -2.01814e-149 0
4.9561e-23 -1.91665e-147 0
2.57307e-24 -1.78982e-145 0
1.24332e-25 -1.6427e-143 0
5.62455e-27 -1.48111e-141 0
2.39369e-28 -1.31121e-139 0
9.62266e-30 -1.13916e-137 0
3.66677e-31 -9.70648e-136 0
1.32848e-32 -8.10649e-134 0
4.58843e-34 -6.63129e-132 0
1.51442e-35 -5.30923e-130 0
4.78659e-37 -4.15699e-128 0
1.45156e-38 -3.18015e-126 0
4.2309e-40 -2.37468e-124 0
1.18716e-41 -1.72893e-122 0
3.21144e-43 -1.22582e-120 0
8.38669e-45 -8.45195e-119 0
2.117e-46 -5.65842e-117 0
5.17122e-48 -3.67176e-115 0
1.2237e-49 -2.30472e-113 0
2.80804e-51 -1.39609e-111 0
6.25439e-53 -8.13922e-110 0
1.35333e-54 -4.55236e-108 0
2.84722e-56 -2.43344e-106 0
5.82877e-58 -1.23748e-104 0
1.16196e-59 -5.95306e-103 0
2.25717e-61 -2.69008e-101 0
4.2755e-63 -1.13163e-99 0
7.90189e-65 -4.37973e-98 0
1.42579e-66 -1.53485e-96 0
2.51307e-68 -4.76197e-95 0
4.32927e-70 -1.26482e-93 0
7.29306e-72 -2.72407e-92 0
1.202e-73 -4.30681e-91 0
1.96973e-75 -3.9703e-90 0
3.09517e-73 -1.03745e-87 0
0 -1.39796e-181 0
3.79477e-07 -1.79832e-179 0
6.48286e-07 -1.94335e-177 0
3.08881e-07 -1.67564e-175 0
6.80324e-08 -1.07099e-173 0
9.1919e-09 -4.66956e-172 0
4.88025e-10 -4.56412e-172 0
0 0 0
0 0 0
0 0 0
1.53545e-17 -2.13625e-158 0
6.26511e-18 -2.25943e-156 0
8.99785e-19 -2.31257e-154 0
8.93359e-20 -2.33159e-152 0
7.14888e-21 -2.31508e-150 0
4.91208e-22 -2.26302e-148 0
2.99626e-23 -2.17701e-146 0
1.65568e-24 -2.06021e-144 0
8.40129e-26 -1.91719e-142 0
3.95292e-27 -1.75358e-140 0
1.73736e-28 -1.57577e-138 0
7.17422e-30 -1.3904e-136 0
2.7965e-31 -1.20402e-134 0
1.03303e-32 -1.02263e-132 0
3.62831e-34 -8.51348e-131 0
1.21517e-35 -6.94229e-129 0
3.89045e-37 -5.54079e-127 0
1.19331e-38 -4.32462e-125 0
3.51365e-40 -3.29785e-123 0
9.94914e-42 -2.45456e-121 0
2.71354e-43 -1.78106e-119 0
7.13922e-45 -1.25831e-117 0
1.81432e-46 -8.64316e-116 0
4.45926e-48 -5.76258e-114 0
1.0612e-49 -3.72221e-112 0
2.44784e-51 -2.32422e-110 0
5.47832e-53 -1.39939e-108 0
1.19068e-54 -8.1e-107 0
2.51535e-56 -4.49113e-105 0
5.16912e-58 -2.37502e-103 0
1.03414e-59 -1.19152e-101 0
2.0156e-61 -5.6332e-100 0
3.82987e-63 -2.48831e-98 0
7.09906e-65 -1.01544e-96 0
1.28446e-66 -3.77e-95 0
2.26986e-68 -1.24598e-93 0
3.91988e-70 -3.54778e-92 0
6.6187e-72 -8.25108e-91 0
1.09325e-73 -1.41992e-89 0
1.79529e-75 -1.43279e-88 0
2.82025e-73 -3.8497e-86 0
0 -7.44708e-180 0
3.50293e-07 -9.50278e-178 0
5.33306e-07 -1.08551e-175 0
2.40586e-07 -1.03919e-173 0
5.3073e-08 -8.28592e-172 0
8.13916e-09 -5.51672e-170 0
9.17439e-10 -2.61368e-168 0
3.92166e-11 -2.55933e-168 0
0 0 0
0 0 0
0 -1.73308e-157 0
6.36018e-17 -1.83731e-155 0
7.7647e-18 -1.90215e-153 0
6.62119e-19 -1.94079e-151 0
4.69261e-20 -1.95098e-149 0
2.92601e-21 -1.93166e-147 0
1.64923e-22 -1.88306e-145 0
8.53614e-24 -1.80674e-143 0
4.09943e-25 -1.70553e-141 0
1.84037e-26 -1.58334e-139 0
7.76753e-28 -1.44496e-137 0
3.09624e-29 -1.29568e-135 0
1.17002e-30 -1.14098e-133 0
4.20475e-32 -9.86186e-132 0
1.44103e-33 -8.36155e-130 0
4.72105e-35 -6.94992e-128 0
1.48172e-36 -5.65891e-126 0
4.46361e-38 -4.51034e-124 0
1.29287e-39 -3.51592e-122 0
3.60623e-41 -2.67801e-120 0
9.70087e-43 -1.991e-118 0
2.52001e-44 -1.44313e-116 0
6.32938e-46 -1.01843e-114 0
1.53879e-47 -6.98705e-113 0
3.62509e-49 -4.65196e-111 0
8.28336e-51 -2.99975e-109 0
1.83757e-52 -1.86905e-107 0
3.96105e-54 -1.12211e-105 0
8.30341e-56 -6.4697e-104 0
1.69402e-57 -3.56795e-102 0
3.36598e-59 -1.87274e-100 0
6.5183e-61 -9.29698e-99 0
1.23103e-62 -4.33026e-97 0
2.26874e-64 -1.87228e-95 0
4.08258e-66 -7.40592e-94 0
7.17735e-68 -2.62479e-92 0
1.2334e-69 -8.07622e-91 0
2.07288e-71 -2.04805e-89 0
3.40869e-73 -3.88255e-88 0
5.5736e-75 -4.35294e-87 0
8.93839e-73 -1.20365e-84 0
0 -2.87309e-178 0
2.74885e-07 -3.63793e-176 0
3.48548e-07 -4.29317e-174 0
1.45189e-07 -4.5448e-172 0
3.22796e-08 -4.38614e-170 0
5.19653e-09 -3.88185e-168 0
6.76758e-10 -3.01443e-166 0
6.72025e-11 -1.73914e-164 0
2.31055e-12 -1.70938e-164 0
1.77093e-13 0 0
1.34722e-14 -9.43717e-157 0
1.00704e-15 -1.01184e-154 0
6.88664e-17 -1.06e-152 0
4.3378e-18 -1.09486e-150 0
2.53153e-19 -1.11466e-148 0
1.37584e-20 -1.11824e-146 0
6.99492e-22 -1.1051e-144 0
3.34009e-23 -1.07546e-142 0
1.50327e-24 -1.0303e-140 0
6.39746e-26 -9.71288e-139 0
2.58176e-27 -9.00682e-137 0
9.90581e-29 -8.212e-135 0
3.62208e-30 -7.35836e-133 0
1.2649e-31 -6.47666e-131 0
4.22713e-33 -5.59663e-129 0
1.35429e-34 -4.7452e-127 0
4.1666e-36 -3.94508e-125 0
1.23291e-37 -3.21388e-123 0
3.51383e-39 -2.56354e-121 0
9.65855e-41 -2.00041e-119 0
2.56368e-42 -1.52564e-117 0
6.57875e-44 -1.136e-115 0
1.63388e-45 -8.24846e-114 0
3.93135e-47 -5.83237e-112 0
9.17319e-49 -4.00972e-110 0
2.07754e-50 -2.6754e-108 0
4.57089e-52 -1.72882e-106 0
9.77736e-54 -1.0792e-104 0
2.0349e-55 -6.48837e-103 0
4.12363e-57 -3.74334e-101 0
8.14192e-59 -2.06301e-99 0
1.56736e-60 -1.07986e-97 0
2.94356e-62 -5.32895e-96 0
5.39628e-64 -2.4549e-94 0
9.66227e-66 -1.04146e-92 0
1.69067e-67 -3.98986e-91 0
2.89238e-69 -1.33951e-89 0
4.84042e-71 -3.74871e-88 0
7.92768e-73 -7.94908e-87 0
1.29123e-74 -1.00996e-85 0
2.10316e-72 -2.87672e-83 0
0 -6.04061e-177 0
1.50998e-07 -7.58905e-175 0
1.59805e-07 -9.21464e-173 0
6.2426e-08 -1.09712e-170 0
1.41678e-08 -1.29097e-168 0
2.37869e-09 -1.50107e-166 0
3.25513e-10 -1.72439e-164 0
3.72665e-11 -1.95679e-162 0
3.23501e-12 -2.19303e-160 0
2.57889e-13 -2.42692e-158 0
1.98585e-14 -2.65128e-156 0
1.40788e-15 -2.84912e-154 0
9.2274e-17 -3.02071e-152 0
5.61415e-18 -3.15905e-150 0
3.18359e-19 -3.25794e-148 0
1.68896e-20 -3.31249e-146 0
8.41241e-22 -3.31945e-144 0
3.94673e-23 -3.27756e-142 0
1.74934e-24 -3.18763e-140 0
7.34574e-26 -3.05264e-138 0
2.9297e-27 -2.87751e-136 0
1.11239e-28 -2.66885e-134 0
4.02967e-30 -2.43457e-132 0
1.39549e-31 -2.18332e-130 0
4.62841e-33 -1.92399e-128 0
1.47272e-34 -1.66516e-126 0
4.50278e-36 -1.41458e-124 0
1.32481e-37 -1.17885e-122 0
3.75604e-39 -9.63047e-121 0
1.02748e-40 -7.70678e-119 0
2.71515e-42 -6.03632e-117 0
6.93884e-44 -4.62318e-115 0
1.71675e-45 -3.45877e-113 0
4.11608e-47 -2.52462e-111 0
9.57247e-49 -1.79543e-109 0
2.16127e-50 -1.24207e-107 0
4.74133e-52 -8.34307e-106 0
1.01144e-53 -5.42934e-104 0
2.09967e-55 -3.41397e-102 0
4.24464e-57 -2.06758e-100 0
8.36185e-59 -1.20118e-98 0
1.60625e-60 -6.66023e-97 0
3.01047e-62 -3.50129e-95 0
5.50836e-64 -1.72972e-93 0
9.84499e-66 -7.93192e-92 0
1.71966e-67 -3.31623e-90 0
2.93715e-69 -1.2294e-88 0
4.90764e-71 -3.85523e-87 0
8.0258e-73 -9.32925e-86 0
1.30533e-74 -1.38024e-84 0
2.13876e-72 -4.05367e-82 0
0 0 0
3.93679e-08 0 0
3.62621e-08 0 0
1.37206e-08 0 0
3.19625e-09 0 0
5.54936e-10 0 0
7.81687e-11 0 0
9.28066e-12 0 0
9.24455e-13 0 0
8.07955e-14 0 0
6.38639e-15 0 0
4.60773e-16 0 0
3.05651e-17 0 0
1.87538e-18 0 0
1.06986e-19 0 0
5.70046e-21 0 0
2.84828e-22 0 0
1.33939e-23 0 0
5.94691e-25 0 0
2.50038e-26 0 0
9.98171e-28 0 0
3.79263e-29 0 0
1.3746e-30 0 0
4.76207e-32 0 0
1.57984e-33 0 0
5.0278e-35 0 0
1.5374e-36 0 0
4.52362e-38 0 0
1.28255e-39 0 0
3.50842e-41 0 0
9.2709e-43 0 0
2.36916e-44 0 0
5.8612e-46 0 0
1.40518e-47 0 0
3.26767e-49 0 0
7.37711e-51 0 0
1.61823e-52 0 0
3.45175e-54 0 0
7.1649e-56 0 0
1.44831e-57 0 0
2.85287e-59 0 0
5.47965e-61 0 0
1.02692e-62 0 0
1.87882e-64 0 0
3.3577e-66 0 0
5.86453e-68 0 0
1.00157e-69 0 0
1.67338e-71 0 0
2.73638e-73 0 0
4.45015e-75 0 0
7.29761e-73 0 0
0 0 -2.49838e-181
7.15474e-08 0 -3.24247e-179
6.26863e-08 0 -4.0394e-177
2.3423e-08 0 -3.94741e-175
5.49598e-09 0 -3.08775e-173
9.54687e-10 0 -1.93006e-171
1.34193e-10 0 -7.91503e-170
1.59642e-11 0 -1.4577e-170
1.65091e-12 0 -1.31357e-168
1.51118e-13 0 -1.33797e-166
1.24094e-14 0 -1.34087e-164
9.23809e-16 0 -1.32239e-162
6.28817e-17 0 -1.28302e-160
3.94163e-18 0 -1.22419e-158
2.28915e-19 0 -1.1482e-156
1.23821e-20 0 -1.05817e-154
6.26645e-22 0 -9.57751e-153
2.97922e-23 0 -8.50936e-151
1.33534e-24 0 -7.41746e-149
5.66071e-26 0 -6.33986e-147
2.27609e-27 0 -5.31013e-145
8.703e-29 0 -4.35556e-143
3.17201e-30 0 -3.49613e-141
1.10437e-31 0 -2.74412e-139
3.68015e-33 0 -2.10439e-137
1.17589e-34 0 -1.57529e-135
3.60864e-36 0 -1.14994e-133
1.06527e-37 0 -8.17701e-132
3.02929e-39 0 -5.65714e-130
8.30913e-41 0 -3.80278e-128
2.20112e-42 0 -2.48008e-126
5.63773e-44 0 -1.56663e-124
1.39768e-45 0 -9.56741e-123
3.35735e-47 0 -5.63678e-121
7.82133e-49 0 -3.19616e-119
1.76869e-50 0 -1.73934e-117
3.88577e-52 0 -9.05538e-116
8.30048e-54 0 -4.49325e-114
1.72528e-55 0 -2.11552e-112
3.49186e-57 0 -9.40075e-111
6.8864e-59 0 -3.91729e-109
1.32417e-60 0 -1.51848e-107
2.48417e-62 0 -5.42059e-106
4.54944e-64 0 -1.75883e-104
8.13798e-66 0 -5.09766e-103
1.42262e-67 0 -1.28821e-101
2.43162e-69 0 -2.73963e-100
4.06584e-71 0 -4.63667e-99
6.65359e-73 0 -5.65417e-98
1.08284e-74 0 -3.99171e-97
1.75423e-72 0 -9.39577e-95
0.0036 -1.63928e-180 -1.3714e-180
0.00331858 -3.98408e-176 -4.22794e-176
0.00137798 -1.11643e-173 -1.11085e-173
0.000333448 -1.65255e-171 -1.56924e-171
5.74776e-05 -1.69003e-169 -1.57996e-169
7.76021e-06 -1.41396e-167 -1.31288e-167
8.85988e-07 -8.66605e-166 -8.01276e-166
8.83673e-08 -3.77869e-167 -3.68243e-167
7.84601e-09 -2.55203e-165 -2.5526e-165
6.28085e-10 -2.65619e-163 -2.65627e-163
4.57695e-11 -2.71405e-161 -2.71406e-161
3.05976e-12 -2.72917e-159 -2.72917e-159
1.88875e-13 -2.70087e-157 -2.70087e-157
1.08256e-14 -2.62962e-155 -2.62962e-155
5.78919e-16 -2.51782e-153 -2.51782e-153
2.90084e-17 -2.36983e-151 -2.36983e-151
1.36713e-18 -2.19166e-149 -2.19166e-149
6.08054e-20 -1.99061e-147 -1.99061e-147
2.55997e-21 -1.77474e-145 -1.77474e-145
1.02301e-22 -1.55232e-143 -1.55232e-143
3.8901e-24 -1.33128e-141 -1.33128e-141
1.41077e-25 -1.11873e-139 -1.11873e-139
4.88955e-27 -9.2057e-138 -9.2057e-138
1.62266e-28 -7.41206e-136 -7.41206e-136
5.16524e-30 -5.83479e-134 -5.83479e-134
1.57966e-31 -4.4868e-132 -4.4868e-132
4.64837e-33 -3.36711e-130 -3.36711e-130
1.31797e-34 -2.46339e-128 -2.46339e-128
3.6053e-36 -1.75493e-126 -1.75493e-126
9.52656e-38 -1.21586e-124 -1.21586e-124
2.43434e-39 -8.18059e-123 -8.18059e-123
6.022e-41 -5.33663e-121 -5.33663e-121
1.4436e-42 -3.36939e-119 -3.36939e-119
3.35664e-44 -2.05472e-117 -2.05472e-117
7.57711e-46 -1.20742e-115 -1.20742e-115
1.6619e-47 -6.81885e-114 -6.81885e-114
3.54446e-49 -3.68942e-112 -3.68942e-112
7.3564e-51 -1.90554e-110 -1.90554e-110
1.48683e-52 -9.35449e-109 -9.35449e-109
2.92837e-54 -4.34223e-107 -4.34223e-107
5.62394e-56 -1.89391e-105 -1.89391e-105
1.05383e-57 -7.70123e-104 -7.70123e-104
1.92781e-59 -2.89083e-102 -2.89083e-102
3.44483e-61 -9.88958e-101 -9.88958e-101
6.016e-63 -3.03089e-99 -3.03089e-99
1.02732e-64 -8.1249e-98 -8.1249e-98
1.71621e-66 -1.83935e-96 -1.83935e-96
2.8061e-68 -3.32574e-95 -3.32574e-95
4.49263e-70 -4.34644e-94 -4.34644e-94
7.1543e-72 -3.28678e-93 -3.28678e-93
7.11066e-72 -5.74639e-93 -5.74639e-93
0.01 -1.98069e-179 -4.83361e-180
0.00888698 -1.7641e-175 9.96319e-176
0.00400617 -1.89131e-172 -1.61794e-172
0.000977416 -4.84925e-170 -4.58963e-170
0.000160469 -6.92759e-168 -6.52048e-168
1.86252e-05 -8.65725e-166 -8.05782e-166
1.92607e-06 -1.04877e-163 -9.68845e-164
1.79556e-07 -1.27683e-165 -1.22275e-165
1.5235e-08 -5.08085e-164 -5.08725e-164
1.18159e-09 -5.42906e-162 -5.43e-162
8.4166e-11 -5.61266e-160 -5.61275e-160
5.53269e-12 -5.70136e-158 -5.70136e-158
3.37196e-13 -5.70046e-156 -5.70046e-156
1.9137e-14 -5.60919e-154 -5.60919e-154
1.01546e-15 -5.42981e-152 -5.42981e-152
5.05663e-17 -5.16876e-150 -5.16876e-150
2.37108e-18 -4.83637e-148 -4.83637e-148
1.05018e-19 -4.44617e-146 -4.44617e-146
4.40601e-21 -4.01396e-144 -4.01396e-144
1.75557e-22 -3.55675e-142 -3.55675e-142
6.65906e-24 -3.09159e-140 -3.09159e-140
2.40979e-25 -2.63451e-138 -2.63451e-138
8.33658e-27 -2.19948e-136 -2.19948e-136
2.76214e-28 -1.79779e-134 -1.79779e-134
8.78e-30 -1.43755e-132 -1.43755e-132
2.6818e-31 -1.12359e-130 -1.12359e-130
7.8828e-33 -8.57628e-129 -8.57628e-129
2.23283e-34 -6.38645e-127 -6.38645e-127
6.10247e-36 -4.63457e-125 -4.63457e-125
1.61121e-37 -3.27353e-123 -3.27353e-123
4.11419e-39 -2.24743e-121 -2.24743e-121
1.01709e-40 -1.49745e-119 -1.49745e-119
2.4367e-42 -9.66653e-118 -9.66653e-118
5.6627e-44 -6.03375e-116 -6.03375e-116
1.27762e-45 -3.63357e-114 -3.63357e-114
2.80092e-47 -2.10568e-112 -2.10568e-112
5.97118e-49 -1.17074e-110 -1.17074e-110
1.23881e-50 -6.22328e-109 -6.22328e-109
2.50286e-52 -3.14959e-107 -3.14959e-107
4.92779e-54 -1.51004e-105 -1.51004e-105
9.46079e-56 -6.8166e-104 -6.8166e-104
1.77225e-57 -2.87533e-102 -2.87533e-102
3.24114e-59 -1.12244e-100 -1.12244e-100
5.79008e-61 -4.00451e-99 -4.00451e-99
1.01092e-62 -1.2839e-97 -1.2839e-97
1.72588e-64 -3.61318e-96 -3.61318e-96
2.88255e-66 -8.62046e-95 -8.62046e-95
4.71213e-68 -1.64957e-93 -1.64957e-93
7.54269e-70 -2.29089e-92 -2.29089e-92
1.2009e-71 -1.84305e-91 -1.84305e-91
1.19361e-71 -3.24768e-91 -3.24768e-91
0.0148 -7.18558e-181 4.41667e-179
0.0151427 -1.1453e-177 -5.88291e-175
0.00796904 -2.7114e-174 -8.88648e-173
0.00206766 -7.31684e-172 -7.10995e-170
0.000326382 -5.59385e-170 -9.09613e-168
1.23919e-05 -5.52096e-170 -7.95513e-166
1.2228e-06 0 -9.60896e-164
1.10066e-07 1.25504e-161 1.14862e-161
9.76939e-09 -7.98043e-163 -8.05092e-163
7.84782e-10 -9.67192e-161 -9.68253e-161
5.74866e-11 -1.02339e-158 -1.0235e-158
3.86566e-12 -1.05158e-156 -1.05158e-156
2.40051e-13 -1.06264e-154 -1.06264e-154
1.38389e-14 -1.05715e-152 -1.05715e-152
7.44148e-16 -1.03501e-150 -1.03501e-150
3.74805e-17 -9.96859e-149 -9.96859e-149
1.7749e-18 -9.4413e-147 -9.4413e-147
7.92927e-20 -8.78917e-145 -8.78917e-145
3.35204e-21 -8.0386e-143 -8.0386e-143
1.34463e-22 -7.2196e-141 -7.2196e-141
5.13102e-24 -6.36376e-139 -6.36376e-139
1.86684e-25 -5.50216e-137 -5.50216e-137
6.48973e-27 -4.6634e-135 -4.6634e-135
2.15971e-28 -3.87196e-133 -3.87196e-133
6.89264e-30 -3.14704e-131 -3.14704e-131
2.11304e-31 -2.5019e-129 -2.5019e-129
6.23191e-33 -1.94384e-127 -1.94384e-127
1.77067e-34 -1.47454e-125 -1.47454e-125
4.85319e-36 -1.09095e-123 -1.09095e-123
1.28476e-37 -7.86309e-122 -7.86309e-122
3.28864e-39 -5.51395e-120 -5.51395e-120
8.14854e-41 -3.75646e-118 -3.75646e-118
1.95636e-42 -2.48214e-116 -2.48214e-116
4.55545e-44 -1.58781e-114 -1.58781e-114
1.02972e-45 -9.81226e-113 -9.81226e-113
2.26139e-47 -5.84343e-111 -5.84343e-111
4.82888e-49 -3.3439e-109 -3.3439e-109
1.00337e-50 -1.83259e-107 -1.83259e-107
2.03014e-52 -9.57999e-106 -9.57999e-106
4.00256e-54 -4.75401e-104 -4.75401e-104
7.69444e-56 -2.22632e-102 -2.22632e-102
1.44314e-57 -9.76695e-101 -9.76695e-101
2.64233e-59 -3.97662e-99 -3.97662e-99
4.72558e-61 -1.48442e-97 -1.48442e-97
8.25929e-63 -4.99741e-96 -4.99741e-96
1.41147e-64 -1.48271e-94 -1.48271e-94
2.35967e-66 -3.74643e-93 -3.74643e-93
3.86088e-68 -7.63036e-92 -7.63036e-92
6.18545e-70 -1.13358e-90 -1.13358e-90
9.85635e-72 -9.77726e-90 -9.77726e-90
9.79629e-72 -1.73719e-89 -1.73719e-89
0.018 -1.17084e-182 4.14197e-177
0.0201859 -5.48864e-179 -4.65497e-173
0.0122027 -2.31705e-176 5.66931e-171
0.00342472 -8.26839e-174 -1.33817e-168
0.000529521 -4.50826e-172 -3.25831e-166
0 -4.42581e-172 -3.24487e-166
0 0 0
0 0 1.14874e-161
6.59439e-10 -1.51063e-159 -1.38207e-159
9.63693e-11 -1.35431e-159 -1.36605e-159
9.52101e-12 -1.60384e-157 -1.60516e-157
7.71624e-13 -1.68111e-155 -1.68111e-155
5.45292e-14 -1.71751e-153 -1.71751e-153
3.45817e-15 -1.7281e-151 -1.7281e-151
2.00129e-16 -1.71182e-149 -1.71182e-149
1.06863e-17 -1.66881e-147 -1.66881e-147
5.30727e-19 -1.60048e-145 -1.60048e-145
2.46668e-20 -1.50941e-143 -1.50941e-143
1.07821e-21 -1.39922e-141 -1.39922e-141
4.45057e-23 -1.27434e-139 -1.27434e-139
1.74089e-24 -1.13968e-137 -1.13968e-137
6.47259e-26 -1.00034e-135 -1.00034e-135
2.29344e-27 -8.61233e-134 -8.61233e-134
7.76289e-29 -7.26827e-132 -7.26827e-132
2.51537e-30 -6.00869e-130 -6.00869e-130
7.81718e-32 -4.8623e-128 -4.8623e-128
2.33413e-33 -3.84824e-126 -3.84824e-126
6.70675e-35 -2.97612e-124 -2.97612e-124
1.85716e-36 -2.24686e-122 -2.24686e-122
4.96269e-38 -1.6541e-120 -1.6541e-120
1.28133e-39 -1.18597e-118 -1.18597e-118
3.20022e-41 -8.27023e-117 -8.27023e-117
7.74013e-43 -5.60039e-115 -5.60039e-115
1.81469e-44 -3.6763e-113 -3.6763e-113
4.12813e-46 -2.33464e-111 -2.33464e-111
9.11986e-48 -1.43098e-109 -1.43098e-109
1.95826e-49 -8.44255e-108 -8.44255e-108
4.09017e-51 -4.77917e-106 -4.77917e-106
8.31625e-53 -2.58593e-104 -2.58593e-104
1.64715e-54 -1.33128e-102 -1.33128e-102
3.18018e-56 -6.48425e-101 -6.48425e-101
5.98904e-58 -2.96708e-99 -2.96708e-99
1.10081e-59 -1.26407e-97 -1.26407e-97
1.9759e-61 -4.95529e-96 -4.95529e-96
3.46542e-63 -1.75912e-94 -1.75912e-94
5.94171e-65 -5.52937e-93 -5.52937e-93
9.96432e-67 -1.48805e-91 -1.48805e-91
1.63521e-68 -3.24734e-90 -3.24734e-90
2.62716e-70 -5.20175e-89 -5.20175e-89
4.19778e-72 -4.8553e-88 -4.8553e-88
4.17185e-72 -8.70239e-88 -8.70239e-88
0.0196 -2.98947e-183 -9.55949e-178
0.0228564 -9.91213e-180 6.11918e-174
0.0149524 -6.22443e-177 -1.93437e-172
0.00442701 -1.62067e-174 -2.8278e-169
0.000688365 -8.52843e-173 -8.39613e-168
3.6226e-05 -8.36699e-173 4.17396e-164
0 0 4.17477e-164
0 0 0
0 0 -1.38132e-159
5.65304e-12 1.78316e-157 1.61573e-157
8.78837e-13 -1.95952e-156 -1.97512e-156
8.9899e-14 -2.26602e-154 -2.26602e-154
7.41528e-15 -2.34142e-152 -2.34142e-152
5.2713e-16 -2.38355e-150 -2.38355e-150
3.33528e-17 -2.38982e-148 -2.38982e-148
1.91446e-18 -2.35913e-146 -2.35913e-146
1.00966e-19 -2.29206e-144 -2.29206e-144
4.9374e-21 -2.1909e-142 -2.1909e-142
2.25451e-22 -2.05949e-140 -2.05949e-140
9.66608e-24 -1.90304e-138 -1.90304e-138
3.9091e-25 -1.72775e-136 -1.72775e-136
1.49691e-26 -1.54042e-134 -1.54042e-134
5.44539e-28 -1.348e-132 -1.348e-132
1.8872e-29 -1.15709e-130 -1.15709e-130
6.24669e-31 -9.7365e-129 -9.7365e-129
1.97922e-32 -8.02578e-127 -8.02578e-127
6.01478e-34 -6.47577e-125 -6.47577e-125
1.75634e-35 -5.11035e-123 -5.11035e-123
4.936e-37 -3.94062e-121 -3.94062e-121
1.33712e-38 -2.9661e-119 -2.9661e-119
3.49618e-40 -2.1768e-117 -2.1768e-117
8.83478e-42 -1.55564e-115 -1.55564e-115
2.16017e-43 -1.08099e-113 -1.08099e-113
5.11617e-45 -7.29204e-112 -7.29204e-112
1.17493e-46 -4.76615e-110 -4.76615e-110
2.61877e-48 -3.01184e-108 -3.01184e-108
5.67012e-50 -1.83543e-106 -1.83543e-106
1.19361e-51 -1.07542e-104 -1.07542e-104
2.44481e-53 -6.03673e-103 -6.03673e-103
4.87605e-55 -3.23238e-101 -3.23238e-101
9.47624e-57 -1.64218e-99 -1.64218e-99
1.79572e-58 -7.86315e-98 -7.86315e-98
3.32007e-60 -3.51823e-96 -3.51823e-96
5.99273e-62 -1.45448e-94 -1.45448e-94
1.05662e-63 -5.47122e-93 -5.47122e-93
1.8208e-65 -1.83229e-91 -1.83229e-91
3.0682e-67 -5.28716e-90 -5.28716e-90
5.05821e-69 -1.2462e-88 -1.2462e-88
8.16219e-71 -2.17331e-87 -2.17331e-87
1.30972e-72 -2.22109e-86 -2.22109e-86
1.30147e-72 -4.01786e-86 -4.01786e-86
0.0196 -1.63858e-181 -1.05976e-177
0.0228545 -8.47909e-178 7.28181e-174
0.0149497 -7.27364e-175 -3.27651e-172
0.00442641 -1.36016e-172 -2.54817e-169
0.000694875 -1.00637e-170 -5.16475e-168
7.38939e-05 -4.53494e-169 -1.95648e-168
3.24837e-06 -4.43565e-169 -5.05432e-162
0 0 -5.05432e-162
0 0 0
0 0 1.62847e-157
4.53787e-14 -2.29214e-155 -2.27719e-155
1.77816e-14 -2.47422e-153 -2.47424e-153
2.3753e-15 -2.5867e-151 -2.5867e-151
2.19471e-16 -2.6652e-149 -2.6652e-149
1.63964e-17 -2.70578e-147 -2.70578e-147
1.05556e-18 -2.70582e-145 -2.70582e-145
6.05341e-20 -2.6644e-143 -2.6644e-143
3.15499e-21 -2.58249e-141 -2.58249e-141
1.51446e-22 -2.46293e-139 -2.46293e-139
6.75926e-24 -2.31027e-137 -2.31027e-137
2.82502e-25 -2.13049e-135 -2.13049e-135
1.11186e-26 -1.93063e-133 -1.93063e-133
4.13951e-28 -1.71832e-131 -1.71832e-131
1.46333e-29 -1.50126e-129 -1.50126e-129
4.92729e-31 -1.28676e-127 -1.28676e-127
1.58465e-32 -1.08132e-125 -1.08132e-125
4.87926e-34 -8.90257e-124 -8.90257e-124
1.4414e-35 -7.17545e-122 -7.17545e-122
4.093e-37 -5.65699e-120 -5.65699e-120
1.11908e-38 -4.35828e-118 -4.35828e-118
2.9506e-40 -3.27779e-116 -3.27779e-116
7.51264e-42 -2.40365e-114 -2.40365e-114
1.84956e-43 -1.71636e-112 -1.71636e-112
4.40806e-45 -1.19161e-110 -1.19161e-110
1.01814e-46 -8.02956e-109 -8.02956e-109
2.28132e-48 -5.24097e-107 -5.24097e-107
4.96359e-50 -3.30576e-105 -3.30576e-105
1.04959e-51 -2.0094e-103 -2.0094e-103
2.15883e-53 -1.17315e-101 -1.17315e-101
4.32243e-55 -6.55216e-100 -6.55216e-100
8.43078e-57 -3.48333e-98 -3.48333e-98
1.60301e-58 -1.75174e-96 -1.75174e-96
2.97318e-60 -8.26623e-95 -8.26623e-95
5.38255e-62 -3.62148e-93 -3.62148e-93
9.51686e-64 -1.45169e-91 -1.45169e-91
1.64429e-65 -5.21462e-90 -5.21462e-90
2.77764e-67 -1.62635e-88 -1.62635e-88
4.58992e-69 -4.18074e-87 -4.18074e-87
7.42295e-71 -8.03377e-86 -8.03377e-86
1.19363e-72 -9.12533e-85 -9.12533e-85
1.18612e-72 -1.66692e-84 -1.66692e-84
0.018 -5.51807e-180 3.54368e-177
0.0201683 -1.87331e-175 -3.78568e-173
0.0121832 -6.32116e-173 4.23984e-171
0.00341871 -9.10976e-171 5.69965e-169
0.000538031 -7.97088e-169 1.05542e-167
6.40966e-05 -5.45861e-167 6.4734e-167
6.02423e-06 -2.63784e-165 -2.04075e-165
2.20477e-07 -2.58404e-165 6.0099e-160
0 0 6.00992e-160
0 0 0
0 -1.89768e-154 -1.89517e-154
2.02397e-13 -2.05455e-152 -2.05452e-152
2.26212e-14 -2.17372e-150 -2.17372e-150
1.77723e-15 -2.26772e-148 -2.26772e-148
1.167e-16 -2.33211e-146 -2.33211e-146
6.77543e-18 -2.3635e-144 -2.3635e-144
3.57158e-19 -2.35982e-142 -2.35982e-142
1.73568e-20 -2.32044e-140 -2.32044e-140
7.85402e-22 -2.24638e-138 -2.24638e-138
3.33284e-23 -2.14019e-136 -2.14019e-136
1.33346e-24 -2.00588e-134 -2.00588e-134
5.05185e-26 -1.84866e-132 -1.84866e-132
1.81869e-27 -1.67459e-130 -1.67459e-130
6.24023e-29 -1.4902e-128 -1.4902e-128
2.04593e-30 -1.30207e-126 -1.30207e-126
6.42407e-32 -1.11641e-124 -1.11641e-124
1.93564e-33 -9.38717e-123 -9.38717e-123
5.60678e-35 -7.73512e-121 -7.73512e-121
1.56379e-36 -6.24148e-119 -6.24148e-119
4.20593e-38 -4.92749e-117 -4.92749e-117
1.09232e-39 -3.80251e-115 -3.80251e-115
2.74273e-41 -2.86523e-113 -2.86523e-113
6.66595e-43 -2.10558e-111 -2.10558e-111
1.56982e-44 -1.50701e-109 -1.50701e-109
3.58575e-46 -1.04884e-107 -1.04884e-107
7.95163e-48 -7.0854e-106 -7.0854e-106
1.71339e-49 -4.63618e-104 -4.63618e-104
3.59037e-51 -2.93092e-102 -2.93092e-102
7.32214e-53 -1.78479e-100 -1.78479e-100
1.45435e-54 -1.04308e-98 -1.04308e-98
2.81535e-56 -5.82404e-97 -5.82404e-97
5.31511e-58 -3.08897e-95 -3.08897e-95
9.79209e-60 -1.54478e-93 -1.54478e-93
1.76148e-61 -7.21265e-92 -7.21265e-92
3.09574e-63 -3.10167e-90 -3.10167e-90
5.31819e-65 -1.20463e-88 -1.20463e-88
8.93511e-67 -4.10048e-87 -4.10048e-87
1.46886e-68 -1.16357e-85 -1.16357e-85
2.36382e-70 -2.50176e-84 -2.50176e-84
3.78302e-72 -3.22146e-83 -3.22146e-83
3.75969e-72 -5.94573e-83 -5.94573e-83
0.0148 -6.09621e-178 -6.32856e-178
0.0150181 -1.87208e-173 1.37959e-173
0.00787002 -3.39753e-171 -1.16758e-170
0.00203872 -4.26291e-169 -9.18241e-169
0.000324782 -4.32335e-167 -5.22077e-167
4.07222e-05 -3.91654e-165 -4.02796e-165
4.36951e-06 -3.10225e-163 -3.11388e-163
3.74215e-07 -1.82546e-161 -1.82619e-161
1.12443e-08 -1.79483e-161 -7.06386e-158
7.69731e-10 0 -8.03207e-156
5.23837e-11 -1.05503e-153 -1.06299e-153
3.5142e-12 -1.15579e-151 -1.15579e-151
2.17808e-13 -1.238e-149 -1.238e-149
1.25374e-14 -1.30815e-147 -1.30815e-147
6.73345e-16 -1.36324e-145 -1.36324e-145
3.38819e-17 -1.40073e-143 -1.40073e-143
1.60328e-18 -1.41868e-141 -1.41868e-141
7.1584e-20 -1.41588e-139 -1.41588e-139
3.0248e-21 -1.39203e-137 -1.39203e-137
1.21294e-22 -1.34774e-135 -1.34774e-135
4.62731e-24 -1.28453e-133 -1.28453e-133