# vtk DataFile Version 2.0
Tobias Weinzierl: CPU, Manycore and Cluster Computing
ASCII

DATASET STRUCTURED_POINTS
DIMENSIONS  51 11 6

ORIGIN 0 0 0 

SPACING 0.1 0.1 0.1 

POINT_DATA 3366

VECTORS velocity float
0 0 0
1.52771e-12 0 0
-1.99897e-07 0 0
-3.73141e-07 0 0
-3.83549e-07 0 0
-9.77275e-08 0 0
-7.66134e-09 0 0
-2.29852e-08 0 0
-9.83211e-08 0 0
-1.8997e-07 0 0
-2.43099e-07 0 0
-2.55989e-07 0 0
-2.50238e-07 0 0
-2.41737e-07 0 0
-2.36653e-07 0 0
-2.35542e-07 0 0
-2.36833e-07 0 0
-2.38956e-07 0 0
-2.41001e-07 0 0
-2.42609e-07 0 0
-2.43729e-07 0 0
-2.4443e-07 0 0
-2.44812e-07 0 0
-2.44956e-07 0 0
-2.44915e-07 0 0
-2.44714e-07 0 0
-2.44347e-07 0 0
-2.43783e-07 0 0
-2.42959e-07 0 0
-2.41777e-07 0 0
-2.40099e-07 0 0
-2.37734e-07 0 0
-2.34456e-07 0 0
-2.30025e-07 0 0
-2.24244e-07 0 0
-2.1698e-07 0 0
-2.08152e-07 0 0
-1.97732e-07 0 0
-1.85774e-07 0 0
-1.7247e-07 0 0
-1.58176e-07 0 0
-1.4339e-07 0 0
-1.2869e-07 0 0
-1.14654e-07 0 0
-1.01792e-07 0 0
-9.04927e-08 0 0
-8.10231e-08 0 0
-7.35447e-08 0 0
-6.81848e-08 0 0
-6.52773e-08 0 0
0.00172529 0 0
0 4.84206e-07 0
8.20426e-11 1.05472e-07 0
-3.76873e-07 1.80956e-07 0
-7.28162e-07 1.24236e-07 0
-7.02342e-07 6.87514e-08 0
-2.20204e-07 8.33294e-08 0
-7.34066e-08 1.42027e-07 0
-7.03584e-08 1.4613e-07 0
-1.28995e-07 1.32949e-07 0
-2.61925e-07 1.07813e-07 0
-3.57764e-07 6.00055e-08 0
-3.92786e-07 2.13863e-08 0
-3.99902e-07 2.46692e-09 0
-4.03606e-07 -2.51631e-09 0
-4.11984e-07 -1.14374e-09 0
-4.24253e-07 1.38544e-09 0
-4.37043e-07 2.84136e-09 0
-4.47975e-07 3.08421e-09 0
-4.56223e-07 2.63783e-09 0
-4.6193e-07 1.96238e-09 0
-4.65609e-07 1.30763e-09 0
-4.67807e-07 7.65536e-10 0
-4.68972e-07 3.42609e-10 0
-4.69414e-07 8.18691e-12 0
-4.69322e-07 -2.80822e-10 0
-4.6878e-07 -5.70313e-10 0
-4.67789e-07 -9.07703e-10 0
-4.66277e-07 -1.34489e-09 0
-4.64098e-07 -1.94304e-09 0
-4.61029e-07 -2.77713e-09 0
-4.56754e-07 -3.93605e-09 0
-4.50852e-07 -5.5099e-09 0
-4.42814e-07 -7.55684e-09 0
-4.3211e-07 -1.0063e-08 0
-4.18329e-07 -1.29377e-08 0
-4.01259e-07 -1.60574e-08 0
-3.8085e-07 -1.9294e-08 0
-3.57158e-07 -2.24846e-08 0
-3.30401e-07 -2.53948e-08 0
-3.0107e-07 -2.77333e-08 0
-2.69977e-07 -2.92146e-08 0
-2.38195e-07 -2.96355e-08 0
-2.06928e-07 -2.89245e-08 0
-1.77346e-07 -2.71488e-08 0
-1.50458e-07 -2.44823e-08 0
-1.27021e-07 -2.11491e-08 0
-1.07527e-07 -1.73633e-08 0
-9.22554e-08 -1.32661e-08 0
-8.13755e-08 -8.79177e-09 0
-7.53557e-08 -3.87132e-09 0
0.00441532 -5.79724e-06 0
0 4.56471e-08 0
2.31019e-10 1.26587e-07 0
-2.61223e-07 1.51132e-07 0
-5.76811e-07 -1.79439e-08 0
-4.2306e-07 -1.59267e-08 0
-1.01031e-07 1.23173e-07 0
-1.48232e-07 1.8393e-07 0
-1.8151e-07 8.18204e-08 0
-1.72522e-07 -1.4946e-09 0
-2.13026e-07 2.18044e-08 0
-2.67791e-07 5.22965e-08 0
-2.86002e-07 8.07258e-08 0
-2.92477e-07 9.00313e-08 0
-2.99034e-07 7.8434e-08 0
-3.11556e-07 6.02811e-08 0
-3.28562e-07 4.39293e-08 0
-3.45441e-07 3.09162e-08 0
-3.59207e-07 2.10332e-08 0
-3.69114e-07 1.38139e-08 0
-3.75649e-07 8.72665e-09 0
-3.79661e-07 5.24419e-09 0
-3.81932e-07 2.899e-09 0
-3.83046e-07 1.30907e-09 0
-3.83382e-07 1.77949e-10 0
-3.83156e-07 -7.19814e-10 0
-3.82458e-07 -1.55932e-09 0
-3.81286e-07 -2.4866e-09 0
-3.79561e-07 -3.6379e-09 0
-3.77132e-07 -5.15589e-09 0
-3.73774e-07 -7.20118e-09 0
-3.69171e-07 -9.95484e-09 0
-3.62894e-07 -1.35973e-08 0
-3.5438e-07 -1.82396e-08 0
-3.42986e-07 -2.38153e-08 0
-3.28194e-07 -3.00401e-08 0
-3.09816e-07 -3.65272e-08 0
-2.87916e-07 -4.29192e-08 0
-2.62642e-07 -4.88659e-08 0
-2.34279e-07 -5.39422e-08 0
-2.03406e-07 -5.7662e-08 0
-1.70961e-07 -5.95901e-08 0
-1.38146e-07 -5.94664e-08 0
-1.06225e-07 -5.72629e-08 0
-7.63707e-08 -5.3162e-08 0
-4.95544e-08 -4.75038e-08 0
-2.64533e-08 -4.07017e-08 0
-7.4399e-09 -3.31329e-08 0
7.34485e-09 -2.50545e-08 0
1.79022e-08 -1.65363e-08 0
2.39875e-08 -7.69368e-09 0
0.00554331 -1.30244e-05 0
0 -5.93353e-07 0
3.02714e-10 5.56362e-08 0
-1.47646e-07 -4.07245e-08 0
-4.53797e-07 -3.02201e-07 0
-3.04867e-07 -3.0465e-07 0
2.14453e-08 -9.88917e-08 0
-8.2557e-08 -1.24356e-10 0
-1.34136e-07 -1.15042e-07 0
-3.2781e-07 -2.51013e-07 0
-3.57765e-07 -2.02436e-07 0
-3.75468e-07 -5.67901e-08 0
-3.7041e-07 7.19573e-08 0
-3.50066e-07 1.30503e-07 0
-3.19918e-07 1.22972e-07 0
-2.97406e-07 9.50103e-08 0
-2.88428e-07 6.82963e-08 0
-2.88137e-07 4.68854e-08 0
-2.90914e-07 3.08462e-08 0
-2.9378e-07 1.94722e-08 0
-2.95794e-07 1.17665e-08 0
-2.96929e-07 6.71441e-09 0
-2.97415e-07 3.45119e-09 0
-2.97474e-07 1.313e-09 0
-2.97248e-07 -1.81449e-10 0
-2.96803e-07 -1.3751e-09 0
-2.96145e-07 -2.51959e-09 0
-2.95235e-07 -3.81609e-09 0
-2.93994e-07 -5.44791e-09 0
-2.92301e-07 -7.60562e-09 0
-2.89982e-07 -1.05059e-08 0
-2.86791e-07 -1.44032e-08 0
-2.82363e-07 -1.9581e-08 0
-2.76115e-07 -2.62673e-08 0
-2.67197e-07 -3.44269e-08 0
-2.54743e-07 -4.35901e-08 0
-2.38369e-07 -5.30309e-08 0
-2.18143e-07 -6.21145e-08 0
-1.94174e-07 -7.0328e-08 0
-1.66669e-07 -7.70983e-08 0
-1.36244e-07 -8.17736e-08 0
-1.04027e-07 -8.37983e-08 0
-7.14837e-08 -8.2918e-08 0
-4.00356e-08 -7.92226e-08 0
-1.08909e-08 -7.30405e-08 0
1.49881e-08 -6.48695e-08 0
3.70142e-08 -5.52957e-08 0
5.49762e-08 -4.48476e-08 0
6.89162e-08 -3.3877e-08 0
7.89911e-08 -2.24732e-08 0
8.49993e-08 -1.08853e-08 0
0.00567686 -1.95487e-05 0
0 -1.14412e-06 0
2.21813e-10 -3.53731e-08 0
-1.5256e-07 -1.71573e-07 0
-4.79934e-07 -3.01015e-07 0
-4.63225e-07 -2.33965e-07 0
-9.93579e-11 -6.92778e-08 0
-1.36904e-09 -1.42073e-09 0
1.25584e-09 -1.39456e-09 0
-1.85961e-07 -1.60652e-07 0
-4.05584e-07 -2.66504e-07 0
-4.21229e-07 -1.13126e-07 0
-4.35897e-07 4.69266e-08 0
-4.34365e-07 1.11558e-07 0
-3.95231e-07 1.01595e-07 0
-3.4814e-07 7.68404e-08 0
-3.14839e-07 5.5945e-08 0
-2.96207e-07 3.88121e-08 0
-2.86507e-07 2.52385e-08 0
-2.81264e-07 1.5361e-08 0
-2.78168e-07 8.71915e-09 0
-2.76187e-07 4.48597e-09 0
-2.74853e-07 1.84243e-09 0
-2.73923e-07 1.42214e-10 0
-2.73242e-07 -1.07467e-09 0
-2.72701e-07 -2.12673e-09 0
-2.72211e-07 -3.24506e-09 0
-2.71696e-07 -4.61942e-09 0
-2.71082e-07 -6.43399e-09 0
-2.70278e-07 -8.89507e-09 0
-2.69166e-07 -1.22536e-08 0
-2.67571e-07 -1.68271e-08 0
-2.65212e-07 -2.3022e-08 0
-2.61532e-07 -3.12846e-08 0
-2.55396e-07 -4.17889e-08 0
-2.45238e-07 -5.39539e-08 0
-2.30128e-07 -6.65527e-08 0
-2.10156e-07 -7.84775e-08 0
-1.85474e-07 -8.90054e-08 0
-1.56229e-07 -9.74305e-08 0
-1.23177e-07 -1.02923e-07 0
-8.78767e-08 -1.04787e-07 0
-5.2415e-08 -1.02853e-07 0
-1.8561e-08 -9.74784e-08 0
1.23822e-08 -8.92095e-08 0
3.94083e-08 -7.87044e-08 0
6.20181e-08 -6.67217e-08 0
8.02013e-08 -5.39202e-08 0
9.4211e-08 -4.07023e-08 0
1.04357e-07 -2.71187e-08 0
1.10472e-07 -1.34295e-08 0
0.00556664 -2.45565e-05 0
0 -1.02305e-06 0
1.48163e-10 -7.15321e-08 0
-1.71077e-07 -1.77505e-07 0
-4.93573e-07 -2.44308e-07 0
-5.64822e-07 -2.57537e-07 0
-1.886e-07 -1.19231e-07 0
-1.31068e-09 1.28637e-09 0
-3.13564e-11 3.13564e-11 0
1.17954e-09 -1.33179e-09 0
-1.88891e-07 -1.12171e-07 0
-3.18689e-07 -1.13326e-07 0
-3.90074e-07 7.35055e-08 0
-4.72752e-07 1.34776e-07 0
-4.67451e-07 9.32534e-08 0
-4.07696e-07 5.22425e-08 0
-3.51451e-07 3.0515e-08 0
-3.15578e-07 1.80013e-08 0
-2.95393e-07 9.73407e-09 0
-2.84181e-07 4.46274e-09 0
-2.77804e-07 1.40948e-09 0
-2.741e-07 -2.27027e-10 0
-2.71934e-07 -1.09998e-09 0
-2.70676e-07 -1.64964e-09 0
-2.69962e-07 -2.14793e-09 0
-2.69576e-07 -2.76734e-09 0
-2.69393e-07 -3.63736e-09 0
-2.69334e-07 -4.88384e-09 0
-2.69354e-07 -6.65694e-09 0
-2.69412e-07 -9.15373e-09 0
-2.6946e-07 -1.26386e-08 0
-2.69418e-07 -1.7467e-08 0
-2.69146e-07 -2.41386e-08 0
-2.68273e-07 -3.3359e-08 0
-2.65544e-07 -4.57515e-08 0
-2.58351e-07 -6.08864e-08 0
-2.44512e-07 -7.69052e-08 0
-2.24081e-07 -9.18759e-08 0
-1.9753e-07 -1.04764e-07 0
-1.65016e-07 -1.14824e-07 0
-1.27426e-07 -1.21046e-07 0
-8.68596e-08 -1.2246e-07 0
-4.66291e-08 -1.19058e-07 0
-8.98023e-09 -1.11753e-07 0
2.4781e-08 -1.01402e-07 0
5.36242e-08 -8.87785e-08 0
7.72078e-08 -7.47884e-08 0
9.58209e-08 -6.01897e-08 0
1.1e-07 -4.53769e-08 0
1.20235e-07 -3.03012e-08 0
1.26382e-07 -1.51398e-08 0
0.00538148 -2.76075e-05 0
0 -7.25997e-07 0
1.38611e-10 -8.21969e-08 0
-1.65921e-07 -1.87563e-07 0
-4.82041e-07 -1.82174e-07 0
-5.87927e-07 -1.36714e-07 0
-4.17938e-07 -1.1375e-07 0
-1.3698e-07 -5.38249e-08 0
-1.30838e-09 1.2653e-09 0
-8.59414e-11 8.59414e-11 0
1.07803e-09 -1.27973e-09 0
-1.19803e-07 4.70103e-08 0
-2.52212e-07 1.92762e-07 0
-4.70962e-07 2.29317e-07 0
-5.44214e-07 1.04069e-07 0
-4.72436e-07 1.86976e-08 0
-3.83466e-07 -7.54197e-09 0
-3.2764e-07 -1.16104e-08 0
-2.99396e-07 -1.06527e-08 0
-2.85881e-07 -8.69362e-09 0
-2.79387e-07 -6.66908e-09 0
-2.76234e-07 -4.97511e-09 0
-2.74721e-07 -3.77254e-09 0
-2.74046e-07 -3.07185e-09 0
-2.73826e-07 -2.82561e-09 0
-2.73883e-07 -2.99212e-09 0
-2.74142e-07 -3.56635e-09 0
-2.74584e-07 -4.59307e-09 0
-2.75227e-07 -6.1754e-09 0
-2.76106e-07 -8.48652e-09 0
-2.77266e-07 -1.17865e-08 0
-2.78743e-07 -1.64404e-08 0
-2.80574e-07 -2.29669e-08 0
-2.82735e-07 -3.22148e-08 0
-2.84256e-07 -4.5362e-08 0
-2.81444e-07 -6.26302e-08 0
-2.6968e-07 -8.17912e-08 0
-2.48496e-07 -9.985e-08 0
-2.19272e-07 -1.15349e-07 0
-1.82253e-07 -1.27586e-07 0
-1.38407e-07 -1.35193e-07 0
-9.0182e-08 -1.36339e-07 0
-4.3495e-08 -1.31202e-07 0
-1.16191e-09 -1.21841e-07 0
3.58448e-08 -1.09549e-07 0
6.65601e-08 -9.51251e-08 0
9.09468e-08 -7.9599e-08 0
1.09738e-07 -6.37903e-08 0
1.23842e-07 -4.80249e-08 0
1.33964e-07 -3.2089e-08 0
1.39994e-07 -1.60233e-08 0
0.0051578 -2.87902e-05 0
0 -5.21232e-07 0
1.21448e-10 -8.93377e-08 0
-1.7759e-07 -1.82228e-07 0
-4.70644e-07 -1.47483e-07 0
-5.66475e-07 -7.16857e-08 0
-4.51417e-07 -4.82233e-08 0
-3.08228e-07 -1.16938e-07 0
-1.76069e-07 -8.58174e-08 0
-1.36935e-09 1.16109e-09 0
9.89375e-10 1.15469e-09 0
-6.11708e-11 1.05141e-07 0
-8.43187e-08 3.53871e-07 0
-3.0902e-07 3.72542e-07 0
-4.81729e-07 1.25015e-07 0
-4.71041e-07 -2.73107e-08 0
-3.93649e-07 -5.22565e-08 0
-3.37562e-07 -3.97589e-08 0
-3.11014e-07 -2.63896e-08 0
-3.00981e-07 -1.69855e-08 0
-2.97937e-07 -1.07736e-08 0
-2.97428e-07 -6.84068e-09 0
-2.97717e-07 -4.49122e-09 0
-2.98211e-07 -3.20981e-09 0
-2.98757e-07 -2.64977e-09 0
-2.99354e-07 -2.6088e-09 0
-3.00056e-07 -2.99696e-09 0
-3.00941e-07 -3.81126e-09 0
-3.02105e-07 -5.12328e-09 0
-3.03667e-07 -7.08068e-09 0
-3.05772e-07 -9.92364e-09 0
-3.08584e-07 -1.40086e-08 0
-3.12305e-07 -1.98229e-08 0
-3.17264e-07 -2.81121e-08 0
-3.23144e-07 -4.02161e-08 0
-3.25688e-07 -5.72302e-08 0
-3.16674e-07 -7.74775e-08 0
-2.93978e-07 -9.77375e-08 0
-2.61296e-07 -1.1684e-07 0
-2.17685e-07 -1.33933e-07 0
-1.63351e-07 -1.45622e-07 0
-1.02982e-07 -1.47774e-07 0
-4.69162e-08 -1.41087e-07 0
1.47749e-09 -1.29647e-07 0
4.21567e-08 -1.15399e-07 0
7.45976e-08 -9.92423e-08 0
9.93606e-08 -8.23735e-08 0
1.17817e-07 -6.56427e-08 0
1.31341e-07 -4.92637e-08 0
1.40912e-07 -3.28425e-08 0
1.46526e-07 -1.63047e-08 0
0.0049069 -2.89749e-05 0
0 -4.73477e-07 0
1.02522e-10 -8.42239e-08 0
-2.16568e-07 -1.66349e-07 0
-4.87395e-07 -1.22594e-07 0
-5.75472e-07 -5.04145e-08 0
-4.93081e-07 -1.66781e-08 0
-3.64701e-07 -5.98796e-08 0
-3.24436e-07 -1.9564e-07 0
-2.15356e-07 -1.42491e-07 0
-3.41154e-07 -9.33765e-13 0
-4.71534e-07 1.12306e-07 0
-3.24266e-07 3.53067e-07 0
-1.73573e-07 3.87791e-07 0
-2.84085e-07 1.57784e-07 0
-3.89885e-07 -2.20183e-08 0
-3.98715e-07 -6.06163e-08 0
-3.83879e-07 -4.43612e-08 0
-3.77325e-07 -2.54734e-08 0
-3.77568e-07 -1.37965e-08 0
-3.79894e-07 -7.55126e-09 0
-3.82189e-07 -4.34122e-09 0
-3.83945e-07 -2.72562e-09 0
-3.85229e-07 -1.96248e-09 0
-3.86232e-07 -1.69245e-09 0
-3.87138e-07 -1.75488e-09 0
-3.88106e-07 -2.09659e-09 0
-3.89282e-07 -2.73182e-09 0
-3.90821e-07 -3.72899e-09 0
-3.92908e-07 -5.21328e-09 0
-3.95777e-07 -7.3833e-09 0
-3.99725e-07 -1.05477e-08 0
-4.05139e-07 -1.515e-08 0
-4.12604e-07 -2.17162e-08 0
-4.2236e-07 -3.10135e-08 0
-4.30354e-07 -4.41907e-08 0
-4.24984e-07 -6.0913e-08 0
-4.00719e-07 -7.94554e-08 0
-3.66433e-07 -1.01163e-07 0
-3.16718e-07 -1.26005e-07 0
-2.42249e-07 -1.4509e-07 0
-1.58936e-07 -1.49343e-07 0
-8.71777e-08 -1.41434e-07 0
-2.89797e-08 -1.28554e-07 0
1.75287e-08 -1.13225e-07 0
5.28438e-08 -9.64359e-08 0
7.86344e-08 -7.94092e-08 0
9.70953e-08 -6.28545e-08 0
1.10121e-07 -4.68601e-08 0
1.19009e-07 -3.10265e-08 0
1.23973e-07 -1.54065e-08 0
0.00455519 -2.87939e-05 0
0 -5.09887e-07 0
7.85134e-11 -5.12985e-08 0
-2.50103e-07 -1.00481e-07 0
-4.8695e-07 -7.1598e-08 0
-5.69193e-07 -3.59271e-08 0
-5.5282e-07 -4.78603e-08 0
-4.78808e-07 -9.58456e-08 0
-4.31897e-07 -1.37188e-07 0
-4.92371e-07 2.35609e-08 0
-5.07349e-07 2.68167e-07 0
-5.27993e-07 1.97628e-07 0
-3.82719e-07 -6.74346e-08 0
-2.59998e-07 -1.78711e-07 0
-3.63813e-07 -1.03349e-07 0
-4.80248e-07 -4.65632e-09 0
-4.99731e-07 3.62523e-08 0
-4.84801e-07 3.28309e-08 0
-4.73585e-07 1.88882e-08 0
-4.69442e-07 8.7183e-09 0
-4.68874e-07 3.40258e-09 0
-4.69526e-07 1.01917e-09 0
-4.70428e-07 3.11944e-11 0
-4.713e-07 -3.82487e-10 0
-4.72132e-07 -6.01945e-10 0
-4.72999e-07 -7.96865e-10 0
-4.74013e-07 -1.05126e-09 0
-4.75306e-07 -1.4233e-09 0
-4.77047e-07 -1.97423e-09 0
-4.7946e-07 -2.78593e-09 0
-4.82854e-07 -3.97585e-09 0
-4.87658e-07 -5.71797e-09 0
-4.94484e-07 -8.27453e-09 0
-5.04161e-07 -1.19263e-08 0
-5.17144e-07 -1.67344e-08 0
-5.30266e-07 -2.2976e-08 0
-5.32875e-07 -3.16225e-08 0
-5.16966e-07 -4.25388e-08 0
-4.94177e-07 -5.70991e-08 0
-4.5575e-07 -7.73277e-08 0
-3.75583e-07 -9.59571e-08 0
-2.72102e-07 -1.01754e-07 0
-1.84272e-07 -9.50918e-08 0
-1.18484e-07 -8.45063e-08 0
-6.75032e-08 -7.39243e-08 0
-2.9217e-08 -6.30736e-08 0
-1.5524e-09 -5.20289e-08 0
1.80116e-08 -4.10962e-08 0
3.1589e-08 -3.0392e-08 0
4.05696e-08 -1.98943e-08 0
4.52568e-08 -1.00684e-08 0
0.00358189 -2.3695e-05 0
0 0 0
3.73878e-11 0 0
-1.27119e-07 0 0
-2.33804e-07 0 0
-2.74464e-07 0 0
-2.81718e-07 0 0
-2.85366e-07 0 0
-2.83507e-07 0 0
-2.7712e-07 0 0
-1.66284e-07 0 0
-5.65191e-08 0 0
-6.59407e-08 0 0
-1.70123e-07 0 0
-2.72215e-07 0 0
-3.09704e-07 0 0
-2.96388e-07 0 0
-2.7312e-07 0 0
-2.57489e-07 0 0
-2.4978e-07 0 0
-2.46632e-07 0 0
-2.45593e-07 0 0
-2.45419e-07 0 0
-2.45577e-07 0 0
-2.45874e-07 0 0
-2.46261e-07 0 0
-2.46755e-07 0 0
-2.47409e-07 0 0
-2.48302e-07 0 0
-2.49555e-07 0 0
-2.51337e-07 0 0
-2.53896e-07 0 0
-2.57596e-07 0 0
-2.62921e-07 0 0
-2.70117e-07 0 0
-2.77903e-07 0 0
-2.82102e-07 0 0
-2.78579e-07 0 0
-2.72783e-07 0 0
-2.60269e-07 0 0
-2.23964e-07 0 0
-1.69816e-07 0 0
-1.22873e-07 0 0
-8.93331e-08 0 0
-6.35327e-08 0 0
-4.39307e-08 0 0
-2.96437e-08 0 0
-1.94733e-08 0 0
-1.2384e-08 0 0
-7.71497e-09 0 0
-5.34027e-09 0 0
0.00141421 0 0
0 0 5.46959e-07
1.39912e-10 0 9.44329e-08
-3.93726e-07 0 1.92194e-07
-8.33337e-07 0 5.94144e-08
-1.05061e-06 0 -3.44181e-07
-1.809e-07 0 -4.5924e-07
1.42273e-07 0 -2.16787e-07
1.90637e-07 0 -5.54789e-08
8.76641e-08 0 3.40345e-08
-8.04838e-08 0 3.69657e-08
-2.14495e-07 0 6.01189e-09
-2.96994e-07 0 -1.42506e-08
-3.46625e-07 0 -1.67231e-08
-3.7868e-07 0 -1.10731e-08
-4.01937e-07 0 -5.05429e-09
-4.2097e-07 0 -1.20889e-09
-4.36764e-07 0 5.69402e-10
-4.49144e-07 0 1.08128e-09
-4.58195e-07 0 1.0123e-09
-4.6441e-07 0 7.62208e-10
-4.68439e-07 0 5.1056e-10
-4.70893e-07 0 3.15082e-10
-4.72248e-07 0 1.80044e-10
-4.72839e-07 0 9.22369e-11
-4.72869e-07 0 3.63622e-11
-4.72435e-07 0 7.84521e-14
-4.7155e-07 0 -2.52972e-11
-4.70148e-07 0 -4.55379e-11
-4.68087e-07 0 -6.45231e-11
-4.65141e-07 0 -8.50327e-11
-4.60985e-07 0 -1.08762e-10
-4.55186e-07 0 -1.34459e-10
-4.47222e-07 0 -1.53878e-10
-4.36563e-07 0 -1.5041e-10
-4.22796e-07 0 -1.09395e-10
-4.05706e-07 0 -3.54735e-11
-3.85246e-07 0 4.55026e-11
-3.61498e-07 0 1.05174e-10
-3.34723e-07 0 1.31763e-10
-3.05442e-07 0 1.34222e-10
-2.74466e-07 0 1.33279e-10
-2.42841e-07 0 1.48444e-10
-2.11724e-07 0 1.88708e-10
-1.82242e-07 0 2.50443e-10
-1.55383e-07 0 3.20135e-10
-1.31903e-07 0 3.80102e-10
-1.12315e-07 0 4.15066e-10
-9.69245e-08 0 4.27465e-10
-8.59359e-08 0 5.23519e-10
-7.98854e-08 0 9.80561e-10
0.00442149 0 6.27551e-06
0.0036 1.13792e-07 1.96454e-07
0.00359957 -0.00170787 -0.000370159
0.00767903 -0.00518102 -0.00143496
0.0159934 -0.00859482 -0.00309349
0.0277915 -0.013008 -0.00469752
0.0465596 -0.00897439 -0.00332247
0.0487619 -0.000227659 -0.000542271
0.0481032 0.00333357 0.00057814
0.0427806 0.00507233 0.000703899
0.037178 0.00478571 0.000186943
0.032232 0.00385103 -0.000229171
0.028217 0.00284147 -0.000351845
0.0252599 0.00196136 -0.000289173
0.0232608 0.00129003 -0.000178626
0.0219781 0.000825497 -9.08582e-05
0.0211793 0.000519121 -3.91721e-05
0.020693 0.000321026 -1.39698e-05
0.0204031 0.000195115 -3.46003e-06
0.0202335 0.00011674 1.85335e-07
0.0201357 6.91e-05 1.06443e-06
0.0200796 4.09268e-05 1.02643e-06
0.0200468 2.48798e-05 8.02173e-07
0.0200261 1.63436e-05 6.34691e-07
0.0200109 1.25376e-05 5.80805e-07
0.0199966 1.18927e-05 6.40183e-07
0.0199801 1.36422e-05 8.04953e-07
0.0199587 1.75731e-05 1.07663e-06
0.0199295 2.38933e-05 1.47168e-06
0.0198888 3.31796e-05 2.02498e-06
0.0198321 4.63829e-05 2.79574e-06
0.019753 6.48633e-05 3.87924e-06
0.0196432 9.04087e-05 5.42602e-06
0.0194916 0.000125102 7.65286e-06
0.0192844 0.000170761 1.0782e-05
0.0190056 0.000227704 1.48346e-05
0.0186398 0.000293287 1.93931e-05
0.0181773 0.000361442 2.36548e-05
0.0176186 0.000423946 2.68074e-05
0.0169766 0.000472663 2.83705e-05
0.0162749 0.000501644 2.82987e-05
0.0155443 0.000508358 2.69027e-05
0.0148174 0.000493754 2.47007e-05
0.0141238 0.000461254 2.22148e-05
0.0134867 0.000415155 1.97434e-05
0.012923 0.000359343 1.72862e-05
0.0124445 0.000296784 1.46646e-05
0.012059 0.000229529 1.16788e-05
0.0117716 0.000158843 8.26194e-06
0.0115852 8.67018e-05 5.53634e-06
0.0115 2.48332e-05 9.35429e-06
0.0114999 -9.82468e-07 1.40856e-05
0.01 9.55827e-08 -8.73873e-07
0.0100012 -0.00369931 -0.000857269
0.0151603 -0.0114062 -0.00237154
0.0242079 -0.0186719 -0.003979
0.0367538 -0.0282197 -0.00440043
0.0557697 -0.0189598 -0.00119318
0.0544649 -0.000984271 0.00172605
0.0549235 0.00595501 0.00210693
0.0492391 0.0108359 0.0017479
0.0432517 0.0106385 0.00064631
0.0381513 0.00916477 -0.000227482
0.0339575 0.00717562 -0.000518269
0.0309332 0.00510209 -0.000455185
0.0290012 0.00336565 -0.000289615
0.02783 0.00212161 -0.000149529
0.0271386 0.00130089 -6.50504e-05
0.0267405 0.000780765 -2.32877e-05
0.0265173 0.000459863 -5.62797e-06
0.0263953 0.000266567 5.97923e-07
0.02633 0.000152991 2.10101e-06
0.0262951 8.82369e-05 1.9547e-06
0.0262753 5.29979e-05 1.40214e-06
0.0262618 3.5608e-05 8.70356e-07
0.0262495 2.9313e-05 4.6056e-07
0.0262348 3.0484e-05 1.62027e-07
0.0262149 3.75061e-05 -6.34628e-08
0.0261871 5.01331e-05 -2.51922e-07
0.0261479 6.91536e-05 -4.27229e-07
0.0260929 9.62637e-05 -5.9466e-07
0.0260162 0.000134066 -7.28587e-07
0.0259098 0.000186121 -7.4455e-07
0.025763 0.000256942 -4.38911e-07
0.0255616 0.000351715 6.08565e-07
0.0252876 0.000475156 3.04979e-06
0.024919 0.000628687 7.39721e-06
0.0244325 0.000806436 1.33138e-05
0.0238112 0.000993327 1.94627e-05
0.0230529 0.00116779 2.42803e-05
0.0221737 0.00130744 2.67259e-05
0.0212064 0.00139476 2.65105e-05
0.0201957 0.00142094 2.40443e-05
0.0191896 0.00138689 2.03153e-05
0.0182311 0.00130115 1.6509e-05
0.0173532 0.0011756 1.33635e-05
0.0165785 0.00102152 1.09153e-05
0.015922 0.000847838 8.7801e-06
0.0153934 0.000661105 6.49858e-06
0.0149982 0.000466073 3.70702e-06
0.0147394 0.000267293 1.31325e-06
0.0146167 8.27781e-05 7.73495e-06
0.0146162 -2.04308e-06 1.49887e-05
0.0148 -9.39865e-07 -1.16056e-06
0.0148027 -0.0057086 -0.00136469
0.0195172 -0.0166544 -0.00372602
0.0254376 -0.0266871 -0.0055318
0.0296777 -0.04052 -0.00494449
0.0282297 -0.0247974 -0.000790908
0.0260796 -1.08281e-05 0.00180596
0.0263702 0.00783437 0.00194045
0.031202 0.016328 0.00182545
0.0311908 0.0158951 0.000909534
0.0297051 0.0134118 9.24478e-05
0.0284106 0.0103497 -0.000289928
0.0276384 0.00713227 -0.000319736
0.0273727 0.00451989 -0.000216431
0.0273249 0.00275007 -0.00010616
0.0273499 0.00163371 -3.61302e-05
0.027396 0.000950071 -3.25497e-06
0.0274435 0.000541195 7.93074e-06
0.0274842 0.000302833 9.38124e-06
0.0275153 0.00016793 7.52827e-06
0.0275366 9.45694e-05 5.1408e-06
0.0275492 5.7418e-05 3.14253e-06
0.0275542 4.17421e-05 1.68521e-06
0.0275524 3.94271e-05 6.62023e-07
0.0275438 4.64636e-05 -8.37837e-08
0.0275278 6.14495e-05 -6.90041e-07
0.0275029 8.47676e-05 -1.26134e-06
0.0274665 0.000118198 -1.86983e-06
0.0274149 0.000164806 -2.55314e-06
0.0273426 0.000228996 -3.29891e-06
0.027242 0.000316623 -4.00472e-06
0.0271029 0.000435047 -4.37671e-06
0.0269108 0.000592971 -3.67637e-06
0.0266464 0.00079927 -3.9871e-07
0.0262829 0.00105875 7.2783e-06
0.025787 0.00136401 1.95965e-05
0.0251302 0.00168976 3.40614e-05
0.0243034 0.00199718 4.7075e-05
0.023324 0.00224488 5.57997e-05
0.0222341 0.00240003 5.87034e-05
0.0210923 0.00244595 5.58184e-05
0.0199614 0.00238448 4.89618e-05
0.0188949 0.00223234 4.09062e-05
0.0179291 0.00201228 3.3563e-05
0.0170856 0.00174497 2.72967e-05
0.0163772 0.00144612 2.15996e-05
0.0158111 0.00112694 1.58254e-05
0.0153911 0.000795396 9.45833e-06
0.0151184 0.000459244 3.23244e-06
0.0149911 0.000144459 6.62017e-06
0.0149904 -2.19298e-06 1.28466e-05
0.018 -2.0641e-06 -1.49576e-06
0.0180026 -0.00658291 -0.00216509
0.0198963 -0.017354 -0.00585887
0.0197823 -0.0223111 -0.00718004
0.0159459 -0.0239713 -0.00624082
-1.09258e-06 -0.0124399 -0.00275568
0.000102951 3.29855e-05 5.63858e-07
-3.8314e-05 4.06661e-05 0.000366049
0.00767674 0.00545867 0.000729571
0.016076 0.0120007 0.000594991
0.0193651 0.0120608 0.00026035
0.0209439 0.0094305 -6.68477e-05
0.0226668 0.0062978 -0.000196498
0.0243059 0.00377672 -0.000155761
0.025555 0.00218974 -7.05706e-05
0.0264009 0.00124383 -1.06338e-05
0.0269434 0.000687101 1.541e-05
0.027282 0.000367163 2.06173e-05
0.0274896 0.00019016 1.72951e-05
0.0276144 9.71156e-05 1.2108e-05
0.0276878 5.20456e-05 7.61753e-06
0.0277292 3.40682e-05 4.38156e-06
0.0277506 3.17896e-05 2.2233e-06
0.0277589 3.95727e-05 8.02954e-07
0.027758 5.52605e-05 -1.82816e-07
0.0277492 7.89062e-05 -9.58055e-07
0.0277328 0.000112156 -1.67582e-06
0.0277074 0.000158041 -2.43291e-06
0.0276704 0.000221036 -3.27223e-06
0.0276179 0.000307271 -4.16145e-06
0.0275436 0.000424821 -4.9406e-06
0.0274385 0.000583949 -5.19895e-06
0.0272888 0.000797315 -3.81099e-06
0.0270745 0.0010798 2.23654e-06
0.0267637 0.00144412 1.81126e-05
0.0263076 0.00188635 4.67455e-05
0.0256543 0.00237084 8.35689e-05
0.0247812 0.00283541 0.000119474
0.0237067 0.00321196 0.00014628
0.0224876 0.00344646 0.0001585
0.0212052 0.0035122 0.000155018
0.0199461 0.00341412 0.000140153
0.0187778 0.00318247 0.000120845
0.0177378 0.00285587 0.0001018
0.0168428 0.0024667 8.41557e-05
0.0161004 0.00203763 6.72942e-05
0.0155131 0.00158402 5.03884e-05
0.0150813 0.00111643 3.27925e-05
0.0148036 0.000644923 1.5231e-05
0.0146761 0.000204222 8.03485e-06
0.0146754 -1.1704e-06 9.35884e-06
0.0196 -2.526e-06 -2.55265e-06
0.0196009 -0.005096 -0.00292413
0.01906 -0.0115789 -0.00716668
0.0163937 -0.0137503 -0.00757147
0.011908 -0.0120513 -0.00613084
0.00262699 -0.00478643 -0.00350065
7.75855e-05 -7.13603e-05 -0.000696255
3.30464e-05 -3.30464e-05 -5.34147e-08
-3.70632e-05 3.95648e-05 8.87035e-05
0.00543155 0.00406816 0.000190333
0.0119529 0.00852156 0.000152549
0.0147747 0.00711822 -5.01907e-05
0.0183155 0.00387404 -0.000234343
0.0216564 0.00170835 -0.000220607
0.0241151 0.000689982 -0.000119538
0.0256778 0.000251654 -3.28227e-05
0.0266049 6.26234e-05 9.21249e-06
0.0271396 -1.40081e-05 1.99885e-05
0.0274436 -3.71227e-05 1.75916e-05
0.0276144 -3.55022e-05 1.21465e-05
0.0277092 -2.34116e-05 7.38563e-06
0.0277608 -7.1755e-06 4.06019e-06
0.0277878 1.118e-05 1.93406e-06
0.0278008 3.18929e-05 5.95161e-07
0.0278052 5.64608e-05 -2.99234e-07
0.0278041 8.72605e-05 -9.85733e-07
0.0277984 0.000127529 -1.6139e-06
0.0277881 0.000181562 -2.26569e-06
0.027772 0.00025507 -2.95361e-06
0.0277478 0.000355662 -3.57899e-06
0.0277112 0.00049342 -3.84277e-06
0.0276551 0.000681405 -3.12819e-06
0.0275671 0.000936216 6.79503e-08
0.027427 0.00127965 1.09516e-05
0.0271995 0.00173777 4.22859e-05
0.0268161 0.00231987 0.000106821
0.0261833 0.00298265 0.000198449
0.025252 0.00363132 0.000293344
0.0240433 0.0041587 0.000366666
0.0226407 0.00448193 0.000401824
0.021164 0.00456294 0.000396132
0.0197377 0.00441409 0.000361468
0.0184456 0.00408759 0.000315045
0.0173215 0.00364449 0.000267767
0.0163724 0.00313044 0.000222452
0.0155969 0.00257411 0.00017849
0.0149914 0.00199364 0.000134944
0.0145513 0.00140101 9.10537e-05
0.0142716 0.000807694 4.74423e-05
0.0141453 0.000256591 1.57186e-05
0.0141446 6.71098e-07 5.48338e-06
0.0196 -1.29377e-06 -3.45369e-06
0.0196003 -0.00298616 -0.00323087
0.0190665 -0.00621354 -0.00721287
0.0179088 -0.00572563 -0.00718271
0.0146248 -0.00214811 -0.00548597
0.0108451 0.00381224 -0.00362332
0.00673739 0.0034634 -0.00164039
7.76441e-05 -6.50766e-05 -0.000305936
2.80134e-05 -2.80134e-05 -1.33344e-07
-3.55483e-05 3.85781e-05 2.34293e-05
0.00405823 0.00268969 0.000313947
0.00877187 0.00311933 0.000318237
0.0147658 -0.000454553 -0.000140267
0.0200903 -0.00190689 -0.000342614
0.0236961 -0.0017678 -0.000268048
0.0257159 -0.00122544 -0.000123958
0.0267542 -0.000775774 -3.42502e-05
0.0272788 -0.000479052 -2.16511e-07
0.0275448 -0.000291937 7.23366e-06
0.02768 -0.000173607 6.30369e-06
0.0277486 -9.73542e-05 3.96842e-06
0.0277834 -4.61593e-05 2.09493e-06
0.0278014 -8.88602e-06 8.80724e-07
0.0278113 2.2055e-05 1.35378e-07
0.0278176 5.22385e-05 -3.45378e-07
0.0278229 8.63123e-05 -7.02878e-07
0.0278285 0.000128828 -1.014e-06
0.0278352 0.000184944 -1.29298e-06
0.0278434 0.000261112 -1.46789e-06
0.0278526 0.000365835 -1.29607e-06
0.0278613 0.000510589 -1.76784e-07
0.0278652 0.000710749 3.01347e-06
0.0278542 0.000986188 1.02419e-05
0.0278089 0.00136405 2.90348e-05
0.0276934 0.00188583 8.60966e-05
0.0274215 0.00258736 0.000221722
0.0268337 0.00342779 0.000436318
0.0258279 0.00427093 0.000670387
0.0244285 0.00495341 0.000849562
0.0227727 0.00535893 0.000931366
0.0210406 0.00544134 0.000916605
0.0194089 0.00522511 0.000835813
0.0179776 0.00479464 0.000728535
0.0167662 0.00423902 0.000618796
0.0157646 0.0036156 0.000512872
0.01496 0.00295561 0.000410462
0.0143409 0.00227746 0.000310642
0.0138969 0.00159296 0.000212448
0.0136188 0.000914011 0.000116138
0.0134957 0.000289624 3.56043e-05
0.013495 1.53559e-06 2.55161e-06
0.018 -7.91578e-07 -3.39595e-06
0.0180011 -0.00129293 -0.00318045
0.0185873 -0.002025 -0.00684319
0.0192395 -0.000444823 -0.00642081
0.0189896 0.00233256 -0.00463928
0.0189676 0.00778078 -0.00305324
0.0193467 0.0128275 -0.00165903
0.0119201 0.00709125 -0.00075049
7.9536e-05 -5.06172e-05 -0.000259904
-2.82317e-05 -5.83695e-05 5.03991e-07
8.37784e-06 -0.000369875 0.000899479
0.00949289 -0.00366411 0.00128816
0.0172718 -0.0073104 0.000339358
0.0224298 -0.0070226 -0.0002473
0.0253811 -0.0047921 -0.000341218
0.026783 -0.00273886 -0.000210419
0.0273548 -0.00147893 -9.17405e-05
0.0275643 -0.000801853 -3.30092e-05
0.0276322 -0.000440535 -1.05946e-05
0.0276488 -0.000241774 -3.16179e-06
0.0276491 -0.000128504 -9.19885e-07
0.0276461 -6.08302e-05 -2.95934e-07
0.0276447 -1.69521e-05 -1.24902e-07
0.0276466 1.57111e-05 -5.54507e-08
0.0276527 4.50074e-05 1.3279e-08
0.0276637 7.6537e-05 1.20743e-07
0.0276809 0.000115154 3.15221e-07
0.0277057 0.000166003 6.99259e-07
0.0277399 0.000235393 1.49689e-06
0.0277857 0.000331706 3.20101e-06
0.0278449 0.000466541 6.92059e-06
0.0279177 0.000656211 1.48278e-05
0.0279988 0.000922728 3.01273e-05
0.0280706 0.00129521 6.24216e-05
0.0280992 0.00182284 0.000157708
0.0279922 0.00257004 0.000411839
0.0275015 0.00351026 0.000849895
0.0264255 0.00447451 0.0013387
0.0248053 0.00524737 0.00170465
0.0228404 0.00568896 0.00186095
0.0208129 0.0057511 0.00181972
0.0189608 0.00546899 0.00165148
0.0173916 0.00496264 0.00143524
0.0160991 0.00434565 0.00121615
0.0150513 0.0036778 0.00100525
0.0142226 0.00298626 0.000802336
0.0135933 0.00228621 0.000606444
0.0131475 0.00158761 0.000416319
0.0128719 0.00090211 0.000231847
0.012752 0.000280818 7.11554e-05
0.0127513 -2.89025e-06 1.10733e-06
0.0148 -5.09295e-07 -2.93462e-06
0.0148017 -0.000381873 -0.00299273
0.016758 2.6059e-05 -0.00615929
0.0193563 0.00186585 -0.00539585
0.0216901 0.00444042 -0.00369801
0.0237793 0.00756112 -0.00255445
0.0271166 0.0126634 -0.00166591
0.0301399 0.0201409 -0.000908244
0.0244382 0.0120566 -0.000134611
0.0250974 4.55219e-10 0.000501793
0.0293792 -0.00716833 0.00167968
0.0343151 -0.0146217 0.00246763
0.034366 -0.0134205 0.0014936
0.0319093 -0.00982142 0.000263555
0.029564 -0.00592324 -0.000349231
0.0280924 -0.00308214 -0.000352142
0.0272859 -0.00150534 -0.000194545
0.0268533 -0.000737322 -8.5305e-05
0.0266184 -0.000370205 -3.38111e-05
0.0264893 -0.000188682 -1.27613e-05
0.0264185 -9.42168e-05 -4.61979e-06
0.0263812 -4.16773e-05 -1.50231e-06
0.0263644 -9.33074e-06 -2.54514e-07
0.0263613 1.40535e-05 3.36739e-07
0.026369 3.4908e-05 7.4535e-07
0.0263869 5.75794e-05 1.18765e-06
0.0264159 8.57645e-05 1.82296e-06
0.0264586 0.000123423 2.86611e-06
0.0265187 0.000175539 4.70894e-06
0.0266014 0.000248932 8.13624e-06
0.026713 0.000353303 1.4806e-05
0.0268598 0.000502896 2.81351e-05
0.0270448 0.000718832 5.38094e-05
0.027259 0.00102933 0.000104791
0.0274764 0.00147445 0.000245069
0.0276204 0.00211247 0.00063781
0.0273519 0.00291011 0.00132788
0.0262845 0.00369859 0.0020563
0.0246124 0.00434576 0.00259905
0.0224321 0.00474262 0.0028564
0.0201611 0.00478502 0.00279055
0.0181406 0.00450838 0.00252102
0.016476 0.0040497 0.0021889
0.0151291 0.00351823 0.00185864
0.0140514 0.00295832 0.00153924
0.0132076 0.00238671 0.00122955
0.0125708 0.00181314 0.000929175
0.0121204 0.00124488 0.000637319
0.0118408 0.000692879 0.000354811
0.0117177 0.00020276 0.000105982
0.0117171 -1.73143e-05 -4.30332e-06
0.01 -9.6501e-07 -2.63143e-06
0.0100007 -0.000217187 -0.00253379
0.0122665 0.000251638 -0.00486005
0.0155739 0.00150434 -0.00381288
0.0191673 0.00308219 -0.00240921
0.0235137 0.00574526 -0.00183044
0.0290364 0.0083787 -0.00187742
0.0377282 0.0105646 -0.00151127
0.0499528 0.00507495 -0.00015937
0.0496865 -0.00534065 0.00097938
0.049276 -0.0104658 0.0015089
0.0416688 -0.00970072 0.00182401
0.033871 -0.00541738 0.00135654
0.0277715 -0.00222072 0.000418666
0.0239641 -0.000755689 -0.000171882
0.0219805 -0.000271895 -0.00025134