# vtk DataFile Version 2.0
Tobias Weinzierl: CPU, Manycore and Cluster Computing
ASCII

DATASET STRUCTURED_POINTS
DIMENSIONS  51 11 6

ORIGIN 0 0 0 

SPACING 0.1 0.1 0.1 

POINT_DATA 3366

VECTORS velocity float
0 0 0
1.58887e-08 0 0
1.5677e-08 0 0
6.88899e-09 0 0
1.89493e-09 0 0
3.79909e-10 0 0
6.11998e-11 0 0
8.32887e-12 0 0
9.85864e-13 0 0
1.03433e-13 0 0
9.74976e-15 0 0
8.3434e-16 0 0
6.53639e-17 0 0
4.72062e-18 0 0
3.16147e-19 0 0
1.97344e-20 0 0
1.15327e-21 0 0
6.33468e-23 0 0
3.28182e-24 0 0
1.60865e-25 0 0
7.48149e-27 0 0
3.30977e-28 0 0
1.39604e-29 0 0
5.62611e-31 0 0
2.17054e-32 0 0
8.03066e-34 0 0
2.85412e-35 0 0
9.75873e-37 0 0
3.2146e-38 0 0
1.02151e-39 0 0
3.13526e-41 0 0
9.30499e-43 0 0
2.67323e-44 0 0
7.44172e-46 0 0
2.00926e-47 0 0
5.26641e-49 0 0
1.34113e-50 0 0
3.32089e-52 0 0
8.00182e-54 0 0
1.87753e-55 0 0
4.2928e-57 0 0
9.57041e-59 0 0
2.08172e-60 0 0
4.42051e-62 0 0
9.16893e-64 0 0
1.85864e-65 0 0
3.684e-67 0 0
7.14342e-69 0 0
1.35568e-70 0 0
2.56505e-72 0 0
4.84118e-70 0 0
0 -2.61405e-174 0
7.1784e-08 -2.90372e-172 0
7.92701e-08 -3.32221e-170 0
3.57214e-08 -3.26907e-168 0
9.60163e-09 -2.71563e-166 0
1.81453e-09 -1.91567e-164 0
2.78183e-10 -9.94414e-163 0
3.64818e-11 -6.46825e-164 0
4.2038e-12 -4.16691e-162 0
4.32508e-13 -3.67498e-160 0
4.01851e-14 -3.18087e-158 0
3.40178e-15 -2.70865e-156 0
2.64303e-16 -2.26925e-154 0
1.89654e-17 -1.86972e-152 0
1.26368e-18 -1.51447e-150 0
7.8558e-20 -1.20543e-148 0
4.57565e-21 -9.42368e-147 0
2.50641e-22 -7.23232e-145 0
1.29554e-23 -5.44608e-143 0
6.33811e-25 -4.02155e-141 0
2.9429e-26 -2.91031e-139 0
1.3001e-27 -2.06271e-137 0
5.47711e-29 -1.43081e-135 0
2.20498e-30 -9.70599e-134 0
8.49892e-32 -6.43349e-132 0
3.14192e-33 -4.16304e-130 0
1.11585e-34 -2.62724e-128 0
3.81284e-36 -1.61526e-126 0
1.25526e-37 -9.66315e-125 0
3.98682e-39 -5.61757e-123 0
1.22308e-40 -3.16878e-121 0
3.62842e-42 -1.73153e-119 0
1.04201e-43 -9.1486e-118 0
2.89974e-45 -4.66392e-116 0
7.82682e-47 -2.28863e-114 0
2.05086e-48 -1.07802e-112 0
5.22129e-50 -4.85871e-111 0
1.29257e-51 -2.08751e-109 0
3.11379e-53 -8.51184e-108 0
7.30458e-55 -3.27646e-106 0
1.6698e-56 -1.18296e-104 0
3.72199e-58 -3.97424e-103 0
8.09457e-60 -1.22996e-101 0
1.7186e-61 -3.4613e-100 0
3.56415e-63 -8.705e-99 0
7.22389e-65 -1.9101e-97 0
1.43166e-66 -3.53078e-96 0
2.7757e-68 -5.20292e-95 0
5.26713e-70 -5.54485e-94 0
9.96469e-72 -3.46128e-93 0
1.8898e-69 -9.35591e-91 0
0 -4.084e-173 0
1.55462e-07 -4.48072e-171 0
2.10358e-07 -6.52644e-169 0
1.01944e-07 -8.47382e-167 0
2.67345e-08 -9.46832e-165 0
4.21048e-09 -9.93401e-163 0
5.75337e-10 -1.01881e-160 0
6.99133e-11 -1.66433e-162 0
7.67538e-12 -7.03812e-161 0
7.64965e-13 -6.3706e-159 0
6.95604e-14 -5.57714e-157 0
5.80094e-15 -4.79584e-155 0
4.45918e-16 -4.05779e-153 0
3.17492e-17 -3.37769e-151 0
2.10327e-18 -2.76491e-149 0
1.30182e-19 -2.2248e-147 0
7.55712e-21 -1.75895e-145 0
4.12879e-22 -1.36573e-143 0
2.12974e-23 -1.04088e-141 0
1.04023e-24 -7.78257e-140 0
4.82363e-26 -5.7053e-138 0
2.1287e-27 -4.09821e-136 0
8.96013e-29 -2.88252e-134 0
3.60461e-30 -1.98379e-132 0
1.38856e-31 -1.33479e-130 0
5.1308e-33 -8.77301e-129 0
1.82146e-34 -5.62714e-127 0
6.2218e-36 -3.51864e-125 0
2.04776e-37 -2.14245e-123 0
6.50232e-39 -1.26863e-121 0
1.9944e-40 -7.29519e-120 0
5.9156e-42 -4.06741e-118 0
1.69861e-43 -2.19483e-116 0
4.72636e-45 -1.14394e-114 0
1.27558e-46 -5.74533e-113 0
3.34212e-48 -2.77319e-111 0
8.50808e-50 -1.28247e-109 0
2.10611e-51 -5.66171e-108 0
5.07334e-53 -2.37578e-106 0
1.19009e-54 -9.42724e-105 0
2.7204e-56 -3.5152e-103 0
6.06361e-58 -1.22214e-101 0
1.31868e-59 -3.92303e-100 0
2.79969e-61 -1.14791e-98 0
5.8061e-63 -3.01003e-97 0
1.17678e-64 -6.90725e-96 0
2.33215e-66 -1.33968e-94 0
4.52154e-68 -2.07855e-93 0
8.57994e-70 -2.33951e-92 0
1.6232e-71 -1.54202e-91 0
3.08876e-69 -4.27662e-89 0
0 -1.27711e-174 0
2.22652e-07 -1.41319e-172 0
3.9504e-07 -1.6443e-170 0
2.17037e-07 -1.55175e-168 0
5.62375e-08 -9.00549e-167 0
2.77586e-09 -8.85194e-167 0
3.58354e-10 0 0
4.17604e-11 1.03199e-158 0
4.86379e-12 -9.36985e-160 0
5.06718e-13 -9.61719e-158 0
4.76827e-14 -8.61435e-156 0
4.0858e-15 -7.49053e-154 0
3.21039e-16 -6.40305e-152 0
2.32742e-17 -5.38652e-150 0
1.56526e-18 -4.45772e-148 0
9.81276e-20 -3.62764e-146 0
5.75903e-21 -2.90172e-144 0
3.17636e-22 -2.2804e-142 0
1.65208e-23 -1.75985e-140 0
8.12824e-25 -1.33298e-138 0
3.79359e-26 -9.90401e-137 0
1.68382e-27 -7.21401e-135 0
7.12437e-29 -5.14799e-133 0
2.87953e-30 -3.59657e-131 0
1.11396e-31 -2.45808e-129 0
4.13207e-33 -1.64209e-127 0
1.4721e-34 -1.07127e-125 0
5.04477e-36 -6.81811e-124 0
1.66533e-37 -4.22876e-122 0
5.30258e-39 -2.55279e-120 0
1.63057e-40 -1.49788e-118 0
4.84794e-42 -8.52977e-117 0
1.39512e-43 -4.70595e-115 0
3.88991e-45 -2.51049e-113 0
1.05186e-46 -1.29212e-111 0
2.76093e-48 -6.39982e-110 0
7.04048e-50 -3.04127e-108 0
1.74559e-51 -1.38179e-106 0
4.21123e-53 -5.97763e-105 0
9.89263e-55 -2.44986e-103 0
2.26436e-56 -9.45435e-102 0
5.05353e-58 -3.40966e-100 0
1.10033e-59 -1.13818e-98 0
2.33878e-61 -3.47301e-97 0
4.85551e-63 -9.52646e-96 0
9.85123e-65 -2.29474e-94 0
1.95425e-66 -4.68983e-93 0
3.7924e-68 -7.69875e-92 0
7.20276e-70 -9.20337e-91 0
1.36383e-71 -6.44586e-90 0
2.58712e-69 -1.83564e-87 0
0 -2.56476e-176 0
2.45673e-07 -2.86311e-174 0
5.7205e-07 -2.77336e-172 0
3.60988e-07 -2.11873e-170 0
9.45704e-08 -8.56063e-169 0
0 -8.3515e-169 0
0 0 0
0 0 0
4.06341e-13 -1.05473e-156 0
7.63458e-14 -1.14085e-156 0
9.57665e-15 -1.14343e-154 0
9.78683e-16 -1.01387e-152 0
8.67316e-17 -8.75872e-151 0
6.86453e-18 -7.449e-149 0
4.93646e-19 -6.23442e-147 0
3.2627e-20 -5.13297e-145 0
1.99862e-21 -4.15564e-143 0
1.14204e-22 -3.30686e-141 0
6.11939e-24 -2.58522e-139 0
3.08815e-25 -1.98459e-137 0
1.47322e-26 -1.49521e-135 0
6.66518e-28 -1.10495e-133 0
2.86789e-29 -8.00433e-132 0
1.17655e-30 -5.68012e-130 0
4.61253e-32 -3.9457e-128 0
1.73154e-33 -2.68091e-126 0
6.23579e-35 -1.78014e-124 0
2.15802e-36 -1.15406e-122 0
7.18782e-38 -7.29701e-121 0
2.30749e-39 -4.49473e-119 0
7.14925e-41 -2.69363e-117 0
2.14038e-42 -1.56826e-115 0
6.19916e-44 -8.8559e-114 0
1.73879e-45 -4.84142e-112 0
4.72793e-47 -2.55691e-110 0
1.24742e-48 -1.30135e-108 0
3.19635e-50 -6.36457e-107 0
7.96086e-52 -2.98116e-105 0
1.92872e-53 -1.33202e-103 0
4.54887e-55 -5.65007e-102 0
1.04513e-56 -2.26186e-100 0
2.34077e-58 -8.48329e-99 0
5.11381e-60 -2.95331e-97 0
1.0904e-61 -9.42809e-96 0
2.27058e-63 -2.71525e-94 0
4.6199e-65 -6.89455e-93 0
9.18964e-67 -1.49198e-91 0
1.78794e-68 -2.60603e-90 0
3.40411e-70 -3.33068e-89 0
6.46102e-72 -2.49762e-88 0
1.20978e-69 -7.3093e-86 0
0 -5.67724e-177 0
2.41145e-07 -6.30675e-175 0
6.73124e-07 -5.36348e-173 0
4.65823e-07 -3.68668e-171 0
1.26558e-07 -1.44535e-169 0
9.35704e-09 -1.40902e-169 0
0 0 0
0 0 0
0 0 0
5.51813e-15 1.0531e-154 0
1.08788e-15 -1.18301e-153 0
1.39734e-16 -1.15696e-151 0
1.43961e-17 -1.01044e-149 0
1.27255e-18 -8.69066e-148 0
9.97238e-20 -7.35871e-146 0
7.06403e-21 -6.13198e-144 0
4.58239e-22 -5.02668e-142 0
2.74805e-23 -4.05196e-140 0
1.53462e-24 -3.21042e-138 0
8.02669e-26 -2.499e-136 0
3.951e-27 -1.91013e-134 0
1.83763e-28 -1.43289e-132 0
8.10373e-30 -1.0543e-130 0
3.39853e-31 -7.60406e-129 0
1.35902e-32 -5.37225e-127 0
5.19407e-34 -3.71513e-125 0
1.90131e-35 -2.51271e-123 0
6.67864e-37 -1.66063e-121 0
2.25509e-38 -1.07137e-119 0
7.33107e-40 -6.73997e-118 0
2.29788e-41 -4.12956e-116 0
6.95387e-43 -2.46081e-114 0
2.03424e-44 -1.42401e-112 0
5.75905e-46 -7.98804e-111 0
1.57957e-47 -4.335e-109 0
4.20148e-49 -2.27065e-107 0
1.08479e-50 -1.14485e-105 0
2.72113e-52 -5.53861e-104 0
6.63703e-54 -2.56128e-102 0
1.57528e-55 -1.12701e-100 0
3.64097e-57 -4.6921e-99 0
8.20084e-59 -1.8354e-97 0
1.80121e-60 -6.68536e-96 0
3.86019e-62 -2.24106e-94 0
8.07698e-64 -6.80498e-93 0
1.65093e-65 -1.83032e-91 0
3.29827e-67 -4.21772e-90 0
6.44378e-69 -7.89109e-89 0
1.23171e-70 -1.0868e-87 0
2.34679e-72 -8.80719e-87 0
4.31386e-70 -2.65092e-84 0
0 -3.04154e-175 0
2.4095e-07 -3.34713e-173 0
6.72697e-07 -3.16093e-171 0
4.65723e-07 -2.50214e-169 0
1.28737e-07 -1.42645e-167 0
1.93488e-08 -5.40939e-166 0
1.09659e-09 -5.26922e-166 0
0 0 0
0 0 0
0 0 0
6.88901e-17 -1.16847e-152 0
3.02823e-17 -1.06951e-150 0
4.92228e-18 -9.44676e-149 0
5.57924e-19 -8.21972e-147 0
5.11687e-20 -7.04393e-145 0
4.03907e-21 -5.94302e-143 0
2.83505e-22 -4.93489e-141 0
1.80491e-23 -4.03141e-139 0
1.05618e-24 -3.23868e-137 0
5.73526e-26 -2.55752e-135 0
2.91096e-27 -1.98429e-133 0
1.38886e-28 -1.51185e-131 0
6.25783e-30 -1.13055e-129 0
2.67303e-31 -8.29271e-128 0
1.08597e-32 -5.96278e-126 0
4.20815e-34 -4.19995e-124 0
1.55918e-35 -2.89569e-122 0
5.53585e-37 -1.95259e-120 0
1.88713e-38 -1.28653e-118 0
6.1875e-40 -8.27431e-117 0
1.95441e-41 -5.18865e-115 0
5.95574e-43 -3.16834e-113 0
1.7533e-44 -1.88121e-111 0
4.99242e-46 -1.08432e-109 0
1.37656e-47 -6.05582e-108 0
3.67931e-49 -3.26997e-106 0
9.54231e-51 -1.70281e-104 0
2.40357e-52 -8.52588e-103 0
5.88502e-54 -4.08991e-101 0
1.40179e-55 -1.87159e-99 0
3.25078e-57 -8.12678e-98 0
7.34477e-59 -3.32617e-96 0
1.61789e-60 -1.27227e-94 0
3.47679e-62 -4.49722e-93 0
7.29343e-64 -1.4468e-91 0
1.49438e-65 -4.14544e-90 0
2.99231e-67 -1.02403e-88 0
5.85862e-69 -2.06861e-87 0
1.12214e-70 -3.09982e-86 0
2.14222e-72 -2.74635e-85 0
3.93717e-70 -8.50975e-83 0
0 -1.4447e-173 0
2.44255e-07 -1.57752e-171 0
5.69491e-07 -1.58236e-169 0
3.59793e-07 -1.36119e-167 0
9.7454e-08 -9.54641e-166 0
1.67052e-08 -5.50997e-164 0
2.03324e-09 -2.25676e-162 0
9.2264e-11 -2.2026e-162 0
0 0 0
0 0 0
0 -8.21022e-152 0
2.57746e-16 -7.52216e-150 0
3.59707e-17 -6.72042e-148 0
3.51587e-18 -5.91764e-146 0
2.86211e-19 -5.13415e-144 0
2.05318e-20 -4.38752e-142 0
1.33311e-21 -3.69193e-140 0
7.95654e-23 -3.05785e-138 0
4.40984e-24 -2.49195e-136 0
2.28631e-25 -1.99733e-134 0
1.11502e-26 -1.57383e-132 0
5.13816e-28 -1.21859e-130 0
2.24548e-29 -9.26685e-129 0
9.33564e-31 -6.91746e-127 0
3.70244e-32 -5.06575e-125 0
1.40401e-33 -3.63703e-123 0
5.1016e-35 -2.55829e-121 0
1.77958e-36 -1.76164e-119 0
5.96962e-38 -1.18655e-117 0
1.92872e-39 -7.80986e-116 0
6.01046e-41 -5.01806e-114 0
1.80896e-42 -3.14378e-112 0
5.26458e-44 -1.91786e-110 0
1.4832e-45 -1.13756e-108 0
4.04941e-47 -6.54892e-107 0
1.07242e-48 -3.65204e-105 0
2.75755e-50 -1.96813e-103 0
6.89025e-52 -1.02217e-101 0
1.67438e-53 -5.0992e-100 0
3.96018e-55 -2.4336e-98 0
9.12281e-57 -1.10563e-96 0
2.0483e-58 -4.75199e-95 0
4.48528e-60 -1.91673e-93 0
9.58484e-62 -7.1789e-92 0
2.00002e-63 -2.46073e-90 0
4.07735e-65 -7.561e-89 0
8.12547e-67 -2.01825e-87 0
1.58367e-68 -4.44484e-86 0
3.02023e-70 -7.33434e-85 0
5.74164e-72 -7.21059e-84 0
1.07711e-69 -2.30224e-81 0
0 -5.00211e-172 0
2.15524e-07 -5.42191e-170 0
3.84963e-07 -5.59645e-168 0
2.12147e-07 -5.20739e-166 0
5.61457e-08 -4.37166e-164 0
1.01147e-08 -3.34589e-162 0
1.45006e-09 -2.24412e-160 0
1.56736e-10 -1.11859e-158 0
5.82346e-12 -1.09648e-158 0
4.93436e-13 0 0
4.21948e-14 -3.87251e-151 0
3.59907e-15 -3.58809e-149 0
2.81808e-16 -3.24366e-147 0
2.03766e-17 -2.89128e-145 0
1.36775e-18 -2.54043e-143 0
8.56244e-20 -2.19968e-141 0
5.02019e-21 -1.87635e-139 0
2.76694e-22 -1.57625e-137 0
1.43847e-23 -1.3036e-135 0
7.07533e-25 -1.06099e-133 0
3.30171e-26 -8.49475e-132 0
1.46545e-27 -6.68773e-130 0
6.20071e-29 -5.17483e-128 0
2.50648e-30 -3.9336e-126 0
9.69791e-32 -2.93581e-124 0
3.59798e-33 -2.15009e-122 0
1.2821e-34 -1.5442e-120 0
4.39469e-36 -1.08684e-118 0
1.45109e-37 -7.4905e-117 0
4.62162e-39 -5.05093e-115 0
1.42154e-40 -3.32917e-113 0
4.2276e-42 -2.14263e-111 0
1.21692e-43 -1.34488e-109 0
3.39396e-45 -8.22154e-108 0
9.17996e-47 -4.88743e-106 0
2.4102e-48 -2.8202e-104 0
6.14767e-50 -1.57628e-102 0
1.52462e-51 -8.51235e-101 0
3.67905e-53 -4.4282e-99 0
8.64458e-55 -2.21095e-97 0
1.97916e-56 -1.05472e-95 0
4.41806e-58 -4.77996e-94 0
9.62187e-60 -2.0428e-92 0
2.0456e-61 -8.15222e-91 0
4.24776e-63 -2.99704e-89 0
8.62002e-65 -9.95414e-88 0
1.71036e-66 -2.89902e-86 0
3.31977e-68 -7.04475e-85 0
6.30635e-70 -1.29968e-83 0
1.19433e-71 -1.44601e-82 0
2.27493e-69 -4.76231e-80 0
0 -9.44114e-171 0
1.28703e-07 -1.01588e-168 0
1.79523e-07 -1.06596e-166 0
8.79975e-08 -1.09546e-164 0
2.32508e-08 -1.11266e-162 0
4.38466e-09 -1.11683e-160 0
6.69065e-10 -1.10765e-158 0
8.52449e-11 -1.08526e-156 0
8.13805e-12 -1.05027e-154 0
7.20267e-13 -1.00375e-152 0
6.24192e-14 -9.47046e-151 0
5.0124e-15 -8.78087e-149 0
3.73929e-16 -8.03274e-147 0
2.59916e-17 -7.2488e-145 0
1.68862e-18 -6.45113e-143 0
1.02861e-19 -5.66052e-141 0
5.89258e-21 -4.89562e-139 0
3.18391e-22 -4.17216e-137 0
1.62705e-23 -3.50251e-135 0
7.88389e-25 -2.89547e-133 0
3.6309e-26 -2.35628e-131 0
1.59288e-27 -1.88684e-129 0
6.67029e-29 -1.48618e-127 0
2.67133e-30 -1.15091e-125 0
1.02495e-31 -8.75875e-124 0
3.77393e-33 -6.54711e-122 0
1.33557e-34 -4.80422e-120 0
4.54928e-36 -3.45856e-118 0
1.49351e-37 -2.44104e-116 0
4.73163e-39 -1.68788e-114 0
1.4483e-40 -1.14243e-112 0
4.28779e-42 -7.56215e-111 0
1.2291e-43 -4.89023e-109 0
3.41463e-45 -3.08578e-107 0
9.20246e-47 -1.89741e-105 0
2.40795e-48 -1.1351e-103 0
6.12251e-50 -6.5944e-102 0
1.51388e-51 -3.71223e-100 0
3.64296e-53 -2.01961e-98 0
8.53735e-55 -1.05846e-96 0
1.94979e-56 -5.32256e-95 0
4.34232e-58 -2.55507e-93 0
9.43608e-60 -1.1632e-91 0
2.00191e-61 -4.97786e-90 0
4.14881e-63 -1.97804e-88 0
8.40338e-65 -7.1692e-87 0
1.66439e-66 -2.30531e-85 0
3.22506e-68 -6.27583e-84 0
6.11651e-70 -1.32065e-82 0
1.15656e-71 -1.70841e-81 0
2.21698e-69 -5.80997e-79 0
0 0 0
3.50413e-08 0 0
4.07027e-08 0 0
1.86812e-08 0 0
5.01939e-09 0 0
9.83371e-10 0 0
1.55657e-10 0 0
2.07732e-11 0 0
2.31459e-12 0 0
2.26831e-13 0 0
2.02243e-14 0 0
1.65415e-15 0 0
1.24894e-16 0 0
8.75062e-18 0 0
5.7152e-19 0 0
3.49353e-20 0 0
2.00591e-21 0 0
1.08541e-22 0 0
5.55157e-24 0 0
2.69128e-25 0 0
1.23969e-26 0 0
5.43851e-28 0 0
2.27707e-29 0 0
9.11699e-31 0 0
3.49697e-32 0 0
1.28714e-33 0 0
4.55333e-35 0 0
1.55036e-36 0 0
5.08767e-38 0 0
1.61117e-39 0 0
4.92959e-41 0 0
1.45885e-42 0 0
4.18013e-44 0 0
1.16085e-45 0 0
3.12733e-47 0 0
8.18009e-49 0 0
2.07916e-50 0 0
5.13926e-52 0 0
1.23629e-53 0 0
2.89634e-55 0 0
6.61272e-57 0 0
1.47227e-58 0 0
3.1984e-60 0 0
6.78371e-62 0 0
1.4055e-63 0 0
2.8461e-65 0 0
5.63568e-67 0 0
1.09176e-68 0 0
2.07011e-70 0 0
3.91347e-72 0 0
7.5109e-70 0 0
0 0 -6.14225e-175
6.65986e-08 0 -6.81247e-173
7.16972e-08 0 -7.58958e-171
3.19388e-08 0 -6.73135e-169
8.59652e-09 0 -4.65699e-167
1.67868e-09 0 -2.52847e-165
2.64825e-10 0 -8.96457e-164
3.54983e-11 0 -2.52944e-164
4.15631e-12 0 -2.0394e-162
4.32625e-13 0 -1.7919e-160
4.05416e-14 0 -1.54914e-158
3.45402e-15 0 -1.31801e-156
2.69672e-16 0 -1.10325e-154
1.94236e-17 0 -9.0822e-153
1.29804e-18 0 -7.34998e-151
8.08843e-20 0 -5.84481e-149
4.7201e-21 0 -4.56501e-147
2.58954e-22 0 -3.50012e-145
1.34022e-23 0 -2.63309e-143
6.5637e-25 0 -1.9424e-141
3.05037e-26 0 -1.40424e-139
1.3486e-27 0 -9.9423e-138
5.68513e-29 0 -6.88916e-136
2.29e-30 0 -4.66816e-134
8.83089e-32 0 -3.09076e-132
3.26602e-33 0 -1.9977e-130
1.16035e-34 0 -1.25924e-128
3.96617e-36 0 -7.73262e-127
1.30611e-37 0 -4.62024e-125
4.14939e-39 0 -2.68253e-123
1.27325e-40 0 -1.5112e-121
3.778e-42 0 -8.24671e-120
1.08517e-43 0 -4.35121e-118
3.02032e-45 0 -2.21511e-116
8.15349e-47 0 -1.08541e-114
2.13675e-48 0 -5.10509e-113
5.44061e-50 0 -2.29739e-111
1.34701e-51 0 -9.85513e-110
3.24527e-53 0 -4.012e-108
7.61372e-55 0 -1.54179e-106
1.74062e-56 0 -5.55713e-105
3.88015e-58 0 -1.86371e-103
8.43915e-60 0 -5.75752e-102
1.79187e-61 0 -1.61726e-100
3.71635e-63 0 -4.05962e-99
7.5328e-65 0 -8.8905e-98
1.49296e-66 0 -1.64011e-96
2.89469e-68 0 -2.41194e-95
5.49318e-70 0 -2.5652e-94
1.03928e-71 0 -1.59823e-93
1.96932e-69 0 -4.31598e-91
0.0036 -3.59741e-174 -2.62176e-174
0.003716 -7.45939e-170 -7.72276e-170
0.00182893 -1.8905e-167 -1.90506e-167
0.000522171 -2.7713e-165 -2.62645e-165
0.000103154 -2.58757e-163 -2.39456e-163
1.56347e-05 -1.89046e-161 -1.73417e-161
2.00263e-06 -1.00054e-159 -9.13925e-160
2.25007e-07 -6.22637e-161 -6.08116e-161
2.26109e-08 -4.03439e-159 -4.03543e-159
2.05707e-09 -3.62211e-157 -3.62224e-157
1.70943e-10 -3.19262e-155 -3.19263e-155
1.30679e-11 -2.76952e-153 -2.76952e-153
9.24475e-13 -2.36454e-151 -2.36454e-151
6.08343e-14 -1.98621e-149 -1.98621e-149
3.74041e-15 -1.64085e-147 -1.64085e-147
2.15745e-16 -1.33258e-145 -1.33258e-145
1.17156e-17 -1.06343e-143 -1.06343e-143
6.00868e-19 -8.33499e-142 -8.33499e-142
2.91911e-20 -6.413e-140 -6.413e-140
1.34686e-21 -4.84107e-138 -4.84107e-138
5.91612e-23 -3.58337e-136 -3.58337e-136
2.47941e-24 -2.59919e-134 -2.59919e-134
9.93424e-26 -1.84623e-132 -1.84623e-132
3.81242e-27 -1.28326e-130 -1.28326e-130
1.40376e-28 -8.72125e-129 -8.72125e-129
4.96704e-30 -5.79028e-127 -5.79028e-127
1.69145e-31 -3.75201e-125 -3.75201e-125
5.55099e-33 -2.37037e-123 -2.37037e-123
1.75787e-34 -1.45834e-121 -1.45834e-121
5.37811e-36 -8.72636e-120 -8.72636e-120
1.59142e-37 -5.07135e-118 -5.07135e-118
4.55936e-39 -2.85784e-116 -2.85784e-116
1.26596e-40 -1.55883e-114 -1.55883e-114
3.40987e-42 -8.21334e-113 -8.21334e-113
8.91733e-44 -4.17059e-111 -4.17059e-111
2.26607e-45 -2.0355e-109 -2.0355e-109
5.60004e-47 -9.51908e-108 -9.51908e-108
1.34683e-48 -4.25005e-106 -4.25005e-106
3.15459e-50 -1.80385e-104 -1.80385e-104
7.20068e-52 -7.24052e-103 -7.24052e-103
1.6028e-53 -2.73133e-101 -2.73133e-101
3.48117e-55 -9.6079e-100 -9.6079e-100
7.38178e-57 -3.12073e-98 -3.12073e-98
1.52907e-58 -9.24089e-97 -9.24089e-97
3.09564e-60 -2.45238e-95 -2.45238e-95
6.12845e-62 -5.69596e-94 -5.69596e-94
1.18696e-63 -1.11822e-92 -1.11822e-92
2.25015e-65 -1.7561e-91 -1.7561e-91
4.17703e-67 -2.00027e-90 -2.00027e-90
7.73133e-69 -1.33302e-89 -1.33302e-89
7.69094e-69 -2.29186e-89 -2.29186e-89
0.01 -4.20365e-173 -8.03957e-174
0.00972683 -3.43685e-169 1.54935e-169
0.00529212 -2.1595e-166 -1.60366e-166
0.0015691 -6.63024e-164 -6.18036e-164
0.000297151 -9.07927e-162 -8.44854e-162
3.78419e-05 -9.98565e-160 -9.17891e-160
4.32134e-06 -1.04434e-157 -9.52944e-158
4.49113e-07 -1.65008e-159 -1.58129e-159
4.28584e-08 -6.93584e-158 -6.94588e-158
3.7635e-09 -6.39315e-156 -6.39442e-156
3.05032e-10 -5.70159e-154 -5.7017e-154
2.29004e-11 -4.99646e-152 -4.99646e-152
1.59848e-12 -4.30994e-150 -4.30994e-150
1.04124e-13 -3.65899e-148 -3.65899e-148
6.35219e-15 -3.0561e-146 -3.0561e-146
3.6415e-16 -2.51024e-144 -2.51024e-144
1.9678e-17 -2.02683e-142 -2.02683e-142
1.00529e-18 -1.60797e-140 -1.60797e-140
4.86818e-20 -1.25281e-138 -1.25281e-138
2.24021e-21 -9.58106e-137 -9.58106e-137
9.81849e-23 -7.18816e-135 -7.18816e-135
4.10726e-24 -5.28734e-133 -5.28734e-133
1.64307e-25 -3.81057e-131 -3.81057e-131
6.29709e-27 -2.68887e-129 -2.68887e-129
2.31596e-28 -1.8563e-127 -1.8563e-127
8.18663e-30 -1.25274e-125 -1.25274e-125
2.78542e-31 -8.25678e-124 -8.25678e-124
9.13424e-33 -5.30966e-122 -5.30966e-122
2.89068e-34 -3.32774e-120 -3.32774e-120
8.83868e-36 -2.03014e-118 -2.03014e-118
2.61405e-37 -1.20394e-116 -1.20394e-116
7.4857e-39 -6.92989e-115 -6.92989e-115
2.07763e-40 -3.86492e-113 -3.86492e-113
5.59401e-42 -2.0845e-111 -2.0845e-111
1.46243e-43 -1.08478e-109 -1.08478e-109
3.71517e-45 -5.43307e-108 -5.43307e-108
9.17861e-47 -2.61106e-106 -2.61106e-106
2.20693e-48 -1.19988e-104 -1.19988e-104
5.16797e-50 -5.25053e-103 -5.25053e-103
1.17939e-51 -2.17691e-101 -2.17691e-101
2.62471e-53 -8.4997e-100 -8.4997e-100
5.69966e-55 -3.10171e-98 -3.10171e-98
1.20841e-56 -1.04777e-96 -1.04777e-96
2.50272e-58 -3.23572e-95 -3.23572e-95
5.06611e-60 -8.98351e-94 -8.98351e-94
1.00281e-61 -2.19045e-92 -2.19045e-92
1.94201e-63 -4.53177e-91 -4.53177e-91
3.68109e-65 -7.5308e-90 -7.5308e-90
6.83259e-67 -9.11178e-89 -9.11178e-89
1.26453e-68 -6.4536e-88 -6.4536e-88
1.25794e-68 -1.11926e-87 -1.11926e-87
0.0148 -1.29078e-174 5.08086e-173
0.0161985 -1.25984e-170 -6.34868e-169
0.010487 -2.2749e-168 -5.55333e-167
0.0034519 -1.09476e-165 -7.62799e-164
0.000640333 -8.49605e-164 -1.10231e-161
2.53285e-05 -8.3868e-164 -9.03579e-160
2.74078e-06 0 -9.4389e-158
2.73498e-07 1.07811e-155 9.73148e-156
2.74185e-08 -9.40234e-157 -9.49782e-157
2.50232e-09 -9.83095e-155 -9.84334e-155
2.09146e-10 -8.97391e-153 -8.97502e-153
1.60985e-11 -7.95527e-151 -7.95527e-151
1.14706e-12 -6.93569e-149 -6.93569e-149
7.60156e-14 -5.95328e-147 -5.95328e-147
4.70545e-15 -5.0292e-145 -5.0292e-145
2.73134e-16 -4.17975e-143 -4.17975e-143
1.49198e-17 -3.41613e-141 -3.41613e-141
7.69409e-19 -2.74449e-139 -2.74449e-139
3.7569e-20 -2.16636e-137 -2.16636e-137
1.74155e-21 -1.6793e-135 -1.6793e-135
7.683e-23 -1.27768e-133 -1.27768e-133
3.23284e-24 -9.53592e-132 -9.53592e-132
1.30012e-25 -6.97723e-130 -6.97723e-130
5.00663e-27 -5.00143e-128 -5.00143e-128
1.84939e-28 -3.50977e-126 -3.50977e-126
6.56339e-30 -2.40932e-124 -2.40932e-124
2.24128e-31 -1.61647e-122 -1.61647e-122
7.37456e-33 -1.05897e-120 -1.05897e-120
2.34104e-34 -6.76682e-119 -6.76682e-119
7.17859e-36 -4.21279e-117 -4.21279e-117
2.12873e-37 -2.55197e-115 -2.55197e-115
6.11102e-39 -1.502e-113 -1.502e-113
1.70001e-40 -8.57518e-112 -8.57518e-112
4.58714e-42 -4.7401e-110 -4.7401e-110
1.20163e-43 -2.53151e-108 -2.53151e-108
3.05842e-45 -1.30303e-106 -1.30303e-106
7.56952e-47 -6.44575e-105 -6.44575e-105
1.82309e-48 -3.05408e-103 -3.05408e-103
4.27588e-50 -1.38052e-101 -1.38052e-101
9.77267e-52 -5.92477e-100 -5.92477e-100
2.17795e-53 -2.40002e-98 -2.40002e-98
4.73585e-55 -9.10951e-97 -9.10951e-97
1.00534e-56 -3.20971e-95 -3.20971e-95
2.08466e-58 -1.03718e-93 -1.03718e-93
4.22469e-60 -3.0238e-92 -3.0238e-92
8.37166e-62 -7.77325e-91 -7.77325e-91
1.62292e-63 -1.7031e-89 -1.7031e-89
3.07929e-65 -3.01188e-88 -3.01188e-88
5.72097e-67 -3.89681e-87 -3.89681e-87
1.05977e-68 -2.95579e-86 -2.95579e-86
1.05423e-68 -5.17369e-86 -5.17369e-86
0.018 -1.53431e-176 2.53855e-171
0.0210621 -4.47073e-172 -2.85257e-167
0.015862 -1.83147e-171 3.06489e-165
0.00588543 -1.35207e-167 -3.80048e-163
0.00110052 -7.94313e-166 -2.85489e-160
0 -7.80794e-166 -2.85106e-160
0 0 0
0 0 9.733e-156
2.05514e-09 -1.12291e-153 -1.01351e-153
3.42326e-10 -1.18836e-153 -1.20019e-153
3.8586e-11 -1.21423e-151 -1.21538e-151
3.57657e-12 -1.09807e-149 -1.09807e-149
2.89707e-13 -9.67915e-148 -9.67915e-148
2.10976e-14 -8.40299e-146 -8.40299e-146
1.4041e-15 -7.18246e-144 -7.18246e-144
8.63248e-17 -6.04224e-142 -6.04224e-142
4.94114e-18 -5.00081e-140 -5.00081e-140
2.64892e-19 -4.07027e-138 -4.07027e-138
1.33644e-20 -3.25654e-136 -3.25654e-136
6.37094e-22 -2.55997e-134 -2.55997e-134
2.87943e-23 -1.97625e-132 -1.97625e-132
1.23748e-24 -1.49742e-130 -1.49742e-130
5.07022e-26 -1.11298e-128 -1.11298e-128
1.98505e-27 -8.1096e-127 -8.1096e-127
7.44176e-29 -5.78871e-125 -5.78871e-125
2.6764e-30 -4.04494e-123 -4.04494e-123
9.25e-32 -2.76462e-121 -2.76462e-121
3.07699e-33 -1.84657e-119 -1.84657e-119
9.86569e-35 -1.20412e-117 -1.20412e-117
3.05299e-36 -7.65726e-116 -7.65726e-116
9.12967e-38 -4.74294e-114 -4.74294e-114
2.64128e-39 -2.85756e-112 -2.85756e-112
7.4006e-41 -1.67204e-110 -1.67204e-110
2.01024e-42 -9.48507e-109 -9.48507e-109
5.29867e-44 -5.20596e-107 -5.20596e-107
1.35645e-45 -2.75816e-105 -2.75816e-105
3.37539e-47 -1.40677e-103 -1.40677e-103
8.17078e-49 -6.8854e-102 -6.8854e-102
1.92551e-50 -3.22171e-100 -3.22171e-100
4.42054e-52 -1.43452e-98 -1.43452e-98
9.89331e-54 -6.04429e-97 -6.04429e-97
2.15982e-55 -2.39306e-95 -2.39306e-95
4.60221e-57 -8.82353e-94 -8.82353e-94
9.57712e-59 -2.99441e-92 -2.99441e-92
1.94742e-60 -9.20595e-91 -9.20595e-91
3.8714e-62 -2.50722e-89 -2.50722e-89
7.52793e-64 -5.85052e-88 -5.85052e-88
1.43248e-65 -1.10844e-86 -1.10844e-86
2.66874e-67 -1.54572e-85 -1.54572e-85
4.95689e-69 -1.26737e-84 -1.26737e-84
4.93066e-69 -2.24004e-84 -2.24004e-84
0.0196 -4.2338e-177 2.80745e-171
0.023452 -8.37136e-173 -3.10941e-167
0.0192046 -3.15814e-171 3.37051e-165
0.00770491 -2.43428e-168 -4.15833e-163
0.00148335 -1.35146e-166 -1.72551e-161
8.68267e-05 -1.32715e-166 3.50501e-158
0 0 3.5067e-158
0 0 0
0 0 -1.01262e-153
2.25379e-11 1.1436e-151 1.01862e-151
4.01745e-12 -1.28108e-150 -1.29278e-150
4.71175e-13 -1.27834e-148 -1.27834e-148
4.46314e-14 -1.13966e-146 -1.13966e-146
3.64883e-15 -1.00106e-144 -1.00106e-144
2.65837e-16 -8.66086e-143 -8.66086e-143
1.75873e-17 -7.37792e-141 -7.37792e-141
1.06991e-18 -6.18616e-139 -6.18616e-139
6.03914e-20 -5.10335e-137 -5.10335e-137
3.18474e-21 -4.14056e-135 -4.14056e-135
1.57769e-22 -3.30249e-133 -3.30249e-133
7.37512e-24 -2.58821e-131 -2.58821e-131
3.26556e-25 -1.99211e-129 -1.99211e-129
1.37402e-26 -1.50503e-127 -1.50503e-127
5.50925e-28 -1.11543e-125 -1.11543e-125
2.11026e-29 -8.10455e-124 -8.10455e-124
7.73892e-31 -5.76899e-122 -5.76899e-122
2.72259e-32 -4.02001e-120 -4.02001e-120
9.20489e-34 -2.73997e-118 -2.73997e-118
2.99568e-35 -1.82499e-116 -1.82499e-116
9.39846e-37 -1.18665e-114 -1.18665e-114
2.84641e-38 -7.52385e-113 -7.52385e-113
8.33228e-40 -4.64577e-111 -4.64577e-111
2.36028e-41 -2.78964e-109 -2.78964e-109
6.47692e-43 -1.6263e-107 -1.6263e-107
1.72352e-44 -9.18753e-106 -9.18753e-106
4.45164e-46 -5.01877e-104 -5.01877e-104
1.11703e-47 -2.64421e-102 -2.64421e-102
2.72527e-49 -1.33966e-100 -1.33966e-100
6.46991e-51 -6.50342e-99 -6.50342e-99
1.49572e-52 -3.01204e-97 -3.01204e-97
3.36956e-54 -1.32386e-95 -1.32386e-95
7.40203e-56 -5.48512e-94 -5.48512e-94
1.58656e-57 -2.12417e-92 -2.12417e-92
3.32011e-59 -7.60273e-91 -7.60273e-91
6.78708e-61 -2.47683e-89 -2.47683e-89
1.35607e-62 -7.18715e-88 -7.18715e-88
2.64957e-64 -1.79817e-86 -1.79817e-86
5.06497e-66 -3.67908e-85 -3.67908e-85
9.47747e-68 -5.58335e-84 -5.58335e-84
1.76782e-69 -5.00635e-83 -5.00635e-83
1.75829e-69 -8.94032e-83 -8.94032e-83
0.0196 -2.9559e-175 2.6343e-171
0.0234497 -3.27871e-171 -2.91606e-167
0.0191997 -7.47573e-169 3.19128e-165
0.0077031 -1.85832e-166 -3.99169e-163
0.00149954 -1.3583e-164 -1.33018e-161
0.000175937 -5.40745e-163 -2.42174e-161
8.23388e-06 -5.27347e-163 -3.71454e-156
0 0 -3.71453e-156
0 0 0
0 0 1.0297e-151
2.34528e-13 -1.2913e-149 -1.28201e-149
9.86587e-14 -1.206e-147 -1.20601e-147
1.49133e-14 -1.0879e-145 -1.0879e-145
1.5726e-15 -9.67199e-144 -9.67199e-144
1.34591e-16 -8.47321e-142 -8.47321e-142
9.94882e-18 -7.3122e-140 -7.3122e-140
6.5616e-19 -6.21397e-138 -6.21397e-138
3.9378e-20 -5.19825e-136 -5.19825e-136
2.17858e-21 -4.27903e-134 -4.27903e-134
1.12153e-22 -3.46466e-132 -3.46466e-132
5.41011e-24 -2.75811e-130 -2.75811e-130
2.4589e-25 -2.15772e-128 -2.15772e-128
1.05765e-26 -1.65805e-126 -1.65805e-126
4.32121e-28 -1.25078e-124 -1.25078e-124
1.68225e-29 -9.25737e-123 -9.25737e-123
6.25695e-31 -6.71805e-121 -6.71805e-121
2.22865e-32 -4.77686e-119 -4.77686e-119
7.61785e-34 -3.32547e-117 -3.32547e-117
2.50345e-35 -2.26468e-115 -2.26468e-115
7.92293e-37 -1.50728e-113 -1.50728e-113
2.41843e-38 -9.79411e-112 -9.79411e-112
7.12983e-40 -6.20591e-110 -6.20591e-110
2.03271e-41 -3.82948e-108 -3.82948e-108
5.61088e-43 -2.29781e-106 -2.29781e-106
1.50112e-44 -1.33837e-104 -1.33837e-104
3.89639e-46 -7.55189e-103 -7.55189e-103
9.82161e-48 -4.11847e-101 -4.11847e-101
2.40633e-49 -2.16479e-99 -2.16479e-99
5.73505e-51 -1.09309e-97 -1.09309e-97
1.33065e-52 -5.28099e-96 -5.28099e-96
3.00781e-54 -2.42904e-94 -2.42904e-94
6.62822e-56 -1.05708e-92 -1.05708e-92
1.4249e-57 -4.31769e-91 -4.31769e-91
2.99006e-59 -1.63777e-89 -1.63777e-89
6.12826e-61 -5.68603e-88 -5.68603e-88
1.22743e-62 -1.76976e-86 -1.76976e-86
2.40376e-64 -4.78556e-85 -4.78556e-85
4.60508e-66 -1.06771e-83 -1.06771e-83
8.63467e-68 -1.78468e-82 -1.78468e-82
1.6138e-69 -1.77628e-81 -1.77628e-81
1.60511e-69 -3.20697e-81 -3.20697e-81
0.018 -1.17469e-173 3.0117e-172
0.0210398 -3.02442e-169 4.70718e-168
0.0158286 -7.75162e-167 -1.80557e-165
0.00587138 -1.15647e-164 1.01566e-162
0.00112143 -9.36713e-163 2.70453e-161
0.000148276 -5.61047e-161 2.37363e-160
1.50584e-05 -2.34587e-159 -9.4652e-160
5.88097e-07 -2.2907e-159 3.82452e-154
0 0 3.82453e-154
0 0 0
0 -9.25678e-149 -9.24127e-149
9.4278e-13 -8.65949e-147 -8.65934e-147
1.20439e-13 -7.90496e-145 -7.90496e-145
1.08416e-14 -7.11586e-143 -7.11586e-143
8.17259e-16 -6.31475e-141 -6.31475e-141
5.45541e-17 -5.52279e-139 -5.52279e-139
3.31048e-18 -4.75885e-137 -4.75885e-137
1.85387e-19 -4.03872e-135 -4.03872e-135
9.67484e-21 -3.37468e-133 -3.37468e-133
4.73815e-22 -2.77529e-131 -2.77529e-131
2.18912e-23 -2.24542e-129 -2.24542e-129
9.58182e-25 -1.78656e-127 -1.78656e-127
3.98702e-26 -1.39724e-125 -1.39724e-125
1.58175e-27 -1.0736e-123 -1.0736e-123
5.9981e-29 -8.10036e-122 -8.10036e-122
2.17889e-30 -5.99791e-120 -5.99791e-120
7.59726e-32 -4.3557e-118 -4.3557e-118
2.54709e-33 -3.1001e-116 -3.1001e-116
8.22412e-35 -2.16084e-114 -2.16084e-114
2.5611e-36 -1.47378e-112 -1.47378e-112
7.7025e-38 -9.82635e-111 -9.82635e-111
2.23997e-39 -6.398e-109 -6.398e-109
6.30594e-41 -4.06322e-107 -4.06322e-107
1.72034e-42 -2.5135e-105 -2.5135e-105
4.55268e-44 -1.51215e-103 -1.51215e-103
1.16978e-45 -8.83137e-102 -8.83137e-102
2.92082e-47 -4.99648e-100 -4.99648e-100
7.09284e-49 -2.73159e-98 -2.73159e-98
1.67642e-50 -1.43872e-96 -1.43872e-96
3.8593e-52 -7.27376e-95 -7.27376e-95
8.65952e-54 -3.51398e-93 -3.51398e-93
1.89505e-55 -1.61293e-91 -1.61293e-91
4.0472e-57 -6.98222e-90 -6.98222e-90
8.44016e-59 -2.82271e-88 -2.82271e-88
1.71969e-60 -1.05136e-86 -1.05136e-86
3.4252e-62 -3.5381e-85 -3.5381e-85
6.6723e-64 -1.04414e-83 -1.04414e-83
1.27183e-65 -2.57117e-82 -2.57117e-82
2.37329e-67 -4.80654e-81 -4.80654e-81
4.41503e-69 -5.41588e-80 -5.41588e-80
4.39172e-69 -9.89235e-80 -9.89235e-80
0.0148 -9.47069e-172 -2.27193e-171
0.0160426 -2.69388e-167 4.03461e-167
0.0103309 -4.27234e-165 -1.26762e-164
0.00339477 -4.92319e-163 -1.44343e-162
0.000637407 -4.42118e-161 -6.43904e-161
8.91385e-05 -3.47533e-159 -3.7164e-159
1.0558e-05 -2.37832e-157 -2.40148e-157
9.9001e-07 -1.20893e-155 -1.21025e-155
3.2344e-08 -1.18549e-155 -3.89005e-152
2.45777e-09 0 -3.82892e-150
1.88412e-10 -4.45636e-148 -4.49424e-148
1.44286e-11 -4.21801e-146 -4.21801e-146
1.02386e-12 -3.89812e-144 -3.89812e-144
6.76289e-14 -3.554e-142 -3.554e-142
4.17533e-15 -3.19586e-140 -3.19586e-140
2.41855e-16 -2.83368e-138 -2.83368e-138
1.3189e-17 -2.47677e-136 -2.47677e-136
6.79244e-19 -2.13336e-134 -2.13336e-134
3.31308e-20 -1.8103e-132 -1.8103e-132
1.5345e-21 -1.51287e-130 -1.51287e-130
6.76495e-23 -1.24469e-128 -1.24469e-128
2.845e-24 -1.00779e-126 -1.00779e-126
1.14365e-25 -8.02691e-125 -8.02691e-125