# vtk DataFile Version 2.0
Tobias Weinzierl: CPU, Manycore and Cluster Computing
ASCII

DATASET STRUCTURED_POINTS
DIMENSIONS  51 11 6

ORIGIN 0 0 0 

SPACING 0.1 0.1 0.1 

POINT_DATA 3366

VECTORS velocity float
0 0 0
3.9463e-11 0 0
4.40626e-13 0 0
2.61826e-15 0 0
1.07924e-17 0 0
3.42321e-20 0 0
8.8342e-23 0 0
1.92111e-25 0 0
3.60673e-28 0 0
5.95109e-31 0 0
8.74865e-34 0 0
1.15841e-36 0 0
1.39377e-39 0 0
1.53501e-42 0 0
1.55705e-45 0 0
1.46237e-48 0 0
1.27751e-51 0 0
1.04219e-54 0 0
7.96778e-58 0 0
5.72643e-61 0 0
3.87968e-64 0 0
2.48404e-67 0 0
1.50643e-70 0 0
8.67083e-74 0 0
4.74569e-77 0 0
2.47403e-80 0 0
1.23043e-83 0 0
5.84626e-87 0 0
2.65733e-90 0 0
1.15689e-93 0 0
4.82962e-97 0 0
1.93537e-100 0 0
7.45208e-104 0 0
2.75961e-107 0 0
9.83673e-111 0 0
3.3778e-114 0 0
1.11821e-117 0 0
3.5713e-121 0 0
1.10111e-124 0 0
3.27949e-128 0 0
9.44081e-132 0 0
2.62833e-135 0 0
7.08015e-139 0 0
1.84634e-142 0 0
4.66325e-146 0 0
1.1412e-149 0 0
2.70716e-153 0 0
6.22748e-157 0 0
1.38969e-160 0 0
3.01003e-164 0 0
6.08572e-164 0 0
0 0 0
4.00107e-09 0 0
4.06004e-11 0 0
2.26897e-13 0 0
8.99587e-16 0 0
2.78263e-18 0 0
7.06359e-21 0 0
1.51944e-23 0 0
2.83258e-26 0 0
4.65356e-29 0 0
6.82534e-32 0 0
9.03032e-35 0 0
1.08695e-37 0 0
1.19871e-40 0 0
1.21852e-43 0 0
1.14759e-46 0 0
1.00584e-49 0 0
8.2365e-53 0 0
6.32315e-56 0 0
4.5649e-59 0 0
3.1076e-62 -0 0
1.9998e-65 -1.67228e-304 0
1.21922e-68 -1.52172e-300 0
7.05657e-72 -1.33434e-296 0
3.88435e-75 -1.12675e-292 0
2.037e-78 -9.15605e-289 0
1.01926e-81 -7.15407e-285 0
4.87325e-85 -5.36991e-281 0
2.22928e-88 -3.86813e-277 0
9.76902e-92 -2.67085e-273 0
4.10554e-95 -1.76536e-269 0
1.65645e-98 -1.11532e-265 0
6.42245e-102 -6.72356e-262 0
2.39516e-105 -3.85987e-258 0
8.59906e-109 -2.10537e-254 0
2.97439e-112 -1.08821e-250 0
9.91971e-116 -5.31347e-247 0
3.19199e-119 -2.44192e-243 0
9.91682e-123 -1.05165e-239 0
2.97647e-126 -4.22189e-236 0
8.63581e-130 -1.56974e-232 0
2.42335e-133 -5.36217e-229 0
6.58064e-137 -1.66573e-225 0
1.7301e-140 -4.64332e-222 0
4.40581e-144 -1.14085e-218 0
1.08723e-147 -2.40917e-215 0
2.60101e-151 -4.21199e-212 0
6.03465e-155 -5.73762e-209 0
1.35836e-158 -5.4376e-206 0
2.96805e-162 -2.70486e-203 0
6.17259e-162 -1.10718e-202 0
0 0 0
1.20304e-08 0 0
1.20119e-10 0 0
6.62777e-13 0 0
2.60291e-15 0 0
7.97622e-18 0 0
2.01053e-20 0 0
4.30126e-23 0 0
7.98374e-26 0 0
1.30699e-28 0 0
1.91134e-31 0 0
2.5226e-34 0 0
3.03003e-37 0 0
3.33562e-40 0 0
3.38546e-43 0 0
3.18412e-46 0 0
2.78749e-49 0 0
2.28022e-52 0 0
1.74891e-55 0 0
1.26156e-58 0 0
8.58193e-62 -4.61268e-305 0
5.51903e-65 -4.34774e-301 0
3.36283e-68 -3.95357e-297 0
1.9453e-71 -3.4669e-293 0
1.0703e-74 -2.92991e-289 0
5.61043e-78 -2.38467e-285 0
2.80623e-81 -1.86778e-281 0
1.34124e-84 -1.40658e-277 0
6.13363e-88 -1.01745e-273 0
2.68709e-91 -7.06134e-270 0
1.12899e-94 -4.69601e-266 0
4.55409e-98 -2.9882e-262 0
1.76537e-101 -1.81637e-258 0
6.5825e-105 -1.05266e-254 0
2.36285e-108 -5.80365e-251 0
8.17184e-112 -3.03618e-247 0
2.72499e-115 -1.50267e-243 0
8.76757e-119 -7.01076e-240 0
2.72362e-122 -3.07033e-236 0
8.17408e-126 -1.25573e-232 0
2.37142e-129 -4.7661e-229 0
6.65419e-133 -1.66561e-225 0
1.80686e-136 -5.30618e-222 0
4.75017e-140 -1.52095e-218 0
1.20962e-143 -3.85406e-215 0
2.98495e-147 -8.42205e-212 0
7.14083e-151 -1.52947e-208 0
1.65674e-154 -2.17351e-205 0
3.72921e-158 -2.15954e-202 0
8.14848e-162 -1.13267e-199 0
1.69524e-161 -4.73277e-199 0
0 0 0
1.96272e-08 0 0
1.93007e-10 0 0
1.05161e-12 0 0
4.09029e-15 0 0
5.22782e-18 0 0
1.313e-20 0 0
2.80104e-23 0 0
5.1957e-26 0 0
8.50058e-29 0 0
1.24244e-31 0 0
1.63897e-34 0 0
1.96776e-37 0 0
2.16532e-40 0 0
2.19685e-43 0 0
2.06547e-46 0 0
1.80761e-49 0 0
1.47821e-52 0 0
1.13346e-55 0 0
8.17398e-59 -1.07629e-305 0
5.55909e-62 -1.04945e-301 0
3.57422e-65 -9.88386e-298 0
2.17735e-68 -8.98819e-294 0
1.25928e-71 -7.88815e-290 0
6.92717e-75 -6.677e-286 0
3.63047e-78 -5.44762e-282 0
1.81557e-81 -4.28084e-278 0
8.67604e-85 -3.23731e-274 0
3.96698e-88 -2.35375e-270 0
1.73763e-91 -1.64358e-266 0
7.29962e-95 -1.1009e-262 0
2.94406e-98 -7.06355e-259 0
1.14109e-101 -4.3344e-255 0
4.25416e-105 -2.53904e-251 0
1.52687e-108 -1.41685e-247 0
5.27994e-112 -7.51316e-244 0
1.76044e-115 -3.77491e-240 0
5.66344e-119 -1.79097e-236 0
1.75912e-122 -7.99069e-233 0
5.27883e-126 -3.33611e-229 0
1.53129e-129 -1.2954e-225 0
4.29632e-133 -4.64258e-222 0
1.16648e-136 -1.52082e-218 0
3.06631e-140 -4.4959e-215 0
7.8075e-144 -1.17891e-211 0
1.92644e-147 -2.67598e-208 0
4.60811e-151 -5.06973e-205 0
1.06902e-154 -7.55333e-202 0
2.40606e-158 -7.91358e-199 0
5.25683e-162 -4.40623e-196 0
1.09342e-161 -1.8799e-195 0
0 0 0
2.54338e-08 0 0
2.47828e-10 0 0
1.33968e-12 0 0
5.17871e-15 0 0
0 0 0
0 0 0
0 0 0
8.46912e-29 0 0
2.4757e-31 0 0
4.89679e-34 0 0
7.83558e-37 0 0
1.07737e-39 0 0
1.31122e-42 0 0
1.43785e-45 0 0
1.43774e-48 0 0
1.32242e-51 0 0
1.12645e-54 0 0
8.93425e-58 -2.08314e-306 0
6.62755e-61 -2.09888e-302 0
4.6157e-64 -2.04492e-298 0
3.02776e-67 -1.92603e-294 0
1.87602e-70 -1.75291e-290 0
1.10069e-73 -1.54083e-286 0
6.12873e-77 -1.30742e-282 0
3.24503e-80 -1.0702e-278 0
1.63677e-83 -8.44506e-275 0
7.87743e-87 -6.41924e-271 0
3.6229e-90 -4.69588e-267 0
1.59438e-93 -3.30264e-263 0
6.72255e-97 -2.23056e-259 0
2.71884e-100 -1.44478e-255 0
1.05585e-103 -8.96116e-252 0
3.94116e-107 -5.31309e-248 0
1.41528e-110 -3.00519e-244 0
4.89361e-114 -1.61777e-240 0
1.63055e-117 -8.26575e-237 0
5.23936e-121 -3.99521e-233 0
1.62467e-124 -1.81962e-229 0
4.865e-128 -7.77203e-226 0
1.40765e-131 -3.09488e-222 0
3.93778e-135 -1.14054e-218 0
1.06559e-138 -3.8533e-215 0
2.79082e-142 -1.17878e-211 0
7.07762e-146 -3.21071e-208 0
1.73881e-149 -7.603e-205 0
4.14011e-153 -1.51016e-201 0
9.55744e-157 -2.37256e-198 0
2.13997e-160 -2.63899e-195 0
4.65005e-164 -1.57256e-192 0
9.39841e-164 -6.85259e-192 0
0 0 0
2.85603e-08 0 0
2.77117e-10 0 0
1.49241e-12 0 0
5.75213e-15 0 0
8.87989e-18 0 0
0 0 0
0 0 0
0 0 0
3.25695e-34 0 0
9.7769e-37 0 0
1.93608e-39 0 0
3.05482e-42 0 0
4.10225e-45 0 0
4.84586e-48 0 0
5.13632e-51 0 0
4.95063e-54 0 0
4.3812e-57 -3.25492e-307 0
3.58637e-60 -3.38527e-303 0
2.73141e-63 -3.40818e-299 0
1.94478e-66 -3.32071e-295 0
1.2997e-69 -3.13017e-291 0
8.18054e-73 -2.85337e-287 0
4.86375e-76 -2.51424e-283 0
2.7386e-79 -2.14038e-279 0
1.46367e-82 -1.75937e-275 0
7.44045e-86 -1.39547e-271 0
3.604e-89 -1.06723e-267 0
1.66616e-92 -7.86334e-264 0
7.36283e-96 -5.57633e-260 0
3.11429e-99 -3.80199e-256 0
1.26242e-102 -2.48917e-252 0
4.90997e-106 -1.56264e-248 0
1.83418e-109 -9.39103e-245 0
6.58752e-113 -5.39246e-241 0
2.27673e-116 -2.95198e-237 0
7.57842e-120 -1.53657e-233 0
2.43145e-123 -7.58151e-230 0
7.52472e-127 -3.5326e-226 0
2.24777e-130 -1.54737e-222 0
6.48532e-134 -6.33597e-219 0
1.80837e-137 -2.40815e-215 0
4.87604e-141 -8.41916e-212 0
1.27204e-144 -2.67531e-208 0
3.21223e-148 -7.60193e-205 0
7.85573e-152 -1.88732e-201 0
1.86137e-155 -3.95301e-198 0
4.27492e-159 -6.59353e-195 0
9.52008e-163 -7.84963e-192 0
2.05694e-166 -5.05561e-189 0
4.04005e-166 -2.25073e-188 0
0 0 0
2.85603e-08 0 0
2.77117e-10 0 0
1.49241e-12 0 0
5.75217e-15 0 0
1.73684e-17 0 0
2.11038e-20 0 0
0 0 0
0 0 0
0 0 0
1.0736e-39 0 0
2.18684e-40 0 0
6.61614e-43 0 0
1.24121e-45 0 0
1.80796e-48 0 0
2.21569e-51 0 0
2.37684e-54 -3.9455e-308 0
2.28415e-57 -4.23156e-304 0
1.99636e-60 -4.39763e-300 0
1.60383e-63 -4.42759e-296 0
1.19375e-66 -4.31744e-292 0
8.28257e-70 -4.07622e-288 0
5.38324e-73 -3.72478e-284 0
3.29082e-76 -3.29286e-280 0
1.89854e-79 -2.81497e-276 0
1.03669e-82 -2.32576e-272 0
5.3713e-86 -1.85604e-268 0
2.6465e-89 -1.42968e-264 0
1.24242e-92 -1.06214e-260 0
5.56708e-96 -7.60387e-257 0
2.38466e-99 -5.24028e-253 0
9.77864e-103 -3.47248e-249 0
3.84365e-106 -2.20961e-245 0
1.44988e-109 -1.34809e-241 0
5.25426e-113 -7.87176e-238 0
1.83111e-116 -4.3901e-234 0
6.14236e-120 -2.33271e-230 0
1.98493e-123 -1.1775e-226 0
6.18426e-127 -5.62659e-223 0
1.859e-130 -2.53428e-219 0
5.3953e-134 -1.07023e-215 0
1.51278e-137 -4.20931e-212 0
4.10032e-141 -1.52863e-208 0
1.07494e-144 -5.06744e-205 0
2.72714e-148 -1.50965e-201 0
6.69875e-152 -3.95226e-198 0
1.59385e-155 -8.78874e-195 0
3.67499e-159 -1.56905e-191 0
8.21482e-163 -2.0191e-188 0
1.78127e-166 -1.42278e-185 0
3.49846e-166 -6.47324e-185 0
0 0 0
2.54338e-08 0 0
2.47828e-10 0 0
1.33968e-12 0 0
5.17877e-15 0 0
1.57123e-17 0 0
3.91949e-20 0 0
3.83435e-23 0 0
0 0 0
0 0 0
0 0 0
1.96225e-37 0 0
4.31604e-40 0 0
6.56513e-43 0 0
8.22663e-46 0 0
8.99624e-49 0 0
8.82554e-52 -3.84651e-305 0
7.89298e-55 -4.12275e-301 0
6.50368e-58 -4.28474e-297 0
4.975e-61 -4.31742e-293 0
3.55345e-64 -4.21675e-289 0
2.3808e-67 -3.9908e-285 0
1.50191e-70 -3.65871e-281 0
8.94932e-74 -3.24801e-277 0
5.05052e-77 -2.79089e-273 0
2.70589e-80 -2.32003e-269 0
1.37916e-83 -1.86478e-265 0
6.69965e-87 -1.44836e-261 0
3.10704e-90 -1.08625e-257 0
1.37768e-93 -7.86031e-254 0
5.84863e-97 -5.48279e-250 0
2.38013e-100 -3.68263e-246 0
9.29581e-104 -2.37893e-242 0
3.48796e-107 -1.47593e-238 0
1.25856e-110 -8.78001e-235 0
4.37109e-114 -4.99853e-231 0
1.46245e-117 -2.71722e-227 0
4.71722e-121 -1.4066e-223 0
1.46799e-124 -6.91141e-220 0
4.41047e-128 -3.21057e-216 0
1.28012e-131 -1.40303e-212 0
3.59152e-135 -5.73201e-209 0
9.74567e-139 -2.1716e-205 0
2.55905e-142 -7.54754e-202 0
6.50572e-146 -2.37105e-198 0
1.602e-149 -6.59037e-195 0
3.82272e-153 -1.56861e-191 0
8.84306e-157 -3.02709e-188 0
1.98392e-160 -4.2623e-185 0
4.31902e-164 -3.3375e-182 0
8.72929e-164 -1.55229e-181 0
0 0 0
1.96269e-08 0 0
1.93005e-10 0 0
1.05159e-12 0 0
4.09024e-15 0 0
1.24695e-17 0 0
3.12971e-20 0 0
6.65645e-23 0 0
5.21295e-26 0 0
8.50078e-29 0 0
1.24082e-31 0 0
1.637e-34 0 0
1.96557e-37 0 0
2.16308e-40 0 0
2.19472e-43 0 0
2.0636e-46 -2.26265e-306 0
1.80606e-49 -2.49863e-302 0
1.47702e-52 -2.67795e-298 0
1.13259e-55 -2.78542e-294 0
8.16807e-59 -2.81115e-290 0
5.55527e-62 -2.75226e-286 0
3.57188e-65 -2.61335e-282 0
2.17599e-68 -2.40592e-278 0
1.25852e-71 -2.14682e-274 0
6.92321e-75 -1.85601e-270 0
3.62848e-78 -1.55397e-266 0
1.81461e-81 -1.25943e-262 0
8.67166e-85 -9.87493e-259 0
3.96506e-88 -7.48592e-255 0
1.73682e-91 -5.48272e-251 0
7.29633e-95 -3.8764e-247 0
2.94278e-98 -2.64322e-243 0
1.14061e-101 -1.73635e-239 0
4.25244e-105 -1.09748e-235 0
1.52627e-108 -6.66456e-232 0
5.27794e-112 -3.88165e-228 0
1.75979e-115 -2.16394e-224 0
5.66144e-119 -1.15187e-220 0
1.75852e-122 -5.83719e-217 0
5.27708e-126 -2.80595e-213 0
1.5308e-129 -1.27372e-209 0
4.29497e-133 -5.42868e-206 0
1.16613e-136 -2.15629e-202 0
3.06541e-140 -7.90279e-199 0
7.80526e-144 -2.63583e-195 0
1.9259e-147 -7.84173e-192 0
4.60686e-151 -2.01754e-188 0
1.06874e-154 -4.26028e-185 0
2.40544e-158 -6.66647e-182 0
5.25552e-162 -5.91999e-179 0
1.09316e-161 -2.81569e-178 0
0 0 0
1.19904e-08 0 0
1.19672e-10 0 0
6.60124e-13 0 0
2.59198e-15 0 0
7.95959e-18 0 0
2.00926e-20 0 0
4.30305e-23 0 0
7.97329e-26 0 0
1.30351e-28 0 0
1.90582e-31 0 0
2.51486e-34 0 0
3.02028e-37 0 0
3.32448e-40 0 0
3.37383e-43 -6.46524e-308 0
3.17291e-46 -7.34887e-304 0
2.77749e-49 -8.11496e-300 0
2.27191e-52 -8.70439e-296 0
1.74246e-55 -9.06818e-292 0
1.25686e-58 -9.17415e-288 0
8.54968e-62 -9.01149e-284 0
5.49816e-65 -8.59251e-280 0
3.35005e-68 -7.95114e-276 0
1.93788e-71 -7.13843e-272 0
1.06621e-74 -6.21584e-268 0
5.58893e-78 -5.24759e-264 0
2.79547e-81 -4.29341e-260 0
1.3361e-84 -3.40266e-256 0
6.11012e-88 -2.61079e-252 0
2.6768e-91 -1.93818e-248 0
1.12468e-94 -1.39115e-244 0
4.53672e-98 -9.64626e-241 0
1.75866e-101 -6.45566e-237 0
6.55754e-105 -4.16528e-233 0
2.35392e-108 -2.58772e-229 0
8.14108e-112 -1.54564e-225 0
2.71478e-115 -8.86028e-222 0
8.73486e-119 -4.86418e-218 0
2.71351e-122 -2.55078e-214 0
8.14388e-126 -1.27367e-210 0
2.36271e-129 -6.03158e-207 0
6.62987e-133 -2.69521e-203 0
1.80029e-136 -1.12889e-199 0
4.73301e-140 -4.39268e-196 0
1.20528e-143 -1.56817e-192 0
2.9743e-147 -5.04306e-189 0
7.11554e-151 -1.41976e-185 0
1.65092e-154 -3.33182e-182 0
3.71619e-158 -5.91333e-179 0
8.12022e-162 -6.1239e-176 0
1.68953e-161 -2.97953e-175 0
0 0 0
3.92188e-09 0 0
3.97159e-11 0 0
2.21642e-13 0 0
8.77929e-16 0 0
2.71397e-18 0 0
6.88652e-21 0 0
1.48095e-23 0 0
2.76034e-26 0 0
4.53436e-29 0 0
6.65008e-32 0 0
8.79823e-35 0 0
1.05902e-37 0 0
1.16796e-40 0 0
1.18731e-43 0 0
1.11829e-46 0 0
9.80232e-50 0 0
8.02762e-53 0 0
6.16345e-56 0 0
4.45012e-59 0 0
3.02983e-62 0 0
1.95001e-65 0 0
1.18902e-68 0 0
6.88275e-72 0 0
3.78922e-75 0 0
1.98741e-78 0 0
9.94594e-82 0 0
4.75605e-85 0 0
2.17601e-88 0 0
9.53709e-92 0 0
4.00872e-95 0 0
1.61765e-98 0 0
6.27305e-102 0 0
2.33984e-105 0 0
8.40186e-109 0 0
2.90667e-112 0 0
9.69554e-116 0 0
3.1204e-119 0 0
9.69608e-123 0 0
2.91073e-126 0 0
8.44655e-130 0 0
2.37066e-133 0 0
6.43871e-137 0 0
1.69309e-140 0 0
4.31233e-144 0 0
1.06436e-147 0 0
2.54674e-151 0 0
5.90982e-155 0 0
1.3305e-158 0 0
2.90771e-162 0 0
6.05062e-162 0 0
0 0 0
3.99362e-09 0 0
4.05207e-11 0 0
2.26439e-13 0 0
8.97751e-16 0 0
2.77696e-18 0 0
7.0493e-21 0 0
1.51639e-23 0 0
2.82696e-26 0 0
4.64442e-29 0 0
6.81207e-32 0 0
9.01293e-35 0 0
1.08487e-37 0 0
1.19645e-40 0 0
1.21624e-43 0 0
1.14547e-46 0 0
1.00399e-49 0 0
8.22151e-53 0 0
6.31175e-56 0 0
4.55674e-59 0 0
3.10209e-62 0 -0
1.99628e-65 0 -7.43692e-305
1.2171e-68 0 -6.76736e-301
7.04437e-72 0 -5.93406e-297
3.8777e-75 0 -5.01087e-293
2.03354e-78 0 -4.07186e-289
1.01754e-81 0 -3.18154e-285
4.86511e-85 0 -2.38809e-281
2.22558e-88 0 -1.72022e-277
9.75296e-92 0 -1.18776e-273
4.09884e-95 0 -7.85079e-270
1.65377e-98 0 -4.95996e-266
6.41215e-102 0 -2.99003e-262
2.39135e-105 0 -1.71651e-258
8.5855e-109 0 -9.36268e-255
2.96974e-112 0 -4.8393e-251
9.90433e-116 0 -2.3629e-247
3.18708e-119 0 -1.08591e-243
9.9017e-123 0 -4.67661e-240
2.97197e-126 0 -1.87742e-236
8.62286e-130 0 -6.98038e-233
2.41975e-133 0 -2.38444e-229
6.57095e-137 0 -7.40704e-226
1.72757e-140 0 -2.06473e-222
4.39943e-144 0 -5.0729e-219
1.08567e-147 0 -1.07125e-215
2.59731e-151 0 -1.87285e-212
6.02615e-155 0 -2.55118e-209
1.35646e-158 0 -2.41773e-206
2.96394e-162 0 -1.20265e-203
6.16428e-162 0 -4.92274e-203
0.0036 0 0
4.15058e-05 0 0
2.12937e-07 0 0
7.99467e-10 0 0
2.39445e-12 0 0
5.96666e-15 0 0
1.27084e-17 0 0
2.35911e-20 0 0
3.87428e-23 0 0
5.69608e-26 0 0
7.56999e-29 0 0
9.167e-32 0 0
1.01836e-34 0 0
1.0438e-37 0 0
9.92056e-41 0 0
8.7808e-44 0 0
7.2655e-47 0 0
5.63888e-50 0 0
4.11738e-53 0 0
2.83608e-56 0 0
1.8473e-59 -4.03944e-305 -4.0394e-305
1.14034e-62 -3.85163e-301 -3.85163e-301
6.68458e-66 -3.54259e-297 -3.54259e-297
3.72777e-69 -3.14255e-293 -3.14255e-293
1.981e-72 -2.68696e-289 -2.68696e-289
1.00472e-75 -2.21289e-285 -2.21289e-285
4.8702e-79 -1.75406e-281 -1.75406e-281
2.25921e-82 -1.33701e-277 -1.33701e-277
1.00415e-85 -9.79032e-274 -9.79032e-274
4.28118e-89 -6.87938e-270 -6.87938e-270
1.75269e-92 -4.63274e-266 -4.63274e-266
6.89672e-96 -2.98562e-262 -2.98562e-262
2.61081e-99 -1.8383e-258 -1.8383e-258
9.51638e-103 -1.07934e-254 -1.07934e-254
3.34255e-106 -6.02984e-251 -6.02984e-251
1.13219e-109 -3.19701e-247 -3.19701e-247
3.70082e-113 -1.60387e-243 -1.60387e-243
1.16817e-116 -7.58645e-240 -7.58645e-240
3.56292e-120 -3.36909e-236 -3.36909e-236
1.05065e-123 -1.39753e-232 -1.39753e-232
2.99709e-127 -5.38089e-229 -5.38089e-229
8.2748e-131 -1.90801e-225 -1.90801e-225
2.2123e-134 -6.16876e-222 -6.16876e-222
5.73008e-138 -1.79488e-218 -1.79488e-218
1.43846e-141 -4.61789e-215 -4.61789e-215
3.50137e-145 -1.02482e-211 -1.02482e-211
8.26702e-149 -1.89052e-208 -1.89052e-208
1.89405e-152 -2.72972e-205 -2.72972e-205
4.2123e-156 -2.75643e-202 -2.75643e-202
9.09844e-160 -1.46968e-199 -1.46968e-199
6.20072e-160 -2.36816e-199 -2.36816e-199
0.01 0 0
0.00012541 0 0
6.32745e-07 0 0
2.343e-09 0 0
6.94681e-12 0 0
1.71479e-14 0 0
3.62619e-17 0 0
6.69363e-20 0 0
1.09432e-22 0 0
1.60296e-25 0 0
2.12376e-28 0 0
2.56516e-31 0 0
2.84335e-34 0 0
2.90886e-37 0 0
2.76011e-40 0 0
2.43949e-43 0 0
2.01596e-46 0 0
1.56288e-49 0 0
1.14005e-52 0 0
7.84585e-56 -1.07628e-305 -1.07669e-305
5.10644e-59 -1.06251e-301 -1.06251e-301
3.14999e-62 -1.01216e-297 -1.01216e-297
1.84533e-65 -9.31117e-294 -9.31117e-294
1.02849e-68 -8.26748e-290 -8.26748e-290
5.46277e-72 -7.08119e-286 -7.08119e-286
2.76932e-75 -5.84681e-282 -5.84681e-282
1.34182e-78 -4.6504e-278 -4.6504e-278
6.22211e-82 -3.56008e-274 -3.56008e-274
2.7646e-85 -2.62068e-270 -2.62068e-270
1.17832e-88 -1.85307e-266 -1.85307e-266
4.82259e-92 -1.25708e-262 -1.25708e-262
1.89718e-95 -8.1701e-259 -8.1701e-259
7.1803e-99 -5.07917e-255 -5.07917e-255
2.61667e-102 -3.01486e-251 -3.01486e-251
9.18914e-106 -1.70503e-247 -1.70503e-247
3.11203e-109 -9.16471e-244 -9.16471e-244
1.01709e-112 -4.66845e-240 -4.66845e-240
3.21002e-116 -2.24598e-236 -2.24598e-236
9.78946e-120 -1.01635e-232 -1.01635e-232
2.88646e-123 -4.30451e-229 -4.30451e-229
8.23319e-127 -1.69591e-225 -1.69591e-225
2.27296e-130 -6.16834e-222 -6.16834e-222
6.07644e-134 -2.05112e-218 -2.05112e-218
1.57377e-137 -6.1565e-215 -6.1565e-215
3.95057e-141 -1.63947e-211 -1.63947e-211
9.61574e-145 -3.78022e-208 -3.78022e-208
2.27029e-148 -7.27674e-205 -7.27674e-205
5.20133e-152 -1.10184e-201 -1.10184e-201
1.15674e-155 -1.17354e-198 -1.17354e-198
2.49851e-159 -6.64424e-196 -6.64424e-196
1.70297e-159 -1.07499e-195 -1.07499e-195
0.0148 0 0
0.000204587 0 0
1.01766e-06 0 0
3.71964e-09 0 0
1.09209e-11 0 0
1.12431e-14 0 0
2.36912e-17 0 0
4.36088e-20 0 0
7.12354e-23 0 0
1.04272e-25 0 0
1.38064e-28 0 0
1.66667e-31 0 0
1.84652e-34 0 0
1.88824e-37 0 0
1.79097e-40 0 0
1.58236e-43 0 0
1.30721e-46 0 0
1.01311e-49 0 0
7.38808e-53 -2.42582e-306 -2.42661e-306
5.08314e-56 -2.47917e-302 -2.47917e-302
3.30753e-59 -2.44313e-298 -2.44313e-298
2.03983e-62 -2.32778e-294 -2.32778e-294
1.19472e-65 -2.1434e-290 -2.1434e-290
6.65737e-69 -1.90646e-286 -1.90646e-286
3.53533e-72 -1.63709e-282 -1.63709e-282
1.79188e-75 -1.35635e-278 -1.35635e-278
8.68065e-79 -1.08349e-274 -1.08349e-274
4.02461e-82 -8.33844e-271 -8.33844e-271
1.78792e-85 -6.17683e-267 -6.17683e-267
7.61921e-89 -4.39973e-263 -4.39973e-263
3.11791e-92 -3.00999e-259 -3.00999e-259
1.22639e-95 -1.9752e-255 -1.9752e-255
4.6409e-99 -1.24139e-251 -1.24139e-251
1.69103e-102 -7.45935e-248 -7.45935e-248
5.93772e-106 -4.27677e-244 -4.27677e-244
2.01063e-109 -2.33416e-240 -2.33416e-240
6.57044e-113 -1.20934e-236 -1.20934e-236
2.07344e-116 -5.92848e-233 -5.92848e-233
6.32254e-120 -2.73912e-229 -2.73912e-229
1.86401e-123 -1.18708e-225 -1.18708e-225
5.31622e-127 -4.79733e-222 -4.79733e-222
1.4675e-130 -1.79461e-218 -1.79461e-218
3.92274e-134 -6.15599e-215 -6.15599e-215
1.01587e-137 -1.91251e-211 -1.91251e-211
2.54983e-141 -5.29154e-208 -5.29154e-208
6.20569e-145 -1.27317e-204 -1.27317e-204
1.46503e-148 -2.57012e-201 -2.57012e-201
3.35612e-152 -4.10481e-198 -4.10481e-198
7.46307e-156 -4.64275e-195 -4.64275e-195
1.61184e-159 -2.814e-192 -2.814e-192
1.09855e-159 -4.5714e-192 -4.5714e-192
0.018 0 0
0.000265084 0 0
1.30761e-06 0 0
4.74042e-09 0 0
1.38309e-11 0 0
0 0 0
0 0 0
0 0 0
1.03922e-25 0 0
2.75193e-28 0 0
4.98113e-31 0 0
7.35515e-34 0 0
9.39805e-37 0 0
1.06931e-39 0 0
1.10188e-42 0 0
1.04004e-45 0 0
9.06599e-49 0 0
7.34447e-52 -4.49819e-307 -4.49933e-307
5.55746e-55 -4.79835e-303 -4.79836e-303
3.94429e-58 -4.88624e-299 -4.88624e-299
2.63489e-61 -4.81605e-295 -4.81605e-295
1.66175e-64 -4.59298e-291 -4.59298e-291
9.92022e-68 -4.23654e-287 -4.23654e-287
5.61873e-71 -3.77787e-283 -3.77787e-283
3.0256e-74 -3.25522e-279 -3.25522e-279
1.55185e-77 -2.7087e-275 -2.7087e-275
7.59411e-81 -2.17522e-271 -2.17522e-271
3.55104e-84 -1.68457e-267 -1.68457e-267
1.58888e-87 -1.25705e-263 -1.25705e-263
6.81133e-91 -9.02984e-260 -9.02984e-260
2.80086e-94 -6.23738e-256 -6.23738e-256
1.10596e-97 -4.13789e-252 -4.13789e-252
4.19768e-101 -2.63266e-248 -2.63266e-248
1.53288e-104 -1.60375e-244 -1.60375e-244
5.39024e-108 -9.33643e-241 -9.33643e-241
1.82668e-111 -5.18275e-237 -5.18275e-237
5.97037e-115 -2.73614e-233 -2.73614e-233
1.88334e-118 -1.36952e-229 -1.36952e-229
5.7376e-122 -6.47475e-226 -6.47475e-226
1.68919e-125 -2.87827e-222 -2.87827e-222
4.80867e-129 -1.19634e-218 -1.19634e-218
1.32437e-132 -4.61669e-215 -4.61669e-215
3.53065e-136 -1.63916e-211 -1.63916e-211
9.11534e-140 -5.291e-208 -5.291e-208
2.28015e-143 -1.52759e-204 -1.52759e-204
5.52856e-147 -3.85441e-201 -3.85441e-201
1.29987e-150 -8.20704e-198 -8.20704e-198
2.96475e-154 -1.39201e-194 -1.39201e-194
6.56205e-158 -1.68561e-191 -1.68561e-191
1.41024e-161 -1.10456e-188 -1.10456e-188
9.52227e-162 -1.80168e-188 -1.80168e-188
0.0196 0 0
0.000297652 0 0
1.4627e-06 0 0
5.28194e-09 0 0
1.53645e-11 0 0
1.91124e-14 0 0
0 0 0
0 0 0
0 0 0
3.31364e-31 0 0
9.17861e-34 0 0
1.68905e-36 0 0
2.49145e-39 0 0
3.14396e-42 0 0
3.50569e-45 0 0
3.52148e-48 0 0
3.228e-51 -6.37766e-308 -6.37863e-308
2.72541e-54 -7.49722e-304 -7.49723e-304
2.13446e-57 -7.88098e-300 -7.88098e-300
1.55929e-60 -8.02671e-296 -8.02671e-296
1.0674e-63 -7.91887e-292 -7.91887e-292
6.87287e-67 -7.56519e-288 -7.56519e-288
4.17605e-70 -6.996e-284 -6.996e-284
2.40116e-73 -6.25999e-280 -6.25999e-280
1.30969e-76 -5.41734e-276 -5.41734e-276
6.79112e-80 -4.53167e-272 -4.53167e-272
3.3541e-83 -3.66207e-268 -3.66207e-268
1.58061e-86 -2.8569e-264 -2.8569e-264
7.11807e-90 -2.14994e-260 -2.14994e-260
3.06765e-93 -1.55932e-256 -1.55932e-256
1.26683e-96 -1.0889e-252 -1.0889e-252
5.01894e-100 -7.31283e-249 -7.31283e-249
1.9097e-103 -4.71684e-245 -4.71684e-245
6.98572e-107 -2.91758e-241 -2.91758e-241
2.459e-110 -1.72754e-237 -1.72754e-237
8.33644e-114 -9.7717e-234 -9.7717e-234
2.72414e-117 -5.26722e-230 -5.26722e-230
8.58677e-121 -2.69772e-226 -2.69772e-226
2.61268e-124 -1.30826e-222 -1.30826e-222
7.67864e-128 -5.98146e-219 -5.98146e-219
2.18117e-131 -2.5647e-215 -2.5647e-215
5.99173e-135 -1.02441e-211 -1.02441e-211
1.59261e-138 -3.77899e-208 -3.77899e-208
4.09805e-142 -1.27286e-204 -1.27286e-204
1.02133e-145 -3.8539e-201 -3.8539e-201
2.46645e-149 -1.02569e-197 -1.02569e-197
5.77404e-153 -2.31932e-194 -2.31932e-194
1.31087e-156 -4.21172e-191 -4.21172e-191
2.8872e-160 -5.51437e-188 -5.51437e-188
6.17269e-164 -3.95472e-185 -3.95472e-185
4.12864e-164 -6.47684e-185 -6.47684e-185
0.0196 0 0
0.000297652 0 0
1.4627e-06 0 0
5.28194e-09 0 0
1.53646e-11 0 0
3.7367e-14 0 0
3.80876e-17 0 0
0 0 0
0 0 0
0 0 0
9.36731e-37 0 0
1.9058e-37 0 0
5.39255e-40 0 0
9.50811e-43 0 0
1.30746e-45 0 0
1.51861e-48 0 0
1.54937e-51 -9.08581e-305 -9.08581e-305
1.42057e-54 -9.85117e-301 -9.85117e-301
1.18791e-57 -1.0357e-296 -1.0357e-296
9.15421e-61 -1.05584e-292 -1.05584e-292
6.55091e-64 -1.04347e-288 -1.04347e-288
4.37925e-67 -9.99422e-285 -9.99422e-285
2.74771e-70 -9.27398e-281 -9.27398e-281
1.62444e-73 -8.33431e-277 -8.33431e-277
9.07846e-77 -7.25061e-273 -7.25061e-273
4.80953e-80 -6.10339e-269 -6.10339e-269
2.42114e-83 -4.96847e-265 -4.96847e-265
1.16058e-86 -3.90893e-261 -3.90893e-261
5.30741e-90 -2.9701e-257 -2.9701e-257
2.31932e-93 -2.17778e-253 -2.17778e-253
9.69968e-97 -1.53952e-249 -1.53952e-249
3.88742e-100 -1.04817e-245 -1.04817e-245
1.49488e-103 -6.86477e-242 -6.86477e-242
5.52179e-107 -4.31878e-238 -4.31878e-238
1.96123e-110 -2.60573e-234 -2.60573e-234
6.70448e-114 -1.50488e-230 -1.50488e-230
2.20785e-117 -8.30046e-227 -8.30046e-227
7.00964e-121 -4.36072e-223 -4.36072e-223
2.14719e-124 -2.175e-219 -2.175e-219
6.35034e-128 -1.02584e-215 -1.02584e-215
1.81452e-131 -4.55271e-212 -4.55271e-212
5.01221e-135 -1.88938e-208 -1.88938e-208
1.33921e-138 -7.27296e-205 -7.27296e-205
3.463e-142 -2.56903e-201 -2.56903e-201
8.67079e-146 -8.20448e-198 -8.20448e-198
2.10316e-149 -2.31891e-194 -2.31891e-194
4.94409e-153 -5.61408e-191 -5.61408e-191
1.12689e-156 -1.10231e-187 -1.10231e-187
2.49131e-160 -1.57968e-184 -1.57968e-184
5.34535e-164 -1.25929e-181 -1.25929e-181
3.57522e-164 -2.07076e-181 -2.07076e-181
0.018 0 0
0.000265084 0 0
1.30761e-06 0 0
4.74042e-09 0 0
1.3831e-11 0 0
3.37867e-14 0 0
7.07132e-17 0 0
5.96862e-20 0 0
0 0 0
0 0 0
0 0 0
1.84172e-34 0 0
3.76458e-37 0 0
5.35345e-40 0 0
6.30394e-43 0 0
6.50741e-46 -8.00377e-306 -8.00174e-306
6.05015e-49 -8.95556e-302 -8.95556e-302
5.14602e-52 -9.70962e-298 -9.70962e-298
4.04539e-55 -1.02178e-293 -1.02178e-293
2.9607e-58 -1.04346e-289 -1.04346e-289
2.02844e-61 -1.03388e-285 -1.03388e-285
1.30664e-64 -9.93634e-282 -9.93634e-282
7.9418e-68 -9.26027e-278 -9.26027e-278
4.56829e-71 -8.36602e-274 -8.36602e-274
2.49327e-74 -7.32401e-270 -7.32401e-270
1.294e-77 -6.21052e-266 -6.21052e-266
6.39877e-81 -5.09855e-262 -5.09855e-262
3.02007e-84 -4.05009e-258 -4.05009e-258
1.36262e-87 -3.11107e-254 -3.11107e-254
5.88552e-91 -2.30925e-250 -2.30925e-250
2.43673e-94 -1.65498e-246 -1.65498e-246
9.68169e-98 -1.14411e-242 -1.14411e-242
3.69563e-101 -7.62124e-239 -7.62124e-239
1.3566e-104 -4.88565e-235 -4.88565e-235
4.79333e-108 -3.0097e-231 -3.0097e-231
1.63163e-111 -1.77863e-227 -1.77863e-227
5.35483e-115 -1.00629e-223 -1.00629e-223
1.69564e-118 -5.43732e-220 -5.43732e-220
5.18423e-122 -2.79763e-216 -2.79763e-216
1.53136e-125 -1.36576e-212 -1.36576e-212
4.373e-129 -6.29764e-209 -6.29764e-209
1.20791e-132 -2.7272e-205 -2.7272e-205
3.22905e-136 -1.10093e-201 -1.10093e-201
8.3583e-140 -4.10187e-198 -4.10187e-198
2.09589e-143 -1.39118e-194 -1.39118e-194
5.09357e-147 -4.20986e-191 -4.20986e-191
1.20021e-150 -1.10203e-187 -1.10203e-187
2.74314e-154 -2.36842e-184 -2.36842e-184
6.0835e-158 -3.77312e-181 -3.77312e-181
1.30984e-161 -3.4123e-178 -3.4123e-178
8.84435e-162 -5.63385e-178 -5.63385e-178
0.0148 0 0
0.000204586 0 0
1.01765e-06 0 0
3.7196e-09 0 0
1.09208e-11 0 0
2.68074e-14 0 0
5.64352e-17 0 0
1.03584e-19 0 0
7.14475e-23 0 0
1.04274e-25 0 0
1.37899e-28 0 0
1.66483e-31 0 0
1.84462e-34 0 0
1.88642e-37 0 0
1.78934e-40 -4.51291e-307 -4.50947e-307
1.58101e-43 -5.26794e-303 -5.26794e-303
1.30615e-46 -5.88459e-299 -5.88459e-299
1.01233e-49 -6.38608e-295 -6.38608e-295
7.38272e-53 -6.73197e-291 -6.73197e-291
5.07964e-56 -6.89248e-287 -6.89248e-287
3.30536e-59 -6.8526e-283 -6.8526e-283
2.03855e-62 -6.61444e-279 -6.61444e-279
1.194e-65 -6.19701e-275 -6.19701e-275
6.65354e-69 -5.63381e-271 -5.63381e-271
3.53338e-72 -4.96838e-267 -4.96838e-267
1.79093e-75 -4.24876e-263 -4.24876e-263
8.67624e-79 -3.52179e-259 -3.52179e-259
4.02264e-82 -2.82822e-255 -2.82822e-255
1.78708e-85 -2.19926e-251 -2.19926e-251
7.61575e-89 -1.65496e-247 -1.65496e-247
3.11654e-92 -1.20431e-243 -1.20431e-243
1.22587e-95 -8.46791e-240 -8.46791e-240
4.639e-99 -5.74772e-236 -5.74772e-236
1.69036e-102 -3.76206e-232 -3.76206e-232
5.93545e-106 -2.37145e-228 -2.37145e-228
2.00989e-109 -1.43753e-224 -1.43753e-224
6.56809e-113 -8.3649e-221 -8.3649e-221
2.07272e-116 -4.66259e-217 -4.66259e-217
6.32041e-120 -2.48311e-213 -2.48311e-213
1.8634e-123 -1.25948e-209 -1.25948e-209
5.31453e-127 -6.06018e-206 -6.06018e-206
1.46705e-130 -2.75218e-202 -2.75218e-202
3.92157e-134 -1.17188e-198 -1.17188e-198
1.01557e-137 -4.63689e-195 -4.63689e-195
2.54911e-141 -1.68376e-191 -1.68376e-191
6.20399e-145 -5.50932e-188 -5.50932e-188
1.46463e-148 -1.57858e-184 -1.57858e-184
3.35525e-152 -3.77155e-181 -3.77155e-181
7.46119e-156 -6.81705e-178 -6.81705e-178
1.61144e-159 -7.1922e-175 -7.1922e-175
1.09828e-159 -1.19226e-174 -1.19226e-174
0.01 0 0
0.0001252 0 0
6.31163e-07 0 0
2.33591e-09 0 0
6.92329e-12 0 0
1.7118e-14 0 0
3.62422e-17 0 0
6.69609e-20 0 0
1.09304e-22 0 0
1.5991e-25 0 0
2.11816e-28 0 0
2.5579e-31 0 0
2.83485e-34 0 0
2.89979e-37 -0 -0
2.7512e-40 -1.50493e-304 -1.50496e-304
2.43139e-43 -1.73076e-300 -1.73076e-300
2.00911e-46 -1.93517e-296 -1.93517e-296
1.55747e-49 -2.10373e-292 -2.10373e-292
1.13604e-52 -2.22337e-288 -2.22337e-288
7.81789e-56 -2.28419e-284 -2.28419e-284
5.08805e-59 -2.28083e-280 -2.28083e-280
3.13854e-62 -2.2132e-276 -2.2132e-276
1.83857e-65 -2.08658e-272 -2.08658e-272
1.02471e-68 -1.9109e-268 -1.9109e-268
5.44257e-72 -1.69949e-264 -1.69949e-264
2.75904e-75 -1.4674e-260 -1.4674e-260
1.33683e-78 -1.22965e-256 -1.22965e-256
6.19894e-82 -9.99655e-253 -9.99655e-253
2.75429e-85 -7.88068e-249 -7.88068e-249
1.17392e-88 -6.02148e-245 -6.02148e-245
4.80462e-92 -4.45674e-241 -4.45674e-241
1.89012e-95 -3.19313e-237 -3.19313e-237
7.15362e-99 -2.21294e-233 -2.21294e-233
2.60697e-102 -1.48213e-229 -1.48213e-229
9.15515e-106 -9.58332e-226 -9.58332e-226
3.10055e-109 -5.97479e-222 -5.97479e-222
1.01335e-112 -3.58652e-218 -3.58652e-218
3.19826e-116 -2.0692e-214 -2.0692e-214
9.75375e-120 -1.14494e-210 -1.14494e-210
2.87598e-123 -6.05995e-207 -6.05995e-207
8.20343e-127 -3.05785e-203 -3.05785e-203
2.26478e-130 -1.46478e-199 -1.46478e-199
6.05469e-134 -6.62372e-196 -6.62372e-196
1.56817e-137 -2.80605e-192 -2.80605e-192
3.93658e-141 -1.10175e-188 -1.10175e-188
9.5819e-145 -3.9459e-185 -3.9459e-185
2.26235e-148 -1.25692e-181 -1.25692e-181
5.18326e-152 -3.40727e-178 -3.40727e-178
1.15275e-155 -7.18539e-175 -7.18539e-175
2.48994e-159 -9.20984e-172 -9.20984e-172
1.69719e-159 -1.53289e-171 -1.53289e-171
0.0036 0 0
4.57409e-07 0 0
4.02713e-09 0 0
2.03902e-11 0 0
7.59355e-14 0 0
2.25769e-16 0 0
5.58664e-19 0 0
1.18177e-21 0 0
2.1789e-24 0 0
3.55415e-27 0 0
5.19012e-30 0 0
6.85092e-33 0 0
8.23996e-36 0 0
9.09141e-39 0 -0
9.25479e-42 0 -8.38317e-305
8.73547e-45 0 -9.52935e-301
7.67838e-48 0 -1.05313e-296
6.30912e-51 0 -1.13143e-292
4.86233e-54 0 -1.18158e-288
3.52534e-57 0 -1.19932e-284
2.41105e-60 0 -1.183e-280
1.55924e-63 0 -1.13381e-276
9.55592e-67 0 -1.05563e-272
5.56101e-70 0 -9.54563e-269
3.07856e-73 0 -8.38117e-265
1.62397e-76 0 -7.14302e-261
8.17544e-80 0 -5.90731e-257
3.93332e-83 0 -4.73867e-253
1.81089e-86 0 -3.68546e-249
7.98787e-90 0 -2.77761e-245
3.37961e-93 0 -2.02743e-241
1.37294e-96 0 -1.43225e-237
5.36051e-100 0 -9.785e-234
2.0134e-103 0 -6.45918e-230
7.28094e-107 0 -4.11541e-226
2.53704e-110 0 -2.52774e-222
8.52458e-114 0 -1.49451e-218
2.76394e-117 0 -8.49068e-215
8.65327e-121 0 -4.62525e-211
2.61757e-124 0 -2.40949e-207
7.6548e-128 0 -1.19637e-203
2.16535e-131 0 -5.63771e-200
5.92798e-135 0 -2.50723e-196
1.57138e-138 0 -1.04431e-192
4.03509e-142 0 -4.03027e-189
1.00418e-145 0 -1.41835e-185
2.42292e-149 0 -4.43807e-182
5.67023e-153 0 -1.18142e-178
1.28754e-156 0 -2.44578e-175
2.83831e-160 0 -3.07638e-172
6.07716e-160 0 -1.5317e-171
0 0 0
1.04452e-08 0 0
1.04886e-10 0 0
5.814e-13 0 0
2.2913e-15 0 0
7.05595e-18 0 0
1.78502e-20 0 0
3.82945e-23 0 0
7.12363e-26 0 0
1.16826e-28 0 0
1.71097e-31 0 0