# vtk DataFile Version 2.0
Tobias Weinzierl: CPU, Manycore and Cluster Computing
ASCII

DATASET STRUCTURED_POINTS
DIMENSIONS  51 11 6

ORIGIN 0 0 0 

SPACING 0.1 0.1 0.1 

POINT_DATA 3366

VECTORS velocity float
0 0 0
1.45908e-09 0 0
4.58734e-09 0 0
9.54448e-09 0 0
1.42579e-08 0 0
1.10745e-08 0 0
5.09245e-09 0 0
1.65595e-09 0 0
4.30246e-10 0 0
9.564e-11 0 0
1.89184e-11 0 0
3.41267e-12 0 0
5.70661e-13 0 0
8.94701e-14 0 0
1.32578e-14 0 0
1.86727e-15 0 0
2.50945e-16 0 0
3.22674e-17 0 0
3.9772e-18 0 0
4.70556e-19 0 0
5.34958e-20 0 0
5.84902e-21 0 0
6.1553e-22 0 0
6.23957e-23 0 0
6.09727e-24 0 0
5.74822e-25 0 0
5.23235e-26 0 0
4.6023e-27 0 0
3.91489e-28 0 0
3.22316e-29 0 0
2.57044e-30 0 0
1.98718e-31 0 0
1.49041e-32 0 0
1.08526e-33 0 0
7.67784e-35 0 0
5.28111e-36 0 0
3.53417e-37 0 0
2.30256e-38 0 0
1.46139e-39 0 0
9.04112e-41 0 0
5.45544e-42 0 0
3.21243e-43 0 0
1.84702e-44 0 0
1.03744e-45 0 0
5.69554e-47 0 0
3.05767e-48 0 0
1.60595e-49 0 0
8.25572e-51 0 0
4.15618e-52 0 0
2.14822e-53 0 0
1.18838e-50 0 0
0 -1.65458e-133 0
3.39779e-09 -6.39977e-132 0
1.3132e-08 -3.14516e-130 0
3.02977e-08 -1.499e-128 0
5.55681e-08 -6.5004e-127 0
4.62023e-08 -2.34847e-125 0
2.11824e-08 -5.05733e-124 0
6.68591e-09 -5.11712e-124 0
1.68656e-09 -1.69765e-122 0
3.66128e-10 -5.69868e-121 0
7.11096e-11 -1.87658e-119 0
1.26466e-11 -6.08196e-118 0
2.0914e-12 -1.94034e-116 0
3.25054e-13 -6.09167e-115 0
4.78411e-14 -1.88127e-113 0
6.70287e-15 -5.71271e-112 0
8.9724e-16 -1.70497e-110 0
1.15031e-16 -4.99884e-109 0
1.41484e-17 -1.43907e-107 0
1.67149e-18 -4.06553e-106 0
1.89843e-19 -1.12648e-104 0
2.07447e-20 -3.05938e-103 0
2.18248e-21 -8.13859e-102 0
2.2122e-22 -2.11911e-100 0
2.16194e-23 -5.39639e-99 0
2.03859e-24 -1.34283e-97 0
1.85616e-25 -3.26206e-96 0
1.6332e-26 -7.728e-95 0
1.38979e-27 -1.78339e-93 0
1.14467e-28 -4.00381e-92 0
9.1324e-30 -8.73244e-91 0
7.06307e-31 -1.84732e-89 0
5.29956e-32 -3.78368e-88 0
3.86051e-33 -7.48814e-87 0
2.73227e-34 -1.42862e-85 0
1.88009e-35 -2.62055e-84 0
1.25865e-36 -4.60745e-83 0
8.20329e-38 -7.73678e-82 0
5.20834e-39 -1.2355e-80 0
3.22333e-40 -1.86682e-79 0
1.94561e-41 -2.6525e-78 0
1.14604e-42 -3.51727e-77 0
6.59131e-44 -4.31134e-76 0
3.70336e-45 -4.82574e-75 0
2.03372e-46 -4.85352e-74 0
1.09211e-47 -4.2908e-73 0
5.73754e-49 -3.23145e-72 0
2.95027e-50 -1.97732e-71 0
1.48562e-51 -9.09762e-71 0
7.68073e-53 -2.73052e-70 0
4.24662e-50 -1.8252e-67 0
0 -8.78183e-133 0
1.80905e-09 -3.36456e-131 0
1.58075e-08 -2.02847e-129 0
3.44867e-08 -1.2839e-127 0
9.39636e-08 -7.89644e-126 0
8.15285e-08 -4.68941e-124 0
3.68541e-08 -1.93169e-122 0
1.11665e-08 -3.30736e-123 0
2.73817e-09 -1.11919e-121 0
5.82902e-10 -3.85617e-120 0
1.11688e-10 -1.28441e-118 0
1.96763e-11 -4.20361e-117 0
3.23265e-12 -1.35442e-115 0
5.0022e-13 -4.29584e-114 0
7.34182e-14 -1.34075e-112 0
1.02711e-14 -4.11605e-111 0
1.3742e-15 -1.2424e-109 0
1.76229e-16 -3.68546e-108 0
2.16938e-17 -1.0739e-106 0
2.5661e-18 -3.07223e-105 0
2.91893e-19 -8.62416e-104 0
3.195e-20 -2.37408e-102 0
3.36735e-21 -6.40482e-101 0
3.41944e-22 -1.69219e-99 0
3.34783e-23 -4.37511e-98 0
3.16247e-24 -1.10603e-96 0
2.88447e-25 -2.73142e-95 0
2.54225e-26 -6.58291e-94 0
2.16682e-27 -1.5466e-92 0
1.7874e-28 -3.53781e-91 0
1.42811e-29 -7.86862e-90 0
1.10605e-30 -1.69905e-88 0
8.3099e-32 -3.55555e-87 0
6.06105e-33 -7.19709e-86 0
4.29482e-34 -1.406e-84 0
2.95866e-35 -2.64411e-83 0
1.98285e-36 -4.77248e-82 0
1.29366e-37 -8.23886e-81 0
8.22159e-39 -1.35473e-79 0
5.0929e-40 -2.11131e-78 0
3.07683e-41 -3.09992e-77 0
1.81391e-42 -4.2562e-76 0
1.04409e-43 -5.41382e-75 0
5.87079e-45 -6.30326e-74 0
3.22636e-46 -6.61125e-73 0
1.73379e-47 -6.11181e-72 0
9.11482e-49 -4.82639e-71 0
4.68992e-50 -3.1041e-70 0
2.3631e-51 -1.5025e-69 0
1.2225e-52 -4.7211e-69 0
6.74472e-50 -3.25543e-66 0
0 -6.70583e-134 0
-4.309e-09 -2.59506e-132 0
1.3914e-08 -1.21462e-130 0
1.56082e-08 -5.49264e-129 0
9.56114e-08 -1.78729e-127 0
4.64007e-08 -1.73355e-127 0
2.07641e-08 0 0
6.13654e-09 7.44406e-121 0
1.74549e-09 -5.74427e-121 0
4.06199e-10 -2.24781e-119 0
8.2702e-11 -7.66522e-118 0
1.52351e-11 -2.53743e-116 0
2.59116e-12 -8.26147e-115 0
4.12294e-13 -2.64872e-113 0
6.1928e-14 -8.35943e-112 0
8.8348e-15 -2.59606e-110 0
1.20208e-15 -7.93003e-109 0
1.56425e-16 -2.3816e-107 0
1.95042e-17 -7.02907e-106 0
2.33332e-18 -2.03773e-104 0
2.68091e-19 -5.79944e-103 0
2.96084e-20 -1.61945e-101 0
3.14568e-21 -4.43432e-100 0
3.21748e-22 -1.18979e-98 0
3.17073e-23 -3.12596e-97 0
3.01297e-24 -8.03571e-96 0
2.76299e-25 -2.01937e-94 0
2.44724e-26 -4.95614e-93 0
2.09532e-27 -1.18673e-91 0
1.73566e-28 -2.76905e-90 0
1.39213e-29 -6.28808e-89 0
1.08205e-30 -1.38764e-87 0
8.15668e-32 -2.97096e-86 0
5.96776e-33 -6.1597e-85 0
4.24098e-34 -1.23407e-83 0
2.92949e-35 -2.38324e-82 0
1.96831e-36 -4.42383e-81 0
1.28724e-37 -7.86632e-80 0
8.19928e-39 -1.33461e-78 0
5.08989e-40 -2.15013e-77 0
3.08119e-41 -3.27013e-76 0
1.81994e-42 -4.66139e-75 0
1.04945e-43 -6.17086e-74 0
5.91107e-45 -7.49768e-73 0
3.25379e-46 -8.23076e-72 0
1.75124e-47 -7.98892e-71 0
9.22018e-49 -6.64526e-70 0
4.75082e-50 -4.51535e-69 0
2.39702e-51 -2.31261e-68 0
1.24171e-52 -7.65337e-68 0
6.81278e-50 -5.45235e-65 0
0 -3.33972e-135 0
-1.11431e-08 -1.30543e-133 0
1.03878e-08 -4.98717e-132 0
4.11387e-10 -1.78691e-130 0
6.81339e-08 -4.06331e-129 0
0 -3.88948e-129 0
0 0 0
0 0 0
2.63645e-10 -3.05741e-119 0
1.07971e-10 -1.03167e-118 0
2.85239e-11 -3.94571e-117 0
6.161e-12 -1.33274e-115 0
1.17049e-12 -4.3859e-114 0
2.02343e-13 -1.42178e-112 0
3.24354e-14 -4.53874e-111 0
4.87715e-15 -1.42629e-109 0
6.93012e-16 -4.41048e-108 0
9.35137e-17 -1.3415e-106 0
1.20236e-17 -4.01175e-105 0
1.47663e-18 -1.179e-103 0
1.73535e-19 -3.40337e-102 0
1.95449e-20 -9.64473e-101 0
2.1124e-21 -2.68165e-99 0
2.19346e-22 -7.31092e-98 0
2.19069e-23 -1.95299e-96 0
2.10667e-24 -5.10815e-95 0
1.95268e-25 -1.30709e-93 0
1.74632e-26 -3.26915e-92 0
1.50835e-27 -7.98394e-91 0
1.25946e-28 -1.90184e-89 0
1.01759e-29 -4.41337e-88 0
7.96267e-31 -9.96329e-87 0
6.03968e-32 -2.18471e-85 0
4.44428e-33 -4.64482e-84 0
3.17518e-34 -9.55533e-83 0
2.20418e-35 -1.8976e-81 0
1.48784e-36 -3.6279e-80 0
9.77248e-38 -6.65583e-79 0
6.25005e-39 -1.1673e-77 0
3.8947e-40 -1.94801e-76 0
2.36617e-41 -3.076e-75 0
1.40235e-42 -4.56378e-74 0
8.11251e-44 -6.30596e-73 0
4.58329e-45 -8.02164e-72 0
2.53018e-46 -9.2507e-71 0
1.36551e-47 -9.46716e-70 0
7.20803e-49 -8.33545e-69 0
3.72323e-50 -6.01759e-68 0
1.88299e-51 -3.28234e-67 0
9.77724e-53 -1.15211e-66 0
5.31067e-50 -8.49266e-64 0
0 -6.97384e-136 0
-1.20772e-08 -2.73068e-134 0
3.26437e-09 -8.54216e-133 0
3.89798e-09 -2.46956e-131 0
3.9409e-08 -5.03382e-130 0
2.92863e-08 -4.79513e-130 0
0 0 0
0 0 0
0 0 0
1.41847e-11 1.11647e-117 0
6.03941e-12 -1.58932e-116 0
1.67517e-12 -5.9373e-115 0
3.77904e-13 -1.97552e-113 0
7.43167e-14 -6.47657e-112 0
1.31759e-14 -2.09175e-110 0
2.14772e-15 -6.65316e-109 0
3.25918e-16 -2.08326e-107 0
4.64328e-17 -6.4193e-106 0
6.2472e-18 -1.94575e-104 0
7.97176e-19 -5.79892e-103 0
9.67937e-20 -1.6985e-101 0
1.12122e-20 -4.88682e-100 0
1.24169e-21 -1.38035e-98 0
1.31711e-22 -3.82556e-97 0
1.34039e-23 -1.03961e-95 0
1.31064e-24 -2.76826e-94 0
1.23306e-25 -7.21725e-93 0
1.11759e-26 -1.84077e-91 0
9.77026e-28 -4.58864e-90 0
8.24802e-29 -1.1168e-88 0
6.731e-30 -2.65074e-87 0
5.31544e-31 -6.1277e-86 0
4.06581e-32 -1.37761e-84 0
3.01512e-33 -3.00698e-83 0
2.16965e-34 -6.36022e-82 0
1.51622e-35 -1.30073e-80 0
1.02983e-36 -2.56541e-79 0
6.80339e-38 -4.86462e-78 0
4.37476e-39 -8.83665e-77 0
2.73999e-40 -1.53095e-75 0
1.67259e-41 -2.51613e-74 0
9.95747e-43 -3.89656e-73 0
5.78474e-44 -5.63755e-72 0
3.28126e-45 -7.53557e-71 0
1.81825e-46 -9.16738e-70 0
9.8481e-48 -9.94011e-69 0
5.21615e-49 -9.31621e-68 0
2.70306e-50 -7.19327e-67 0
1.37125e-51 -4.21129e-66 0
7.14185e-53 -1.58136e-65 0
3.83541e-50 -1.20813e-62 0
0 -1.44063e-134 0
-7.89426e-09 -5.57713e-133 0
-8.41866e-10 -1.90615e-131 0
1.5375e-08 -6.2148e-130 0
2.82383e-08 -1.75361e-128 0
1.03935e-07 -3.52396e-127 0
7.1801e-08 -3.35463e-127 0
0 0 0
0 0 0
0 0 0
7.21127e-13 -5.99914e-116 0
6.54178e-13 -2.16169e-114 0
2.14081e-13 -7.27678e-113 0
5.00201e-14 -2.41299e-111 0
9.71282e-15 -7.88593e-110 0
1.6669e-15 -2.53919e-108 0
2.60841e-16 -8.05257e-107 0
3.7883e-17 -2.51431e-105 0
5.16222e-18 -7.72648e-104 0
6.64681e-19 -2.33586e-102 0
8.1257e-20 -6.94426e-101 0
9.46422e-21 -2.02915e-99 0
1.05301e-21 -5.82496e-98 0
1.12159e-22 -1.64182e-96 0
1.14569e-23 -4.54098e-95 0
1.12415e-24 -1.23165e-93 0
1.06101e-25 -3.27362e-92 0
9.64565e-27 -8.51988e-91 0
8.45651e-28 -2.16934e-89 0
7.15812e-29 -5.39873e-88 0
5.85637e-30 -1.31178e-86 0
4.63581e-31 -3.10821e-85 0
3.55399e-32 -7.17214e-84 0
2.6412e-33 -1.60916e-82 0
1.90443e-34 -3.50416e-81 0
1.33342e-35 -7.39108e-80 0
9.07319e-37 -1.50632e-78 0
6.00438e-38 -2.95782e-77 0
3.86728e-39 -5.57683e-76 0
2.4259e-40 -1.00546e-74 0
1.48305e-41 -1.72461e-73 0
8.84146e-43 -2.79637e-72 0
5.14326e-44 -4.25139e-71 0
2.92111e-45 -5.99585e-70 0
1.62065e-46 -7.73157e-69 0
8.78802e-48 -8.9319e-68 0
4.65983e-49 -8.97024e-67 0
2.41733e-50 -7.46647e-66 0
1.22754e-51 -4.73631e-65 0
6.39988e-53 -1.9234e-64 0
3.43964e-50 -1.52572e-61 0
0 -3.18774e-133 0
-3.80629e-09 -1.22273e-131 0
2.33521e-09 -4.52791e-130 0
2.1045e-08 -1.60512e-128 0
4.02634e-08 -5.19342e-127 0
1.67351e-07 -1.41054e-125 0
1.81153e-07 -2.60349e-124 0
3.47775e-08 -2.46747e-124 0
0 0 0
0 0 0
0 -1.7149e-115 0
2.79893e-12 -6.0874e-114 0
7.6792e-13 -2.07024e-112 0
1.50967e-13 -6.94361e-111 0
2.53716e-14 -2.29625e-109 0
3.86186e-15 -7.48505e-108 0
5.46701e-16 -2.40426e-106 0
7.30041e-17 -7.60737e-105 0
9.27052e-18 -2.37031e-103 0
1.12487e-18 -7.26991e-102 0
1.30805e-19 -2.19399e-100 0
1.46046e-20 -6.51234e-99 0
1.56772e-21 -1.90035e-97 0
1.61958e-22 -5.44889e-96 0
1.61167e-23 -1.53435e-94 0
1.54613e-24 -4.2406e-93 0
1.43107e-25 -1.14957e-91 0
1.27903e-26 -3.05447e-90 0
1.10472e-27 -7.94859e-89 0
9.22866e-29 -2.02403e-87 0
7.46256e-30 -5.0384e-86 0
5.84592e-31 -1.22472e-84 0
4.43994e-32 -2.90344e-83 0
3.27189e-33 -6.70345e-82 0
2.34123e-34 -1.50482e-80 0
1.62792e-35 -3.27831e-79 0
1.1007e-36 -6.91554e-78 0
7.24198e-38 -1.40887e-76 0
4.63958e-39 -2.76321e-75 0
2.89607e-40 -5.19738e-74 0
1.76244e-41 -9.33096e-73 0
1.04629e-42 -1.58944e-71 0
6.06263e-44 -2.54923e-70 0
3.4307e-45 -3.81083e-69 0
1.89689e-46 -5.23701e-68 0
1.02531e-47 -6.48788e-67 0
5.42039e-49 -7.03669e-66 0
2.80396e-50 -6.37445e-65 0
1.42011e-51 -4.43295e-64 0
7.38451e-53 -1.97421e-63 0
4.02937e-50 -1.62923e-60 0
0 -5.48105e-132 0
-4.95638e-10 -2.08382e-130 0
6.76421e-09 -8.22154e-129 0
2.36149e-08 -3.09788e-127 0
6.37838e-08 -1.10349e-125 0
1.68387e-07 -3.58049e-124 0
1.77807e-07 -9.88598e-123 0
6.1927e-08 -1.96138e-121 0
4.7915e-09 -1.86599e-121 0
7.44213e-10 0 0
1.20994e-10 -3.33463e-115 0
2.07654e-11 -1.19521e-113 0
3.25544e-12 -4.10813e-112 0
4.76178e-13 -1.39317e-110 0
6.58797e-14 -4.66044e-109 0
8.70025e-15 -1.53744e-107 0
1.10343e-15 -5.00032e-106 0
1.34915e-16 -1.60287e-104 0
1.59379e-17 -5.06244e-103 0
1.82108e-18 -1.57485e-101 0
2.01339e-19 -4.82372e-100 0
2.15393e-20 -1.45419e-98 0
2.2294e-21 -4.31294e-97 0
2.23228e-22 -1.25791e-95 0
2.16222e-23 -3.60607e-94 0
2.02619e-24 -1.01555e-92 0
1.83733e-25 -2.80804e-91 0
1.61274e-26 -7.61833e-90 0
1.37086e-27 -2.0266e-88 0
1.129e-28 -5.2819e-87 0
9.01384e-30 -1.34756e-85 0
6.98061e-31 -3.36215e-84 0
5.24704e-32 -8.19433e-83 0
3.83041e-33 -1.94845e-81 0
2.71744e-34 -4.51344e-80 0
1.87471e-35 -1.0168e-78 0
1.25845e-36 -2.22333e-77 0
8.2249e-38 -4.70747e-76 0
5.23693e-39 -9.62385e-75 0
3.25034e-40 -1.89312e-73 0
1.96756e-41 -3.56781e-72 0
1.16229e-42 -6.40691e-71 0
6.70376e-44 -1.08856e-69 0
3.77711e-45 -1.73355e-68 0
2.07996e-46 -2.55446e-67 0
1.11998e-47 -3.41904e-66 0
5.89962e-49 -4.04197e-65 0
3.04153e-50 -4.0316e-64 0
1.5355e-51 -3.11943e-63 0
7.9593e-53 -1.5519e-62 0
4.40553e-50 -1.33533e-59 0
0 -5.4773e-131 0
1.23608e-09 -2.06512e-129 0
6.9074e-09 -8.43884e-128 0
2.05839e-08 -3.32922e-126 0
5.56218e-08 -1.29913e-124 0
1.01703e-07 -5.01421e-123 0
8.82429e-08 -1.91427e-121 0
3.5196e-08 -7.22907e-120 0
6.71986e-09 -2.70051e-118 0
1.10858e-09 -9.97843e-117 0
1.82296e-10 -3.64393e-115 0
2.77626e-11 -1.28154e-113 0
3.97424e-12 -4.44651e-112 0
5.40505e-13 -1.52285e-110 0
7.03978e-14 -5.14695e-109 0
8.8322e-15 -1.71631e-107 0
1.07174e-15 -5.6453e-106 0
1.26102e-16 -1.83109e-104 0
1.44058e-17 -5.85523e-103 0
1.59854e-18 -1.84528e-101 0
1.7227e-19 -5.72962e-100 0
1.80218e-20 -1.75223e-98 0
1.82916e-21 -5.27596e-97 0
1.80034e-22 -1.56347e-95 0
1.71769e-23 -4.55794e-94 0
1.58832e-24 -1.30661e-92 0
1.42336e-25 -3.6813e-91 0
1.2363e-26 -1.01883e-89 0
1.04105e-27 -2.76809e-88 0
8.50176e-29 -7.3782e-87 0
6.73624e-30 -1.92791e-85 0
5.18091e-31 -4.93432e-84 0
3.86993e-32 -1.23582e-82 0
2.80897e-33 -3.02554e-81 0
1.98237e-34 -7.23137e-80 0
1.36102e-35 -1.68492e-78 0
9.09561e-37 -3.82058e-77 0
5.92023e-38 -8.41365e-76 0
3.75514e-39 -1.79503e-74 0
2.32238e-40 -3.69889e-73 0
1.40118e-41 -7.33406e-72 0
8.25158e-43 -1.39251e-70 0
4.74548e-44 -2.51597e-69 0
2.66648e-45 -4.28952e-68 0
1.46461e-46 -6.8207e-67 0
7.86735e-48 -9.94469e-66 0
4.1348e-49 -1.29524e-64 0
2.1271e-50 -1.44268e-63 0
1.07167e-51 -1.26569e-62 0
5.54384e-53 -7.21387e-62 0
3.0941e-50 -6.48695e-59 0
0 0 0
7.06235e-10 0 0
2.84793e-09 0 0
8.00042e-09 0 0
1.80962e-08 0 0
2.6018e-08 0 0
1.97879e-08 0 0
8.04652e-09 0 0
1.92837e-09 0 0
3.64362e-10 0 0
6.13017e-11 0 0
9.44883e-12 0 0
1.3593e-12 0 0
1.84905e-13 0 0
2.40105e-14 0 0
2.99679e-15 0 0
3.61243e-16 0 0
4.21871e-17 0 0
4.7815e-18 0 0
5.26363e-19 0 0
5.62839e-20 0 0
5.84434e-21 0 0
5.8904e-22 0 0
5.75996e-23 0 0
5.46266e-24 0 0
5.0235e-25 0 0
4.47916e-26 0 0
3.87267e-27 0 0
3.24739e-28 0 0
2.64181e-29 0 0
2.08584e-30 0 0
1.59907e-31 0 0
1.1909e-32 0 0
8.62046e-34 0 0
6.06832e-35 0 0
4.15651e-36 0 0
2.77174e-37 0 0
1.80045e-38 0 0
1.13985e-39 0 0
7.03706e-41 0 0
4.23873e-42 0 0
2.49233e-43 0 0
1.43125e-44 0 0
8.0312e-46 0 0
4.40557e-47 0 0
2.36363e-48 0 0
1.24081e-49 0 0
6.37624e-51 0 0
3.20913e-52 0 0
1.65841e-53 0 0
9.29332e-51 0 0
0 0 -2.46029e-134
3.71707e-09 0 -9.45694e-133
1.36802e-08 0 -4.65402e-131
3.12442e-08 0 -2.18005e-129
5.33465e-08 0 -9.13152e-128
4.50737e-08 0 -3.0626e-126
2.11263e-08 0 -5.78656e-125
6.79293e-09 0 -2.84068e-124
1.73495e-09 0 -9.57506e-123
3.79788e-10 0 -3.1991e-121
7.41849e-11 0 -1.05099e-119
1.32449e-11 0 -3.39907e-118
2.19593e-12 0 -1.08211e-116
3.41824e-13 0 -3.38987e-115
5.0347e-14 0 -1.04455e-113
7.05504e-15 0 -3.16468e-112
9.44102e-16 0 -9.42302e-111
1.20964e-16 0 -2.75616e-109
1.48657e-17 0 -7.91504e-108
1.75451e-18 0 -2.23049e-106
1.99061e-19 0 -6.16443e-105
2.17282e-20 0 -1.66978e-103
2.28344e-21 0 -4.42999e-102
2.31205e-22 0 -1.15029e-100
2.25716e-23 0 -2.92096e-99
2.12624e-24 0 -7.24736e-98
1.93412e-25 0 -1.75532e-96
1.70025e-26 0 -4.14576e-95
1.44559e-27 0 -9.53716e-94
1.18967e-28 0 -2.13427e-92
9.48409e-30 0 -4.63954e-91
7.32976e-31 0 -9.78151e-90
5.49588e-32 0 -1.99648e-88
4.00094e-33 0 -3.93704e-87
2.82992e-34 0 -7.48371e-86
1.94616e-35 0 -1.36757e-84
1.30217e-36 0 -2.39516e-83
8.48249e-38 0 -4.00591e-82
5.38296e-39 0 -6.37097e-81
3.32983e-40 0 -9.58596e-80
2.00901e-41 0 -1.35616e-78
1.18288e-42 0 -1.79034e-77
6.80043e-44 0 -2.18456e-76
3.81939e-45 0 -2.43382e-75
2.09667e-46 0 -2.43616e-74
1.12552e-47 0 -2.14325e-73
5.91106e-49 0 -1.60616e-72
3.03851e-50 0 -9.77978e-72
1.52959e-51 0 -4.47832e-71
7.9056e-53 0 -1.33866e-70
4.37775e-50 0 -8.92265e-68
0.0036 -1.69533e-133 -3.31463e-134
0.00498631 -1.85952e-129 -5.4713e-130
0.00501149 -1.03177e-127 -4.68528e-128
0.00443221 -6.60368e-126 -4.01945e-126
0.00344089 -4.29192e-124 -3.10627e-124
0.00162525 -2.97557e-122 -2.02557e-122
0.000511225 -7.31584e-121 -5.8702e-121
0.000123657 -7.04178e-121 -7.00393e-121
2.55693e-05 -2.37083e-119 -2.37077e-119
4.75179e-06 -8.09716e-118 -8.09697e-118
8.13434e-07 -2.71125e-116 -2.71122e-116
1.30133e-07 -8.93632e-115 -8.9363e-115
1.96429e-08 -2.90029e-113 -2.90029e-113
2.81617e-09 -9.26612e-112 -9.26612e-112
3.85258e-10 -2.91319e-110 -2.91319e-110
5.04501e-11 -9.00907e-109 -9.00907e-109
6.33767e-12 -2.73935e-107 -2.73935e-107
7.64888e-13 -8.18602e-106 -8.18602e-106
8.87814e-14 -2.40296e-104 -2.40296e-104
9.91861e-15 -6.92539e-103 -6.92539e-103
1.06728e-15 -1.95849e-101 -1.95849e-101
1.10683e-16 -5.4315e-100 -5.4315e-100
1.10697e-17 -1.47623e-98 -1.47623e-98
1.06837e-18 -3.92937e-97 -3.92937e-97
9.95723e-20 -1.02351e-95 -1.02351e-95
8.9679e-21 -2.60676e-94 -2.60676e-94
7.81076e-22 -6.48563e-93 -6.48563e-93
6.58363e-23 -1.57475e-91 -1.57475e-91
5.37439e-24 -3.72732e-90 -3.72732e-90
4.25212e-25 -8.58969e-89 -8.58969e-89
3.26296e-26 -1.92468e-87 -1.92468e-87
2.43031e-27 -4.18674e-86 -4.18674e-86
1.75817e-28 -8.82632e-85 -8.82632e-85
1.23626e-29 -1.79978e-83 -1.79978e-83
8.45464e-31 -3.54182e-82 -3.54182e-82
5.62732e-32 -6.70939e-81 -6.70939e-81
3.64756e-33 -1.21982e-79 -1.21982e-79
2.30387e-34 -2.12101e-78 -2.12101e-78
1.41882e-35 -3.51261e-77 -3.51261e-77
8.52416e-37 -5.51322e-76 -5.51322e-76
4.99884e-38 -8.15172e-75 -8.15172e-75
2.86292e-39 -1.12702e-73 -1.12702e-73
1.6021e-40 -1.44339e-72 -1.44339e-72
8.76445e-42 -1.69189e-71 -1.69189e-71
4.68939e-43 -1.78634e-70 -1.78634e-70
2.45506e-44 -1.6621e-69 -1.6621e-69
1.25821e-45 -1.32078e-68 -1.32078e-68
6.31492e-47 -8.54575e-68 -8.54575e-68
3.10551e-48 -4.15949e-67 -4.15949e-67
1.56722e-49 -1.31298e-66 -1.31298e-66
1.5644e-49 -1.93947e-66 -1.93947e-66
0.01 -8.65733e-133 -9.74408e-135
0.0111653 -9.53329e-129 -2.55452e-130
0.0109435 -5.14538e-127 -3.5864e-128
0.00982029 -3.76712e-125 -4.10242e-126
0.00867884 -2.14663e-123 -6.47497e-124
0.0036791 -6.19139e-121 -3.44121e-121
0.00104342 -2.84785e-119 -2.26869e-119
0.000229319 -4.68933e-120 -4.7373e-120
4.44365e-05 -1.58777e-118 -1.58989e-118
7.91063e-06 -5.56534e-117 -5.56621e-117
1.31569e-06 -1.88535e-115 -1.88535e-115
2.0639e-07 -6.27723e-114 -6.27719e-114
3.07377e-08 -2.05825e-112 -2.05825e-112
4.36694e-09 -6.64586e-111 -6.64586e-111
5.93858e-10 -2.11239e-109 -2.11239e-109
7.74821e-11 -6.60696e-108 -6.60696e-108
9.7142e-12 -2.03263e-106 -2.03263e-106
1.1715e-12 -6.14828e-105 -6.14828e-105
1.35993e-13 -1.82764e-103 -1.82764e-103
1.52041e-14 -5.33645e-102 -5.33645e-102
1.6379e-15 -1.52971e-100 -1.52971e-100
1.70102e-16 -4.3024e-99 -4.3024e-99
1.70393e-17 -1.18656e-97 -1.18656e-97
1.64729e-18 -3.20669e-96 -3.20669e-96
1.53791e-19 -8.48585e-95 -8.48585e-95
1.38749e-20 -2.19715e-93 -2.19715e-93
1.21051e-21 -5.56124e-92 -5.56124e-92
1.02201e-22 -1.37473e-90 -1.37473e-90
8.35627e-24 -3.31543e-89 -3.31543e-89
6.62149e-25 -7.79161e-88 -7.79161e-88
5.08865e-26 -1.78203e-86 -1.78203e-86
3.79546e-27 -3.96065e-85 -3.96065e-85
2.74947e-28 -8.54015e-84 -8.54015e-84
1.93577e-29 -1.78319e-82 -1.78319e-82
1.32548e-30 -3.59775e-81 -3.59775e-81
8.83259e-32 -6.99671e-80 -6.99671e-80
5.73155e-33 -1.3078e-78 -1.3078e-78
3.62402e-34 -2.34157e-77 -2.34157e-77
2.23409e-35 -3.99999e-76 -3.99999e-76
1.34352e-36 -6.48798e-75 -6.48798e-75
7.88616e-38 -9.93388e-74 -9.93388e-74
4.52053e-39 -1.42542e-72 -1.42542e-72
2.53185e-40 -1.89934e-71 -1.89934e-71
1.38619e-41 -2.32258e-70 -2.32258e-70
7.42253e-43 -2.56575e-69 -2.56575e-69
3.88884e-44 -2.5057e-68 -2.5057e-68
1.99443e-45 -2.09672e-67 -2.09672e-67
1.00169e-46 -1.43283e-66 -1.43283e-66
4.92926e-48 -7.37738e-66 -7.37738e-66
2.48923e-49 -2.45222e-65 -2.45222e-65
2.48473e-49 -3.67426e-65 -3.67426e-65
0.0148 -5.91764e-134 -1.32888e-133
0.0165881 -8.57962e-130 2.02685e-129
0.0167656 -2.57203e-128 -7.58468e-128
0.01487 -1.72499e-126 1.8761e-126
0.0156118 -4.17253e-125 -5.34749e-124
0.00239124 -4.00252e-125 -3.24865e-121
0.000643914 0 -2.21154e-119
0.00013438 1.11646e-117 8.60861e-118
2.8902e-05 -8.28636e-118 -8.48031e-118
5.5266e-06 -3.29758e-116 -3.30705e-116
9.68992e-07 -1.14396e-114 -1.14427e-114
1.58335e-07 -3.85373e-113 -3.85371e-113
2.43647e-08 -1.27733e-111 -1.27733e-111
3.55607e-09 -4.17068e-110 -4.17067e-110
4.9469e-10 -1.34105e-108 -1.34105e-108
6.58098e-11 -4.24483e-107 -4.24483e-107
8.39095e-12 -1.32217e-105 -1.32217e-105
1.02695e-12 -4.05088e-104 -4.05088e-104
1.20773e-13 -1.22026e-102 -1.22026e-102
1.36593e-14 -3.61243e-101 -3.61243e-101
1.48672e-15 -1.05043e-99 -1.05043e-99
1.55833e-16 -2.99862e-98 -2.99862e-98
1.57404e-17 -8.39864e-97 -8.39864e-97
1.5332e-18 -2.30651e-95 -2.30651e-95
1.44122e-19 -6.2067e-94 -6.2067e-94
1.30838e-20 -1.63531e-92 -1.63531e-92
1.14801e-21 -4.21516e-91 -4.21516e-91
9.74333e-23 -1.06197e-89 -1.06197e-89
8.00492e-24 -2.61251e-88 -2.61251e-88
6.37139e-25 -6.26863e-87 -6.26863e-87
4.91668e-26 -1.46527e-85 -1.46527e-85
3.68128e-27 -3.33187e-84 -3.33187e-84
2.67629e-28 -7.35874e-83 -7.35874e-83
1.89054e-29 -1.57576e-81 -1.57576e-81
1.29855e-30 -3.26485e-80 -3.26485e-80
8.67848e-32 -6.52975e-79 -6.52975e-79
5.64705e-33 -1.25719e-77 -1.25719e-77
3.57984e-34 -2.32262e-76 -2.32262e-76
2.21223e-35 -4.10166e-75 -4.10166e-75
1.33345e-36 -6.89194e-74 -6.89194e-74
7.84411e-38 -1.09565e-72 -1.09565e-72
4.50572e-39 -1.63646e-71 -1.63646e-71
2.52851e-40 -2.27607e-70 -2.27607e-70
1.38694e-41 -2.91408e-69 -2.91408e-69
7.43971e-43 -3.38188e-68 -3.38188e-68
3.90442e-44 -3.48242e-67 -3.48242e-67
2.00565e-45 -3.08451e-66 -3.08451e-66
1.00887e-46 -2.23956e-65 -2.23956e-65
4.97189e-48 -1.2281e-64 -1.2281e-64
2.51444e-49 -4.32987e-64 -4.32987e-64
2.50987e-49 -6.58929e-64 -6.58929e-64
0.018 -2.19787e-135 -2.56596e-132
0.0202029 -5.41702e-131 2.89787e-128
0.021194 -7.47659e-130 -1.34239e-126
0.0181574 -6.20394e-128 5.77866e-125
0.0219548 -8.01502e-127 -6.34431e-123
0 -7.40156e-127 -6.40347e-123
0 0 0
0 0 8.64973e-118
3.79378e-06 -4.65713e-116 -3.67741e-116
1.32192e-06 -1.5387e-115 -1.57499e-115
3.08437e-07 -5.98818e-114 -6.00163e-114
6.00842e-08 -2.05905e-112 -2.05906e-112
1.04434e-08 -6.90087e-111 -6.90087e-111
1.66861e-09 -2.27917e-109 -2.27917e-109
2.49037e-10 -7.41582e-108 -7.41582e-108
3.5051e-11 -2.37631e-106 -2.37631e-106
4.68032e-12 -7.49634e-105 -7.49634e-105
5.95278e-13 -2.32719e-103 -2.32719e-103
7.23172e-14 -7.10681e-102 -7.10681e-102
8.40886e-15 -2.13395e-100 -2.13395e-100
9.37378e-16 -6.29735e-99 -6.29735e-99
1.00317e-16 -1.82546e-97 -1.82546e-97
1.03192e-17 -5.19508e-96 -5.19508e-96
1.02147e-18 -1.45064e-94 -1.45064e-94
9.74043e-20 -3.97184e-93 -3.97184e-93
8.95675e-21 -1.06558e-91 -1.06558e-91
7.95018e-22 -2.79901e-90 -2.79901e-90
6.81829e-23 -7.19252e-89 -7.19252e-89
5.65526e-24 -1.80638e-87 -1.80638e-87
4.54046e-25 -4.42928e-86 -4.42928e-86
3.53181e-26 -1.05914e-84 -1.05914e-84
2.66384e-27 -2.46658e-83 -2.46658e-83
1.94978e-28 -5.58632e-82 -5.58632e-82
1.38601e-29 -1.22832e-80 -1.22832e-80
9.57578e-31 -2.61709e-79 -2.61709e-79
6.43461e-32 -5.39112e-78 -5.39112e-78
4.20831e-33 -1.07094e-76 -1.07094e-76
2.68051e-34 -2.04527e-75 -2.04527e-75
1.6639e-35 -3.74154e-74 -3.74154e-74
1.00716e-36 -6.52758e-73 -6.52758e-73
5.94822e-38 -1.08022e-71 -1.08022e-71
3.42951e-39 -1.68424e-70 -1.68424e-70
1.93138e-40 -2.45307e-69 -2.45307e-69
1.06296e-41 -3.30049e-68 -3.30049e-68
5.71998e-43 -4.04098e-67 -4.04098e-67
3.01097e-44 -4.40901e-66 -4.40901e-66
1.55114e-45 -4.15729e-65 -4.15729e-65
7.82379e-47 -3.22853e-64 -3.22853e-64
3.86577e-48 -1.90032e-63 -1.90032e-63
1.96012e-49 -7.16823e-63 -7.16823e-63
1.95652e-49 -1.10952e-62 -1.10952e-62
0.0196 -5.79082e-136 7.05634e-133
0.0220727 -9.14056e-132 -5.01744e-129
0.0232597 -2.20898e-130 7.24161e-128
0.020437 -9.06742e-129 -4.64529e-126
0.0237541 -2.6203e-127 -2.44107e-123
0.00732685 -2.53175e-127 -2.12387e-121
0 0 -2.09951e-121
0 0 0
0 0 -3.60639e-116
1.57673e-07 1.73538e-114 1.20091e-114
6.00927e-08 -2.45333e-113 -2.5056e-113
1.51777e-08 -9.33256e-112 -9.33281e-112
3.15447e-09 -3.16366e-110 -3.16366e-110
5.76555e-10 -1.05715e-108 -1.05715e-108
9.56207e-11 -3.48156e-107 -3.48156e-107
1.46491e-11 -1.1297e-105 -1.1297e-105
2.09658e-12 -3.61043e-104 -3.61043e-104
2.82451e-13 -1.13607e-102 -1.13607e-102
3.60113e-14 -3.51835e-101 -3.51835e-101
4.36238e-15 -1.07196e-99 -1.07196e-99
5.03659e-16 -3.21172e-98 -3.21172e-98
5.55598e-17 -9.4582e-97 -9.4582e-97
5.86817e-18 -2.73635e-95 -2.73635e-95
5.94499e-19 -7.77301e-94 -7.77301e-94
5.78635e-20 -2.16671e-92 -2.16671e-92
5.41875e-21 -5.92273e-91 -5.92273e-91
4.88896e-22 -1.58651e-89 -1.58651e-89
4.255e-23 -4.16125e-88 -4.16125e-88
3.57644e-24 -1.06779e-86 -1.06779e-86
2.90635e-25 -2.678e-85 -2.678e-85
2.28579e-26 -6.55736e-84 -6.55736e-84
1.74156e-27 -1.56573e-82 -1.56573e-82
1.28663e-28 -3.64061e-81 -3.64061e-81
9.22488e-30 -8.2305e-80 -8.2305e-80
6.42419e-31 -1.8059e-78 -1.8059e-78
4.34879e-32 -3.83773e-77 -3.83773e-77
2.86375e-33 -7.8798e-76 -7.8798e-76
1.8358e-34 -1.55872e-74 -1.55872e-74
1.1464e-35 -2.96039e-73 -2.96039e-73
6.97826e-37 -5.37592e-72 -5.37592e-72
4.14309e-38 -9.2867e-71 -9.2867e-71
2.40063e-39 -1.51635e-69 -1.51635e-69
1.35829e-40 -2.32122e-68 -2.32122e-68
7.50861e-42 -3.29575e-67 -3.29575e-67
4.05743e-43 -4.27782e-66 -4.27782e-66
2.14428e-44 -4.97359e-65 -4.97359e-65
1.10881e-45 -5.02583e-64 -5.02583e-64
5.61268e-47 -4.20802e-63 -4.20802e-63
2.78268e-48 -2.68403e-62 -2.68403e-62
1.4157e-49 -1.09508e-61 -1.09508e-61
1.41307e-49 -1.72665e-61 -1.72665e-61
0.0196 -1.279e-134 5.08718e-133
0.0222605 -1.82517e-130 -2.83312e-129
0.0229173 -7.00895e-129 5.89976e-128
0.0213662 -2.82304e-127 5.40526e-126
0.021574 -1.06084e-125 -2.40796e-124
0.0167049 -3.73779e-124 1.06311e-121
0.0041176 -3.63446e-124 -2.335e-119
0 0 -2.34565e-119
0 0 0
0 0 1.33018e-114
6.66417e-09 -9.42596e-113 -9.33819e-113
5.49771e-09 -3.45708e-111 -3.45755e-111
1.67494e-09 -1.18611e-109 -1.18611e-109
3.67449e-10 -4.01067e-108 -4.01067e-108
6.7359e-11 -1.33717e-106 -1.33717e-106
1.09528e-11 -4.39453e-105 -4.39453e-105
1.62772e-12 -1.42317e-103 -1.42317e-103
2.24867e-13 -4.54024e-102 -4.54024e-102
2.91802e-14 -1.42634e-100 -1.42634e-100
3.58127e-15 -4.41095e-99 -4.41095e-99
4.17667e-16 -1.34223e-97 -1.34223e-97
4.64498e-17 -4.01719e-96 -4.01719e-96
4.93935e-18 -1.182e-94 -1.182e-94
5.03316e-19 -3.41736e-93 -3.41736e-93
4.92383e-20 -9.70304e-92 -9.70304e-92
4.63194e-21 -2.70402e-90 -2.70402e-90
4.19614e-22 -7.39116e-89 -7.39116e-89
3.66556e-23 -1.98018e-87 -1.98018e-87
3.09146e-24 -5.19571e-86 -5.19571e-86
2.52008e-25 -1.33398e-84 -1.33398e-84
1.98772e-26 -3.34802e-83 -3.34802e-83
1.51851e-27 -8.20509e-82 -8.20509e-82
1.12464e-28 -1.96106e-80 -1.96106e-80
8.08219e-30 -4.56446e-79 -4.56446e-79
5.64066e-31 -1.03292e-77 -1.03292e-77
3.82617e-32 -2.26826e-76 -2.26826e-76
2.52442e-33 -4.82281e-75 -4.82281e-75
1.6212e-34 -9.90243e-74 -9.90243e-74
1.01411e-35 -1.95722e-72 -1.95722e-72
6.18286e-37 -3.70957e-71 -3.70957e-71
3.67642e-38 -6.71007e-70 -6.71007e-70
2.13329e-39 -1.15147e-68 -1.15147e-68
1.20867e-40 -1.8602e-67 -1.8602e-67
6.69016e-42 -2.80054e-66 -2.80054e-66
3.61961e-43 -3.87525e-65 -3.87525e-65
1.91514e-44 -4.83306e-64 -4.83306e-64
9.91422e-46 -5.27577e-63 -5.27577e-63
5.02384e-47 -4.8087e-62 -4.8087e-62
2.49327e-48 -3.36329e-61 -3.36329e-61
1.26975e-49 -1.50519e-60 -1.50519e-60
1.26739e-49 -2.42188e-60 -2.42188e-60
0.018 -2.81618e-133 -2.56798e-132
0.0204708 -5.33764e-129 2.82291e-128
0.0205832 -2.35171e-127 -1.20016e-126
0.0194818 -1.01886e-125 5.7403e-125
0.0183417 -4.19183e-124 -3.19418e-123
0.0165823 -1.51633e-122 1.52972e-121
0.00811857 -3.68504e-121 7.85148e-120
0.000874895 -3.5375e-121 4.95026e-117
0 0 4.94256e-117
0 0 0
0 -2.73832e-112 -2.71691e-112
2.51635e-08 -9.90225e-111 -9.90011e-111
6.35683e-09 -3.43399e-109 -3.434e-109
1.1642e-09 -1.175e-107 -1.175e-107
1.83788e-10 -3.96603e-106 -3.96603e-106
2.64276e-11 -1.3202e-104 -1.3202e-104
3.54758e-12 -4.33275e-103 -4.33275e-103
4.50287e-13 -1.40153e-101 -1.40153e-101
5.44327e-14 -4.46702e-100 -4.46702e-100
6.29382e-15 -1.40237e-98 -1.40237e-98
6.9796e-16 -4.33491e-97 -4.33491e-97
7.43715e-17 -1.31887e-95 -1.31887e-95
7.62485e-18 -3.94773e-94 -3.94773e-94
7.52977e-19 -1.16204e-92 -1.16204e-92
7.16932e-20 -3.36209e-91 -3.36209e-91
6.58733e-21 -9.55615e-90 -9.55615e-90
5.84592e-22 -2.66678e-88 -2.66678e-88
5.01505e-23 -7.30209e-87 -7.30209e-87
4.16235e-24 -1.96044e-85 -1.96044e-85
3.34502e-25 -5.15663e-84 -5.15663e-84
2.60497e-26 -1.32771e-82 -1.32771e-82
1.9674e-27 -3.34301e-81 -3.34301e-81
1.44211e-28 -8.22212e-80 -8.22212e-80
1.0267e-29 -1.97281e-78 -1.97281e-78
7.10465e-31 -4.61112e-77 -4.61112e-77
4.78182e-32 -1.0481e-75 -1.0481e-75
3.13249e-33 -2.31211e-74 -2.31211e-74
1.99853e-34 -4.93842e-73 -4.93842e-73
1.24259e-35 -1.01835e-71 -1.01835e-71
7.53353e-37 -2.02032e-70 -2.02032e-70
4.45632e-38 -3.83952e-69 -3.83952e-69
2.57336e-39 -6.95169e-68 -6.95169e-68
1.45145e-40 -1.19065e-66 -1.19065e-66
8.00022e-42 -1.91104e-65 -1.91104e-65
4.31138e-43 -2.83749e-64 -2.83749e-64
2.27274e-44 -3.82591e-63 -3.82591e-63
1.17246e-45 -4.55501e-62 -4.55501e-62
5.92184e-47 -4.57388e-61 -4.57388e-61
2.92989e-48 -3.56113e-60 -3.56113e-60
1.48758e-49 -1.78117e-59 -1.78117e-59
1.48486e-49 -2.93039e-59 -2.93039e-59
0.0148 -7.47264e-132 1.40944e-133
0.0164859 -1.51888e-127 -3.84383e-129
0.0160179 -6.92229e-126 -2.16413e-127
0.0148137 -2.9915e-124 -4.7033e-125
0.0133381 -1.22689e-122 -6.57229e-123
0.0109841 -4.59496e-121 -1.27136e-120
0.00587847 -1.42513e-119 -7.28637e-119
0.00140087 -2.99735e-118 -7.95506e-118
7.47567e-05 -2.85931e-118 -2.37401e-115
9.75943e-06 0 -9.32839e-114
1.36336e-06 -5.40982e-112 -5.49997e-112
2.04994e-07 -1.9762e-110 -1.97619e-110
2.89772e-08 -6.92956e-109 -6.92956e-109
3.89484e-09 -2.39855e-107 -2.39855e-107
5.01593e-10 -8.19364e-106 -8.19364e-106
6.22058e-11 -2.76177e-104 -2.76177e-104
7.45225e-12 -9.18275e-103 -9.18275e-103
8.63939e-13 -3.01105e-101 -3.01105e-101
9.69987e-14 -9.73425e-100 -9.73425e-100
1.05495e-14 -3.10168e-98 -3.10168e-98
1.11132e-15 -9.73784e-97 -9.73784e-97
1.13374e-16 -3.01129e-95 -3.01129e-95
1.1199e-17 -9.16876e-94 -9.16876e-94
1.07103e-18 -2.74767e-92 -2.74767e-92
9.9176e-20 -8.10082e-91 -8.10082e-91
8.8934e-21 -2.34858e-89 -2.34858e-89
7.72519e-22 -6.69228e-88 -6.69228e-88
6.50272e-23 -1.87325e-86 -1.87325e-86
5.30667e-24 -5.14759e-85 -5.14759e-85
4.20061e-25 -1.38773e-83 -1.38773e-83
3.22704e-26 -3.66753e-82 -3.66753e-82
2.40739e-27 -9.49371e-81 -9.49371e-81
1.745e-28 -2.40479e-79 -2.40479e-79
1.22974e-29 -5.95411e-78 -5.95411e-78
8.43057e-31 -1.43915e-76 -1.43915e-76