# vtk DataFile Version 2.0
Tobias Weinzierl: CPU, Manycore and Cluster Computing
ASCII

DATASET STRUCTURED_POINTS
DIMENSIONS  51 11 6

ORIGIN 0 0 0 

SPACING 0.1 0.1 0.1 

POINT_DATA 3366

VECTORS velocity float
0 0 0
1.40966e-08 0 0
5.95471e-09 0 0
1.21961e-09 0 0
1.65926e-10 0 0
1.6933e-11 0 0
1.38628e-12 0 0
9.48786e-14 0 0
5.58205e-15 0 0
2.88057e-16 0 0
1.32394e-17 0 0
5.48519e-19 0 0
2.0686e-20 0 0
7.15845e-22 0 0
2.28854e-23 0 0
6.79832e-25 0 0
1.88588e-26 0 0
4.90667e-28 0 0
1.20193e-29 0 0
2.78144e-31 0 0
6.09919e-33 0 0
1.27078e-34 0 0
2.52195e-36 0 0
4.77792e-38 0 0
8.65891e-40 0 0
1.50391e-41 0 0
2.50759e-43 0 0
4.0203e-45 0 0
6.2067e-47 0 0
9.23964e-49 0 0
1.32797e-50 0 0
1.84491e-52 0 0
2.48024e-54 0 0
3.22991e-56 0 0
4.07837e-58 0 0
4.99781e-60 0 0
5.94897e-62 0 0
6.88376e-64 0 0
7.74933e-66 0 0
8.49323e-68 0 0
9.06881e-70 0 0
9.44019e-72 0 0
9.58593e-74 0 0
9.50097e-76 0 0
9.19659e-78 0 0
8.69851e-80 0 0
8.0435e-82 0 0
7.27513e-84 0 0
6.43928e-86 0 0
5.62729e-88 0 0
4.76776e-86 0 0
0 -1.19868e-207 0
7.86103e-08 -2.95516e-205 0
3.40819e-08 -6.36052e-203 0
6.90071e-09 -1.20036e-200 0
9.25495e-10 -2.05597e-198 0
9.26206e-11 -3.08487e-196 0
7.46152e-12 -3.43003e-194 0
5.04357e-13 -4.55851e-196 0
2.93922e-14 -2.89325e-194 0
1.50566e-15 -5.47052e-192 0
6.88041e-17 -1.01493e-189 0
2.83753e-18 -1.8521e-187 0
1.06612e-19 -3.32439e-185 0
3.67805e-21 -5.86707e-183 0
1.17286e-22 -1.01768e-180 0
3.4766e-24 -1.73417e-178 0
9.62652e-26 -2.90172e-176 0
2.50066e-27 -4.76524e-174 0
6.11717e-29 -7.6762e-172 0
1.4139e-30 -1.21224e-169 0
3.09713e-32 -1.87563e-167 0
6.4469e-34 -2.84139e-165 0
1.27836e-35 -4.21142e-163 0
2.42007e-37 -6.10244e-161 0
4.38286e-39 -8.63754e-159 0
7.60761e-41 -1.19314e-156 0
1.26777e-42 -1.60682e-154 0
2.03153e-44 -2.10739e-152 0
3.13489e-46 -2.68839e-150 0
4.66478e-48 -3.33143e-148 0
6.70184e-50 -4.00414e-146 0
9.30728e-52 -4.66016e-144 0
1.25082e-53 -5.24191e-142 0
1.62837e-55 -5.68656e-140 0
2.05553e-57 -5.9351e-138 0
2.51825e-59 -5.94307e-136 0
2.99675e-61 -5.69107e-134 0
3.46682e-63 -5.19197e-132 0
3.90187e-65 -4.49241e-130 0
4.27553e-67 -3.66692e-128 0
4.56438e-69 -2.80517e-126 0
4.75042e-71 -1.99498e-124 0
4.82291e-73 -1.30556e-122 0
4.77937e-75 -7.75861e-121 0
4.62554e-77 -4.11338e-119 0
4.37437e-79 -1.89809e-117 0
4.0444e-81 -7.3507e-116 0
3.65757e-83 -2.2542e-114 0
3.23694e-85 -4.92559e-113 0
2.82842e-87 -6.00191e-112 0
2.4191e-85 -7.93611e-110 0
0 -4.47333e-206 0
1.99917e-07 -1.09097e-203 0
9.10165e-08 -2.89549e-201 0
1.82334e-08 -6.82188e-199 0
2.39569e-09 -1.54183e-196 0
2.19965e-10 -3.42986e-194 0
1.67891e-11 -7.53675e-192 0
1.09424e-12 -3.89365e-194 0
6.22098e-14 -1.04423e-192 0
3.13108e-15 -2.02596e-190 0
1.41224e-16 -3.80112e-188 0
5.76625e-18 -7.00355e-186 0
2.14957e-19 -1.26939e-183 0
7.36931e-21 -2.26293e-181 0
2.33785e-22 -3.96616e-179 0
6.90018e-24 -6.83136e-177 0
1.90372e-25 -1.15581e-174 0
4.92995e-27 -1.91996e-172 0
1.20275e-28 -3.12973e-170 0
2.77351e-30 -5.00364e-168 0
6.06286e-32 -7.84103e-166 0
1.25972e-33 -1.20362e-163 0
2.49382e-35 -1.80858e-161 0
4.71413e-37 -2.65822e-159 0
8.52613e-39 -3.81855e-157 0
1.47814e-40 -5.35646e-155 0
2.46051e-42 -7.33009e-153 0
3.93877e-44 -9.77536e-151 0
6.07225e-46 -1.26894e-148 0
9.02768e-48 -1.60129e-146 0
1.29594e-49 -1.96155e-144 0
1.79837e-51 -2.32875e-142 0
2.41512e-53 -2.67459e-140 0
3.142e-55 -2.96556e-138 0
3.96368e-57 -3.16704e-136 0
4.85302e-59 -3.2488e-134 0
5.77185e-61 -3.19123e-132 0
6.67359e-63 -2.99061e-130 0
7.50716e-65 -2.6622e-128 0
8.22201e-67 -2.23939e-126 0
8.77332e-69 -1.76872e-124 0
9.12676e-71 -1.30137e-122 0
9.262e-73 -8.83088e-121 0
9.17454e-75 -5.45541e-119 0
8.87564e-77 -3.01506e-117 0
8.39042e-79 -1.45488e-115 0
7.7546e-81 -5.9125e-114 0
7.01034e-83 -1.91001e-112 0
6.20193e-85 -4.41394e-111 0
5.41735e-87 -5.70218e-110 0
4.65651e-85 -7.706e-108 0
0 -7.1695e-208 0
3.42975e-07 -1.76469e-205 0
1.66144e-07 -3.71957e-203 0
3.30673e-08 -5.98495e-201 0
4.2352e-09 -6.85241e-199 0
1.44277e-10 -6.79293e-199 0
1.07139e-11 0 0
6.84762e-13 1.63625e-189 0
4.02581e-14 -2.97517e-191 0
2.07801e-15 -6.54281e-189 0
9.55824e-17 -1.25568e-186 0
3.96422e-18 -2.33906e-184 0
1.49676e-19 -4.28241e-182 0
5.18578e-21 -7.71393e-180 0
1.65984e-22 -1.36658e-177 0
4.9363e-24 -2.38007e-175 0
1.37082e-25 -4.07333e-173 0
3.57015e-27 -6.84721e-171 0
8.75354e-29 -1.12997e-168 0
2.02743e-30 -1.82969e-166 0
4.44932e-32 -2.90538e-164 0
9.27706e-34 -4.52139e-162 0
1.84233e-35 -6.89131e-160 0
3.49249e-37 -1.02797e-157 0
6.33293e-39 -1.49959e-155 0
1.10049e-40 -2.13752e-153 0
1.8358e-42 -2.97435e-151 0
2.94451e-44 -4.03625e-149 0
4.54764e-46 -5.3356e-147 0
6.77227e-48 -6.86227e-145 0
9.73662e-50 -8.57497e-143 0
1.35307e-51 -1.03946e-140 0
1.8195e-53 -1.22021e-138 0
2.37002e-55 -1.38439e-136 0
2.99324e-57 -1.5146e-134 0
3.66874e-59 -1.59377e-132 0
4.36769e-61 -1.60817e-130 0
5.05475e-63 -1.55052e-128 0
5.69108e-65 -1.42244e-126 0
6.23809e-67 -1.23539e-124 0
6.66149e-69 -1.00951e-122 0
6.93484e-71 -7.7021e-121 0
7.04238e-73 -5.4334e-119 0
6.98033e-75 -3.49929e-117 0
6.75698e-77 -2.02261e-115 0
6.39121e-79 -1.02437e-113 0
5.91005e-81 -4.38691e-112 0
5.34553e-83 -1.50013e-110 0
4.73136e-85 -3.68712e-109 0
4.13469e-87 -5.0829e-108 0
3.54622e-85 -7.02405e-106 0
0 -7.19013e-210 0
4.68127e-07 -1.78628e-207 0
2.39717e-07 -3.16401e-205 0
4.76434e-08 -3.90643e-203 0
5.96634e-09 -3.02754e-201 0
0 -2.98879e-201 0
0 0 0
0 0 0
1.85848e-15 -3.54237e-187 0
1.71068e-16 -1.65958e-187 0
1.05222e-17 -3.56222e-185 0
5.23408e-19 -6.76487e-183 0
2.24211e-20 -1.25146e-180 0
8.52842e-22 -2.27857e-178 0
2.93381e-23 -4.08167e-176 0
9.2411e-25 -7.19073e-174 0
2.68955e-26 -1.24534e-171 0
7.28372e-28 -2.11928e-169 0
1.84587e-29 -3.5422e-167 0
4.39808e-31 -5.81193e-165 0
9.89169e-33 -9.35613e-163 0
2.10724e-34 -1.47689e-160 0
4.26483e-36 -2.28455e-158 0
8.22219e-38 -3.46068e-156 0
1.51357e-39 -5.12992e-154 0
2.66608e-41 -7.43528e-152 0
4.50238e-43 -1.05279e-149 0
7.3025e-45 -1.45487e-147 0
1.13936e-46 -1.96011e-145 0
1.71261e-48 -2.57159e-143 0
2.48345e-50 -3.28107e-141 0
3.47859e-52 -4.06522e-139 0
4.71206e-54 -4.88298e-137 0
6.17955e-56 -5.67548e-135 0
7.85392e-58 -6.36942e-133 0
9.68314e-60 -6.88493e-131 0
1.15915e-61 -7.1474e-129 0
1.34841e-63 -7.10183e-127 0
1.5255e-65 -6.72687e-125 0
1.67973e-67 -6.04455e-123 0
1.80142e-69 -5.12196e-121 0
1.8829e-71 -4.06262e-119 0
1.91938e-73 -2.98794e-117 0
1.90933e-75 -2.01265e-115 0
1.85453e-77 -1.22112e-113 0
1.75981e-79 -6.51836e-112 0
1.63232e-81 -2.956e-110 0
1.4807e-83 -1.07605e-108 0
1.31421e-85 -2.83167e-107 0
1.15154e-87 -4.19822e-106 0
9.71927e-86 -5.93551e-104 0
0 -2.7419e-210 0
5.40453e-07 -6.75443e-208 0
2.85867e-07 -1.07204e-205 0
5.68619e-08 -1.21825e-203 0
7.08274e-09 -9.31289e-202 0
3.0723e-10 -9.19213e-202 0
0 0 0
0 0 0
0 0 0
6.53156e-18 7.55894e-185 0
6.18694e-19 -7.87109e-184 0
3.8324e-20 -1.64782e-181 0
1.89509e-21 -3.08123e-179 0
8.00385e-23 -5.67262e-177 0
2.9857e-24 -1.02787e-174 0
1.00375e-25 -1.83242e-172 0
3.0828e-27 -3.21273e-170 0
8.73577e-29 -5.53739e-168 0
2.3014e-30 -9.37827e-166 0
5.67087e-32 -1.55998e-163 0
1.31353e-33 -2.54726e-161 0
2.87196e-35 -4.08081e-159 0
5.94869e-37 -6.41032e-157 0
1.1709e-38 -9.86723e-155 0
2.19615e-40 -1.48727e-152 0
3.93458e-42 -2.1935e-150 0
6.74796e-44 -3.16282e-148 0
1.11003e-45 -4.45458e-146 0
1.75451e-47 -6.12208e-144 0
2.66893e-49 -8.20102e-142 0
3.91313e-51 -1.06948e-139 0
5.53747e-53 -1.35586e-137 0
7.57262e-55 -1.66843e-135 0
1.00193e-56 -1.98921e-133 0
1.28397e-58 -2.29324e-131 0
1.59531e-60 -2.55031e-129 0
1.92361e-62 -2.72847e-127 0
2.25299e-64 -2.79917e-125 0
2.56529e-66 -2.74318e-123 0
2.84177e-68 -2.55609e-121 0
3.06508e-70 -2.25178e-119 0
3.22107e-72 -1.86213e-117 0
3.30029e-74 -1.43245e-115 0
3.29895e-76 -1.01289e-113 0
3.21905e-78 -6.47785e-112 0
3.06802e-80 -3.66232e-110 0
2.85761e-82 -1.76866e-108 0
2.60248e-84 -6.89962e-107 0
2.3186e-86 -1.95949e-105 0
2.03899e-88 -3.15431e-104 0
1.68723e-86 -4.56512e-102 0
0 -3.03815e-208 0
5.40412e-07 -7.4126e-206 0
2.85846e-07 -1.30728e-203 0
5.68605e-08 -1.81611e-201 0
7.12777e-09 -2.05911e-199 0
6.31371e-10 -1.64375e-197 0
2.22972e-11 -1.62334e-197 0
0 0 0
0 0 0
0 0 0
2.00969e-20 -1.6753e-182 0
6.33e-21 -3.24685e-180 0
5.31951e-22 -6.13898e-178 0
2.98827e-23 -1.14322e-175 0
1.33567e-24 -2.0962e-173 0
5.09014e-26 -3.78313e-171 0
1.71417e-27 -6.71779e-169 0
5.21236e-29 -1.17324e-166 0
1.4518e-30 -2.01442e-164 0
3.74222e-32 -3.39877e-162 0
8.99621e-34 -5.6324e-160 0
2.02923e-35 -9.16309e-158 0
4.31597e-37 -1.4626e-155 0
8.69102e-39 -2.28921e-153 0
1.66267e-40 -3.51104e-151 0
3.03091e-42 -5.27317e-149 0
5.27837e-44 -7.74919e-147 0
8.80193e-46 -1.11332e-144 0
1.40829e-47 -1.56227e-142 0
2.1659e-49 -2.13901e-140 0
3.20726e-51 -2.85422e-138 0
4.57969e-53 -3.70694e-136 0
6.31455e-55 -4.67911e-134 0
8.41791e-57 -5.73067e-132 0
1.08625e-58 -6.79696e-130 0
1.35829e-60 -7.78994e-128 0
1.64752e-62 -8.60494e-126 0
1.94023e-64 -9.13354e-124 0
2.22045e-66 -9.28191e-122 0
2.47148e-68 -8.99167e-120 0
2.67755e-70 -8.25863e-118 0
2.82554e-72 -7.14343e-116 0
2.90635e-74 -5.76868e-114 0
2.91584e-76 -4.29997e-112 0
2.85506e-78 -2.91289e-110 0
2.72999e-80 -1.75409e-108 0
2.5506e-82 -9.08159e-107 0
2.32965e-84 -3.82709e-105 0
2.08127e-86 -1.18441e-103 0
1.83512e-88 -2.09489e-102 0
1.5178e-86 -3.10537e-100 0
0 -2.72568e-206 0
4.67679e-07 -6.58995e-204 0
2.39498e-07 -1.26056e-201 0
4.76041e-08 -2.04668e-199 0
6.02702e-09 -2.9415e-197 0
5.78123e-10 -3.60018e-195 0
4.22152e-11 -3.1403e-193 0
1.17677e-12 -3.10459e-193 0
0 0 0
0 0 0
0 -2.48942e-181 0
1.35571e-19 -4.85501e-179 0
9.23657e-21 -9.28498e-177 0
4.3717e-22 -1.74967e-174 0
1.71248e-23 -3.24776e-172 0
5.88215e-25 -5.93638e-170 0
1.82151e-26 -1.06812e-167 0
5.16853e-28 -1.89111e-165 0
1.35835e-29 -3.29343e-163 0
3.33226e-31 -5.63938e-161 0
7.67582e-33 -9.49013e-159 0
1.66813e-34 -1.56879e-156 0
3.43362e-36 -2.54615e-154 0
6.71631e-38 -4.05501e-152 0
1.252e-39 -6.33324e-150 0
2.22972e-41 -9.69397e-148 0
3.80221e-43 -1.45315e-145 0
6.22034e-45 -2.13162e-143 0
9.78048e-47 -3.05723e-141 0
1.48039e-48 -4.28298e-139 0
2.16026e-50 -5.85468e-137 0
3.04323e-52 -7.79973e-135 0
4.14391e-54 -1.01132e-132 0
5.46053e-56 -1.27428e-130 0
6.9707e-58 -1.55757e-128 0
8.6292e-60 -1.8431e-126 0
1.03688e-61 -2.10639e-124 0
1.21039e-63 -2.31847e-122 0
1.37382e-65 -2.4495e-120 0
1.51731e-67 -2.47399e-118 0
1.63185e-69 -2.37675e-116 0
1.71021e-71 -2.15819e-114 0
1.7477e-73 -1.8373e-112 0
1.74263e-75 -1.45072e-110 0
1.69638e-77 -1.04686e-108 0
1.61311e-79 -6.7596e-107 0
1.49921e-81 -3.78203e-105 0
1.36251e-83 -1.73852e-103 0
1.21146e-85 -5.93416e-102 0
1.06331e-87 -1.17087e-100 0
8.97825e-86 -1.77881e-98 0
0 -1.75033e-204 0
3.39459e-07 -4.19345e-202 0
1.64513e-07 -8.65462e-200 0
3.27429e-08 -1.62892e-197 0
4.21555e-09 -2.87265e-195 0
4.12557e-10 -4.68552e-193 0
3.26377e-11 -6.7126e-191 0
2.02797e-12 -7.13505e-189 0
4.39936e-14 -7.06839e-189 0
2.05191e-15 0 0
9.04262e-17 -2.48496e-180 0
3.75721e-18 -4.90163e-178 0
1.4207e-19 -9.4855e-176 0
4.92837e-21 -1.80945e-173 0
1.57912e-22 -3.40157e-171 0
4.70053e-24 -6.29978e-169 0
1.30639e-25 -1.14907e-166 0
3.40478e-27 -2.06348e-164 0
8.3534e-29 -3.64694e-162 0
1.93587e-30 -6.34111e-160 0
4.25058e-32 -1.08427e-157 0
8.86687e-34 -1.82243e-155 0
1.76163e-35 -3.00957e-153 0
3.34085e-37 -4.88067e-151 0
6.06018e-39 -7.76854e-149 0
1.05345e-40 -1.2129e-146 0
1.75789e-42 -1.85633e-144 0
2.82037e-44 -2.78306e-142 0
4.35709e-46 -4.08401e-140 0
6.49017e-48 -5.86102e-138 0
9.33329e-50 -8.21794e-136 0
1.29732e-51 -1.12457e-133 0
1.74489e-53 -1.50009e-131 0
2.27329e-55 -1.94784e-129 0
2.87161e-57 -2.45812e-127 0
3.52029e-59 -3.00932e-125 0
4.19167e-61 -3.5663e-123 0
4.85182e-63 -4.08082e-121 0
5.46343e-65 -4.49504e-119 0
5.98942e-67 -4.74861e-117 0
6.39681e-69 -4.78911e-115 0
6.66018e-71 -4.58439e-113 0
6.7643e-73 -4.13422e-111 0
6.70551e-75 -3.47745e-109 0
6.49169e-77 -2.69098e-107 0
6.14095e-79 -1.87809e-105 0
5.67922e-81 -1.14668e-103 0
5.13726e-83 -5.81952e-102 0
4.54745e-85 -2.22475e-100 0
3.97435e-87 -4.99583e-99 0
3.41313e-85 -7.78353e-97 0
0 -6.14729e-203 0
1.7962e-07 -1.45926e-200 0
8.20565e-08 -3.26205e-198 0
1.64266e-08 -7.17558e-196 0
2.15703e-09 -1.55959e-193 0
2.14754e-10 -3.34868e-191 0
1.72937e-11 -7.10187e-189 0
1.16308e-12 -1.48739e-186 0
6.2079e-14 -3.07571e-184 0
2.96926e-15 -6.27836e-182 0
1.31993e-16 -1.26481e-179 0
5.32807e-18 -2.51164e-177 0
1.96805e-19 -4.91989e-175 0
6.69651e-21 -9.50416e-173 0
2.11121e-22 -1.81018e-170 0
6.19868e-24 -3.39826e-168 0
1.70257e-25 -6.28635e-166 0
4.3922e-27 -1.14555e-163 0
1.06801e-28 -2.0557e-161 0
2.45564e-30 -3.63154e-159 0
5.35427e-32 -6.31317e-157 0
1.10997e-33 -1.07959e-154 0
2.19291e-35 -1.81529e-152 0
4.13778e-37 -2.99992e-150 0
7.47145e-39 -4.87014e-148 0
1.29337e-40 -7.76268e-146 0
2.15002e-42 -1.21415e-143 0
3.43749e-44 -1.8623e-141 0
5.29343e-46 -2.79926e-139 0
7.86158e-48 -4.12027e-137 0
1.12745e-49 -5.93372e-135 0
1.56317e-51 -8.35286e-133 0
2.09751e-53 -1.14812e-130 0
2.72669e-55 -1.53906e-128 0
3.43729e-57 -2.00924e-126 0
4.20567e-59 -2.55049e-124 0
4.99878e-61 -3.142e-122 0
5.7763e-63 -3.74812e-120 0
6.49416e-65 -4.31797e-118 0
7.1088e-67 -4.78836e-116 0
7.58169e-69 -5.09063e-114 0
7.8834e-71 -5.16178e-112 0
7.99664e-73 -4.95867e-110 0
7.91777e-75 -4.47277e-108 0
7.65672e-77 -3.74131e-106 0
7.23536e-79 -2.84981e-104 0
6.68463e-81 -1.92174e-102 0
6.04095e-83 -1.09346e-100 0
5.34255e-85 -4.7772e-99 0
4.66518e-87 -1.25495e-97 0
4.02329e-85 -2.00647e-95 0
0 0 0
4.73262e-08 0 0
2.06004e-08 0 0
4.16066e-09 0 0
5.56209e-10 0 0
5.61789e-11 0 0
4.57402e-12 0 0
3.11881e-13 0 0
1.80855e-14 0 0
9.17351e-16 0 0
4.15673e-17 0 0
1.702e-18 0 0
6.35583e-20 0 0
2.1813e-21 0 0
6.92457e-23 0 0
2.04461e-24 0 0
5.64225e-26 0 0
1.46132e-27 0 0
3.56532e-29 0 0
8.22151e-31 0 0
1.79717e-32 0 0
3.73393e-34 0 0
7.39153e-36 0 0
1.39716e-37 0 0
2.52681e-39 0 0
4.38039e-41 0 0
7.29125e-43 0 0
1.16713e-44 0 0
1.79925e-46 0 0
2.67489e-48 0 0
3.83975e-50 0 0
5.32834e-52 0 0
7.15561e-54 0 0
9.30919e-56 0 0
1.17437e-57 0 0
1.43788e-59 0 0
1.71014e-61 0 0
1.97735e-63 0 0
2.22439e-65 0 0
2.43627e-67 0 0
2.59972e-69 0 0
2.70455e-71 0 0
2.74474e-73 0 0
2.71895e-75 0 0
2.6305e-77 0 0
2.48683e-79 0 0
2.29851e-81 0 0
2.07803e-83 0 0
1.83851e-85 0 0
1.60603e-87 0 0
1.38504e-85 0 0
0 0 -3.01839e-208
7.44164e-08 0 -7.43739e-206
3.21306e-08 0 -1.49722e-203
6.50363e-09 0 -2.4358e-201
8.73114e-10 0 -3.40923e-199
8.82555e-11 0 -3.91432e-197
7.17823e-12 0 -2.96282e-195
4.89043e-13 0 -1.09256e-196
2.86772e-14 0 -1.34781e-194
1.47624e-15 0 -2.54005e-192
6.77223e-17 0 -4.709e-190
2.80168e-18 0 -8.58962e-188
1.05535e-19 0 -1.54116e-185
3.64863e-21 0 -2.71882e-183
1.16555e-22 0 -4.714e-181
3.46015e-24 0 -8.02944e-179
9.59338e-26 0 -1.34295e-176
2.49484e-27 0 -2.20443e-174
6.1089e-29 0 -3.54944e-172
1.4132e-30 0 -5.60275e-170
3.09796e-32 0 -8.66467e-168
6.45299e-34 0 -1.31197e-165
1.28034e-35 0 -1.94359e-163
2.42515e-37 0 -2.81487e-161
4.39424e-39 0 -3.98215e-159
7.6308e-41 0 -5.49774e-157
1.27216e-42 0 -7.39985e-155
2.03932e-44 0 -9.69963e-153
3.14802e-46 0 -1.23667e-150
4.68581e-48 0 -1.53156e-148
6.73406e-50 0 -1.83971e-146
9.35459e-52 0 -2.13979e-144
1.2575e-53 0 -2.40537e-142
1.63746e-55 0 -2.60769e-140
2.06747e-57 0 -2.71983e-138
2.53341e-59 0 -2.7216e-136
3.01539e-61 0 -2.60434e-134
3.48903e-63 0 -2.3742e-132
3.92755e-65 0 -2.05276e-130
4.30439e-67 0 -1.67426e-128
4.59591e-69 0 -1.27978e-126
4.78395e-71 0 -9.09408e-125
4.85764e-73 0 -5.94637e-123
4.81445e-75 0 -3.5307e-121
4.66008e-77 0 -1.8702e-119
4.40758e-79 0 -8.62192e-118
4.07559e-81 0 -3.33584e-116
3.68618e-83 0 -1.02199e-114
3.26261e-85 0 -2.23091e-113
2.85115e-87 0 -2.71575e-112
2.43671e-85 0 -3.58959e-110
0.0036 -3.77186e-207 -4.29478e-207
0.00192715 -1.39978e-202 -1.46219e-202
0.000414984 -4.85549e-200 -4.78078e-200
5.48381e-05 -1.00953e-197 -9.79269e-198
5.42516e-06 -1.77693e-195 -1.71365e-195
4.30581e-07 -2.71784e-193 -2.61099e-193
2.87183e-08 -3.07908e-191 -2.9503e-191
1.65456e-09 -3.96854e-193 -3.86283e-193
8.39444e-11 -2.49958e-191 -2.49989e-191
3.80499e-12 -4.81347e-189 -4.81356e-189
1.55845e-13 -9.09853e-187 -9.09854e-187
5.82123e-15 -1.69225e-184 -1.69225e-184
1.9982e-16 -3.09703e-182 -3.09703e-182
6.34417e-18 -5.57525e-180 -5.57525e-180
1.87341e-19 -9.86845e-178 -9.86845e-178
5.17015e-21 -1.71677e-175 -1.71677e-175
1.3391e-22 -2.934e-173 -2.934e-173
3.26724e-24 -4.92359e-171 -4.92359e-171
7.5343e-26 -8.10873e-169 -8.10873e-169
1.64697e-27 -1.30989e-166 -1.30989e-166
3.42193e-29 -2.0743e-164 -2.0743e-164
6.77402e-31 -3.21799e-162 -3.21799e-162
1.28046e-32 -4.88738e-160 -4.88738e-160
2.31581e-34 -7.26144e-158 -7.26144e-158
4.01473e-36 -1.05457e-155 -1.05457e-155
6.68282e-38 -1.49571e-153 -1.49571e-153
1.06978e-39 -2.06979e-151 -2.06979e-151
1.64925e-41 -2.79158e-149 -2.79158e-149
2.45201e-43 -3.66533e-147 -3.66533e-147
3.52002e-45 -4.67901e-145 -4.67901e-145
4.88497e-47 -5.79894e-143 -5.79894e-143
6.56065e-49 -6.96623e-141 -6.96623e-141
8.53582e-51 -8.09685e-139 -8.09685e-139
1.0769e-52 -9.08679e-137 -9.08679e-137
1.31865e-54 -9.82345e-135 -9.82345e-135
1.56848e-56 -1.02025e-132 -1.02025e-132
1.81373e-58 -1.01478e-130 -1.01478e-130
2.04054e-60 -9.63112e-129 -9.63112e-129
2.23515e-62 -8.68412e-127 -8.68412e-127
2.38537e-64 -7.40034e-125 -7.40034e-125
2.48185e-66 -5.92228e-123 -5.92228e-123
2.51903e-68 -4.41577e-121 -4.41577e-121
2.49567e-70 -3.03712e-119 -3.03712e-119
2.41479e-72 -1.90199e-117 -1.90199e-117
2.2832e-74 -1.0658e-115 -1.0658e-115
2.11059e-76 -5.21522e-114 -5.21522e-114
1.9084e-78 -2.14956e-112 -2.14956e-112
1.68867e-80 -7.04368e-111 -7.04368e-111
1.46295e-82 -1.65114e-109 -1.65114e-109
1.2517e-84 -2.16268e-108 -2.16268e-108
1.23736e-84 -3.9815e-108 -3.9815e-108
0.01 1.14637e-207 5.4845e-206
0.00542325 -3.14929e-201 -2.37549e-201
0.00119812 -2.11831e-198 -2.06284e-198
0.000153533 -5.80786e-196 -5.69057e-196
1.46751e-05 -1.35667e-193 -1.31628e-193
1.07056e-06 -3.07883e-191 -2.96279e-191
6.75005e-08 -6.89587e-189 -6.60423e-189
3.73783e-09 -3.4797e-191 -3.3661e-191
1.84363e-10 -9.18781e-190 -9.19421e-190
8.18397e-12 -1.81615e-187 -1.81632e-187
3.29893e-13 -3.47293e-185 -3.47296e-185
1.2169e-14 -6.52436e-183 -6.52436e-183
4.13537e-16 -1.20622e-180 -1.20622e-180
1.30222e-17 -2.19429e-178 -2.19429e-178
3.81923e-19 -3.92625e-176 -3.92625e-176
1.04796e-20 -6.90715e-174 -6.90715e-174
2.70097e-22 -1.19418e-171 -1.19418e-171
6.56211e-24 -2.02809e-169 -2.02809e-169
1.50764e-25 -3.38174e-167 -3.38174e-167
3.28496e-27 -5.53348e-165 -5.53348e-165
6.80554e-29 -8.88004e-163 -8.88004e-163
1.34375e-30 -1.39677e-160 -1.39677e-160
2.53417e-32 -2.15202e-158 -2.15202e-158
4.57367e-34 -3.24538e-156 -3.24538e-156
7.91393e-36 -4.78683e-154 -4.78683e-154
1.31505e-37 -6.89969e-152 -6.89969e-152
2.10177e-39 -9.70976e-150 -9.70976e-150
3.23551e-41 -1.33274e-147 -1.33274e-147
4.80385e-43 -1.78221e-145 -1.78221e-145
6.88756e-45 -2.31903e-143 -2.31903e-143
9.54713e-47 -2.9322e-141 -2.9322e-141
1.2808e-48 -3.59707e-139 -3.59707e-139
1.66469e-50 -4.27385e-137 -4.27385e-137
2.09819e-52 -4.90847e-135 -4.90847e-135
2.56687e-54 -5.43693e-133 -5.43693e-133
3.05056e-56 -5.79313e-131 -5.79313e-131
3.52469e-58 -5.91994e-129 -5.91994e-129
3.96239e-60 -5.78132e-127 -5.78132e-127
4.33711e-62 -5.37302e-125 -5.37302e-125
4.62536e-64 -4.7282e-123 -4.7282e-123
4.80923e-66 -3.91541e-121 -3.91541e-121
4.87817e-68 -3.02781e-119 -3.02781e-119
4.82998e-70 -2.16529e-117 -2.16529e-117
4.67071e-72 -1.41392e-115 -1.41392e-115
4.4137e-74 -8.28766e-114 -8.28766e-114
4.07781e-76 -4.25721e-112 -4.25721e-112
3.68524e-78 -1.84947e-110 -1.84947e-110
3.2593e-80 -6.41639e-109 -6.41639e-109
2.82225e-82 -1.60008e-107 -1.60008e-107
2.41358e-84 -2.23703e-106 -2.23703e-106
2.38606e-84 -4.13864e-106 -4.13864e-106
0.0148 4.11788e-209 -2.50658e-205
0.00938708 -2.54475e-203 2.5252e-201
0.0022411 -2.54238e-200 -5.86985e-198
0.000284738 -4.98825e-198 -1.46134e-195
2.64139e-05 -5.92045e-196 -2.37034e-193
7.11562e-07 -5.87082e-196 -2.94747e-191
4.37082e-08 0 -6.57485e-189
2.37376e-09 1.52654e-186 1.45463e-186
1.20363e-10 -2.66701e-188 -2.68006e-188
5.45958e-12 -5.97781e-186 -5.98145e-186
2.23909e-13 -1.16975e-183 -1.16982e-183
8.3768e-15 -2.22262e-181 -2.22262e-181
2.8802e-16 -4.15245e-179 -4.15245e-179
9.15951e-18 -7.63618e-177 -7.63618e-177
2.70904e-19 -1.38172e-174 -1.38172e-174
7.48736e-21 -2.45905e-172 -2.45905e-172
1.94195e-22 -4.30267e-170 -4.30267e-170
4.74419e-24 -7.39845e-168 -7.39845e-168
1.09531e-25 -1.24961e-165 -1.24961e-165
2.3969e-27 -2.07212e-163 -2.07212e-163
4.98501e-29 -3.37158e-161 -3.37158e-161
9.87727e-31 -5.37993e-159 -5.37993e-159
1.86861e-32 -8.41342e-157 -8.41342e-157
3.3821e-34 -1.28863e-154 -1.28863e-154
5.86735e-36 -1.93162e-152 -1.93162e-152
9.77288e-38 -2.83144e-150 -2.83144e-150
1.56534e-39 -4.05513e-148 -4.05513e-148
2.41454e-41 -5.66886e-146 -5.66886e-146
3.59154e-43 -7.72715e-144 -7.72715e-144
5.15817e-45 -1.0258e-141 -1.0258e-141
7.16121e-47 -1.32453e-139 -1.32453e-139
9.62122e-49 -1.66102e-137 -1.66102e-137
1.2522e-50 -2.01968e-135 -2.01968e-135
1.58028e-52 -2.37667e-133 -2.37667e-133
1.93555e-54 -2.70086e-131 -2.70086e-131
2.30282e-56 -2.95667e-129 -2.95667e-129
2.66348e-58 -3.10899e-127 -3.10899e-127
2.99714e-60 -3.12954e-125 -3.12954e-125
3.28355e-62 -3.00353e-123 -3.00353e-123
3.50477e-64 -2.73504e-121 -2.73504e-121
3.64701e-66 -2.34904e-119 -2.34904e-119
3.70208e-68 -1.88883e-117 -1.88883e-117
3.66812e-70 -1.40852e-115 -1.40852e-115
3.54954e-72 -9.62157e-114 -9.62157e-114
3.35635e-74 -5.92103e-112 -5.92103e-112
3.10277e-76 -3.20639e-110 -3.20639e-110
2.80566e-78 -1.47535e-108 -1.47535e-108
2.4827e-80 -5.44997e-107 -5.44997e-107
2.15088e-82 -1.45546e-105 -1.45546e-105
1.84031e-84 -2.18904e-104 -2.18904e-104
1.81928e-84 -4.07067e-104 -4.07067e-104
0.018 -6.41285e-210 -4.48291e-203
0.0127617 -8.77822e-206 5.08604e-199
0.00326781 -2.0448e-202 -2.57794e-196
0.00041534 -3.19125e-200 -1.01392e-193
3.76016e-05 -2.56915e-198 -2.39525e-191
0 -2.53744e-198 -2.38514e-191
0 0 0
0 0 1.45467e-186
4.94228e-12 -3.37052e-184 -3.21029e-184
4.05166e-13 -1.54597e-184 -1.55343e-184
2.24818e-14 -3.3848e-182 -3.38635e-182
1.01848e-15 -6.55942e-180 -6.55942e-180
4.00448e-17 -1.23882e-177 -1.23882e-177
1.40734e-18 -2.30376e-175 -2.30376e-175
4.49845e-20 -4.21701e-173 -4.21701e-173
1.32309e-21 -7.59541e-171 -7.59541e-171
3.61121e-23 -1.34557e-168 -1.34557e-168
9.20636e-25 -2.34362e-166 -2.34362e-166
2.20379e-26 -4.01145e-164 -4.01145e-164
4.9749e-28 -6.74441e-162 -6.74441e-162
1.06299e-29 -1.11325e-159 -1.11325e-159
2.15669e-31 -1.80306e-157 -1.80306e-157
4.16644e-33 -2.86378e-155 -2.86378e-155
7.68303e-35 -4.45763e-153 -4.45763e-153
1.35533e-36 -6.7952e-151 -6.7952e-151
2.29175e-38 -1.01369e-148 -1.01369e-148
3.72117e-40 -1.47861e-146 -1.47861e-146
5.81159e-42 -2.10696e-144 -2.10696e-144
8.74314e-44 -2.93005e-142 -2.93005e-142
1.26882e-45 -3.97219e-140 -3.97219e-140
1.77848e-47 -5.24305e-138 -5.24305e-138
2.41064e-49 -6.72874e-136 -6.72874e-136
3.16322e-51 -8.38302e-134 -8.38302e-134
4.02245e-53 -1.01207e-131 -1.01207e-131
4.96176e-55 -1.18164e-129 -1.18164e-129
5.94234e-57 -1.33107e-127 -1.33107e-127
6.91558e-59 -1.44268e-125 -1.44268e-125
7.82702e-61 -1.49966e-123 -1.49966e-123
8.62166e-63 -1.48937e-121 -1.48937e-121
9.24962e-65 -1.40665e-119 -1.40665e-119
9.67143e-67 -1.25624e-117 -1.25624e-117
9.86212e-69 -1.05334e-115 -1.05334e-115
9.81362e-71 -8.21733e-114 -8.21733e-114
9.53499e-73 -5.89364e-112 -5.89364e-112
9.05074e-75 -3.82389e-110 -3.82389e-110
8.39751e-77 -2.19363e-108 -2.19363e-108
7.61972e-79 -1.07512e-106 -1.07512e-106
6.76486e-81 -4.25709e-105 -4.25709e-105
5.8791e-83 -1.22725e-103 -1.22725e-103
5.04537e-85 -2.00473e-102 -2.00473e-102
4.9868e-85 -3.74796e-102 -3.74796e-102
0.0196 -1.26291e-210 9.22377e-204
0.0146876 -5.52774e-206 -5.52217e-200
0.00391438 -7.14231e-203 -2.62458e-197
0.000498776 -1.01184e-200 -1.62418e-195
4.47652e-05 -8.02842e-199 -1.19726e-193
1.54926e-06 -7.92795e-199 5.29879e-189
0 0 5.29891e-189
0 0 0
0 0 -3.21003e-184
1.40459e-14 7.33887e-182 6.97019e-182
1.20966e-15 -7.63182e-181 -7.66576e-181
6.8734e-17 -1.63112e-178 -1.63112e-178
3.13892e-18 -3.11519e-176 -3.11519e-176
1.23137e-19 -5.86053e-174 -5.86053e-174
4.28777e-21 -1.08568e-171 -1.08568e-171
1.35144e-22 -1.97983e-169 -1.97983e-169
3.90637e-24 -3.5527e-167 -3.5527e-167
1.04537e-25 -6.27076e-165 -6.27076e-165
2.60876e-27 -1.08826e-162 -1.08826e-162
6.10607e-29 -1.85611e-160 -1.85611e-160
1.3468e-30 -3.10975e-158 -3.10975e-158
2.81047e-32 -5.11534e-156 -5.11534e-156
5.56745e-34 -8.25679e-154 -8.25679e-154
1.05005e-35 -1.307e-151 -1.307e-151
1.89045e-37 -2.02763e-149 -2.02763e-149
3.2562e-39 -3.08064e-147 -3.08064e-147
5.37701e-41 -4.58036e-145 -4.58036e-145
8.52819e-43 -6.65879e-143 -6.65879e-143
1.30133e-44 -9.45633e-141 -9.45633e-141
1.91338e-46 -1.31048e-138 -1.31048e-138
2.71459e-48 -1.77019e-136 -1.77019e-136
3.72102e-50 -2.32771e-134 -2.32771e-134
4.93394e-52 -2.97522e-132 -2.97522e-132
6.33553e-54 -3.69038e-130 -3.69038e-130
7.88642e-56 -4.43361e-128 -4.43361e-128
9.52585e-58 -5.14784e-126 -5.14784e-126
1.1175e-59 -5.76179e-124 -5.76179e-124
1.27433e-61 -6.19784e-122 -6.19784e-122
1.41369e-63 -6.38418e-120 -6.38418e-120
1.52682e-65 -6.26975e-118 -6.26975e-118
1.60656e-67 -5.83899e-116 -5.83899e-116
1.64806e-69 -5.12196e-114 -5.12196e-114
1.64926e-71 -4.19553e-112 -4.19553e-112
1.61107e-73 -3.17277e-110 -3.17277e-110
1.53707e-75 -2.18094e-108 -2.18094e-108
1.43307e-77 -1.33291e-106 -1.33291e-106
1.30636e-79 -7.00513e-105 -7.00513e-105
1.16491e-81 -2.9971e-103 -2.9971e-103
1.01665e-83 -9.41781e-102 -9.41781e-102
8.76007e-86 -1.69086e-100 -1.69086e-100
8.65635e-86 -3.17893e-100 -3.17893e-100
0.0196 1.96631e-208 9.94034e-204
0.0146873 -1.50646e-203 -6.33349e-200
0.00391427 -9.28694e-201 -2.26331e-197
0.000498769 -1.54143e-198 -7.22037e-196
4.49509e-05 -1.8087e-196 -1.18105e-194
3.14381e-06 -1.47267e-194 8.31029e-195
9.1512e-08 -1.45474e-194 -1.16957e-186
0 0 -1.16957e-186
0 0 0
0 0 6.98515e-182
3.62044e-17 -1.65857e-179 -1.65186e-179
1.10938e-17 -3.28248e-177 -3.28248e-177
8.68045e-19 -6.34202e-175 -6.34202e-175
4.54605e-20 -1.20746e-172 -1.20746e-172
1.901e-21 -2.26473e-170 -2.26473e-170
6.80252e-23 -4.18326e-168 -4.18326e-168
2.15848e-24 -7.60713e-166 -7.60713e-166
6.20381e-26 -1.36137e-163 -1.36137e-163
1.63799e-27 -2.3967e-161 -2.3967e-161
4.01287e-29 -4.14909e-159 -4.14909e-159
9.19064e-31 -7.05996e-157 -7.05996e-157
1.97938e-32 -1.1802e-154 -1.1802e-154
4.02771e-34 -1.93727e-152 -1.93727e-152
7.77381e-36 -3.1208e-150 -3.1208e-150
1.42788e-37 -4.93087e-148 -4.93087e-148
2.50302e-39 -7.63627e-146 -7.63627e-146
4.19788e-41 -1.15832e-143 -1.15832e-143
6.75049e-43 -1.71961e-141 -1.71961e-141
1.04286e-44 -2.49636e-139 -2.49636e-139
1.55046e-46 -3.54037e-137 -3.54037e-137
2.2219e-48 -4.89996e-135 -4.89996e-135
3.07357e-50 -6.61028e-133 -6.61028e-133
4.10949e-52 -8.68056e-131 -8.68056e-131
5.31725e-54 -1.10793e-128 -1.10793e-128
6.66537e-56 -1.37198e-126 -1.37198e-126
8.10312e-58 -1.64504e-124 -1.64504e-124
9.56291e-60 -1.90532e-122 -1.90532e-122
1.09655e-61 -2.12572e-120 -2.12572e-120
1.22275e-63 -2.27685e-118 -2.27685e-118
1.32696e-65 -2.33177e-116 -2.33177e-116
1.40253e-67 -2.27186e-114 -2.27186e-114
1.44481e-69 -2.09256e-112 -2.09256e-112
1.45157e-71 -1.80735e-110 -1.80735e-110
1.42321e-73 -1.44812e-108 -1.44812e-108
1.36258e-75 -1.06061e-106 -1.06061e-106
1.27457e-77 -6.95211e-105 -6.95211e-105
1.16549e-79 -3.94943e-103 -3.94943e-103
1.04236e-81 -1.84364e-101 -1.84364e-101
9.12229e-84 -6.39134e-100 -6.39134e-100
7.88131e-86 -1.2805e-98 -1.2805e-98
7.78794e-86 -2.42163e-98 -2.42163e-98
0.018 1.13413e-206 -3.04536e-203
0.0127585 -2.54305e-201 2.90473e-199
0.00326648 -9.68925e-199 5.64195e-197
0.00041515 -1.77863e-196 1.5526e-195
3.78508e-05 -2.63328e-194 3.3369e-195
2.83535e-06 -3.28764e-192 -2.87985e-192
1.71421e-07 -2.92383e-190 -2.89483e-190
4.05779e-09 -2.89121e-190 2.55054e-184
0 0 2.55054e-184
0 0 0
0 -2.5168e-178 -2.51552e-178
2.63678e-16 -5.01519e-176 -5.01518e-176
1.64967e-17 -9.80597e-174 -9.80597e-174
7.21625e-19 -1.89019e-171 -1.89019e-171
2.62708e-20 -3.59099e-169 -3.59099e-169
8.42711e-22 -6.72176e-167 -6.72176e-167
2.4475e-23 -1.2393e-164 -1.2393e-164
6.53802e-25 -2.24983e-162 -2.24983e-162
1.6231e-26 -4.02021e-160 -4.02021e-160
3.77254e-28 -7.0682e-158 -7.0682e-158
8.25592e-30 -1.22223e-155 -1.22223e-155
1.70878e-31 -2.07777e-153 -2.07777e-153
3.35737e-33 -3.47085e-151 -3.47085e-151
6.28142e-35 -5.69444e-149 -5.69444e-149
1.12208e-36 -9.1708e-147 -9.1708e-147
1.91832e-38 -1.44893e-144 -1.44893e-144
3.14517e-40 -2.24437e-142 -2.24437e-142
4.95454e-42 -3.40594e-140 -3.40594e-140
7.51147e-44 -5.05988e-138 -5.05988e-138
1.09767e-45 -7.3524e-136 -7.3524e-136
1.54827e-47 -1.04397e-133 -1.04397e-133
2.11061e-49 -1.44693e-131 -1.44693e-131
2.78398e-51 -1.95515e-129 -1.95515e-129
3.55713e-53 -2.57209e-127 -2.57209e-127
4.40708e-55 -3.28912e-125 -3.28912e-125
5.29946e-57 -4.08097e-123 -4.08097e-123
6.19057e-59 -4.90236e-121 -4.90236e-121
7.03088e-61 -5.68726e-119 -5.68726e-119
7.76982e-63 -6.35237e-117 -6.35237e-117
8.36096e-65 -6.80606e-115 -6.80606e-115
8.76697e-67 -6.96294e-113 -6.96294e-113
8.96354e-69 -6.76256e-111 -6.76256e-111
8.94166e-71 -6.18872e-109 -6.18872e-109
8.70814e-73 -5.28363e-107 -5.28363e-107
8.28412e-75 -4.15082e-105 -4.15082e-105
7.70224e-77 -2.94159e-103 -2.94159e-103
7.00262e-79 -1.82403e-101 -1.82403e-101
6.22859e-81 -9.40342e-100 -9.40342e-100
5.42263e-83 -3.6521e-98 -3.6521e-98
4.66152e-85 -8.33038e-97 -8.33038e-97
4.60742e-85 -1.58514e-96 -1.58514e-96
0.0148 -6.56026e-204 2.76672e-203
0.00935355 -2.56476e-199 -7.48266e-199
0.00222922 -7.19752e-197 -1.31874e-196
0.000282968 -1.45085e-194 -1.62486e-194
2.63214e-05 -2.62222e-192 -2.65419e-192
2.01212e-06 -4.36282e-190 -4.36773e-190
1.30652e-07 -6.37539e-188 -6.37603e-188
6.93865e-09 -6.91471e-186 -6.91477e-186
1.30706e-10 -6.85139e-186 -5.49737e-182
5.41779e-12 0 -1.14475e-179
2.13665e-13 -2.56687e-177 -2.57827e-177
8.00083e-15 -5.17597e-175 -5.17597e-175
2.753e-16 -1.02459e-172 -1.02459e-172
8.76057e-18 -2.00041e-170 -2.00041e-170
2.59247e-19 -3.85109e-168 -3.85109e-168