# vtk DataFile Version 2.0
Tobias Weinzierl: CPU, Manycore and Cluster Computing
ASCII

DATASET STRUCTURED_POINTS
DIMENSIONS  51 11 6

ORIGIN 0 0 0 

SPACING 0.1 0.1 0.1 

POINT_DATA 3366

VECTORS velocity float
0 0 0
2.58781e-13 0 0
2.89723e-10 0 0
9.04729e-10 0 0
-3.0313e-09 0 0
3.42332e-09 0 0
4.89433e-09 0 0
4.6668e-09 0 0
4.59425e-09 0 0
4.71621e-09 0 0
4.49981e-09 0 0
3.89049e-09 0 0
3.06348e-09 0 0
1.84182e-09 0 0
7.44078e-12 0 0
-2.05726e-09 0 0
-3.67737e-09 0 0
-4.5959e-09 0 0
-5.10011e-09 0 0
-5.61663e-09 0 0
-6.36767e-09 0 0
-7.32723e-09 0 0
-8.34685e-09 0 0
-9.28083e-09 0 0
-1.00443e-08 0 0
-1.06152e-08 0 0
-1.10124e-08 0 0
-1.12722e-08 0 0
-1.14332e-08 0 0
-1.15278e-08 0 0
-1.15803e-08 0 0
-1.16054e-08 0 0
-1.16109e-08 0 0
-1.16035e-08 0 0
-1.15805e-08 0 0
-1.15084e-08 0 0
-1.13393e-08 0 0
-1.10607e-08 0 0
-1.07139e-08 0 0
-1.03659e-08 0 0
-1.00726e-08 0 0
-9.86058e-09 0 0
-9.72459e-09 0 0
-9.63031e-09 0 0
-9.52748e-09 0 0
-9.37531e-09 0 0
-9.16651e-09 0 0
-8.93629e-09 0 0
-8.74794e-09 0 0
-8.66132e-09 0 0
0.00142683 0 0
0 3.90009e-07 0
9.30487e-14 -5.59071e-10 0
4.05522e-10 -1.98298e-09 0
2.60632e-09 -6.20053e-10 0
-9.89041e-10 -3.38349e-09 0
1.0211e-08 -4.48027e-09 0
1.21896e-08 3.42909e-10 0
1.19017e-08 5.54145e-10 0
1.27724e-08 -8.03612e-10 0
1.39862e-08 -1.70377e-09 0
1.41644e-08 -2.0882e-09 0
1.30812e-08 -1.87148e-09 0
1.08073e-08 -4.52371e-10 0
7.33297e-09 1.82729e-09 0
3.00044e-09 3.48968e-09 0
-1.16848e-09 3.56656e-09 0
-4.27999e-09 2.50781e-09 0
-6.39507e-09 1.38318e-09 0
-8.2946e-09 8.2985e-10 0
-1.06723e-08 8.19106e-10 0
-1.36863e-08 1.02118e-09 0
-1.70449e-08 1.1647e-09 0
-2.03077e-08 1.15151e-09 0
-2.31263e-08 1.00755e-09 0
-2.53351e-08 8.0114e-10 0
-2.69293e-08 5.91754e-10 0
-2.79992e-08 4.13746e-10 0
-2.86685e-08 2.79426e-10 0
-2.9055e-08 1.87636e-10 0
-2.92527e-08 1.3091e-10 0
-2.93277e-08 9.88821e-11 0
-2.9317e-08 8.12462e-11 0
-2.92297e-08 7.2662e-11 0
-2.90668e-08 6.50063e-11 0
-2.88161e-08 2.84494e-11 0
-2.83953e-08 -7.01131e-11 0
-2.76688e-08 -2.15412e-10 0
-2.65761e-08 -3.41869e-10 0
-2.51983e-08 -3.90788e-10 0
-2.36988e-08 -3.51904e-10 0
-2.22301e-08 -2.56468e-10 0
-2.08895e-08 -1.51637e-10 0
-1.97104e-08 -8.35246e-11 0
-1.86595e-08 -8.34912e-11 0
-1.76547e-08 -1.51329e-10 0
-1.66219e-08 -2.4928e-10 0
-1.55568e-08 -3.1703e-10 0
-1.45536e-08 -2.99081e-10 0
-1.37716e-08 -1.67417e-10 0
-1.33583e-08 3.13656e-11 0
0.00405054 -1.08311e-05 0
0 -2.02277e-08 0
4.71939e-13 -6.77522e-10 0
1.27011e-09 -4.04417e-09 0
6.39669e-09 -7.51294e-09 0
9.78202e-09 -1.34489e-08 0
1.79992e-08 -1.03975e-08 0
1.45597e-08 -7.18946e-10 0
1.41114e-08 -8.6294e-10 0
1.59058e-08 -4.43035e-09 0
1.82728e-08 -8.23761e-09 0
1.73864e-08 -1.14461e-08 0
1.43024e-08 -1.21383e-08 0
1.07988e-08 -8.74599e-09 0
6.64967e-09 -2.90634e-09 0
2.01333e-09 2.4489e-09 0
-2.23001e-09 6.00841e-09 0
-5.36901e-09 7.97786e-09 0
-7.52772e-09 8.82709e-09 0
-9.39874e-09 8.87459e-09 0
-1.1616e-08 8.35139e-09 0
-1.43913e-08 7.4377e-09 0
-1.75185e-08 6.27872e-09 0
-2.05933e-08 5.01467e-09 0
-2.32523e-08 3.78403e-09 0
-2.5302e-08 2.69816e-09 0
-2.67226e-08 1.81948e-09 0
-2.76054e-08 1.16069e-09 0
-2.80823e-08 6.99095e-10 0
-2.82785e-08 3.9424e-10 0
-2.82883e-08 2.01705e-10 0
-2.81718e-08 7.80929e-11 0
-2.79559e-08 -2.0552e-11 0
-2.76247e-08 -1.29516e-10 0
-2.71434e-08 -2.74158e-10 0
-2.64914e-08 -5.10534e-10 0
-2.55772e-08 -9.15647e-10 0
-2.41985e-08 -1.47564e-09 0
-2.22266e-08 -2.04832e-09 0
-1.97412e-08 -2.47435e-09 0
-1.69634e-08 -2.68338e-09 0
-1.41212e-08 -2.69878e-09 0
-1.13914e-08 -2.59154e-09 0
-8.89155e-09 -2.44798e-09 0
-6.65516e-09 -2.34318e-09 0
-4.62737e-09 -2.29931e-09 0
-2.72993e-09 -2.25946e-09 0
-9.51102e-10 -2.11011e-09 0
6.04424e-10 -1.74116e-09 0
1.75261e-09 -1.10242e-09 0
2.38793e-09 -2.49811e-10 0
0.00573995 -2.7706e-05 0
0 -6.45807e-07 0
2.14662e-12 -2.12766e-09 0
2.61814e-09 -7.5932e-09 0
9.05155e-09 -1.45141e-08 0
1.1253e-08 -2.02545e-08 0
1.12115e-08 -1.12106e-08 0
7.26502e-09 -6.3301e-12 0
6.87655e-09 -1.36439e-09 0
5.56074e-09 -6.92802e-09 0
4.8385e-09 -1.47149e-08 0
3.81454e-09 -2.05266e-08 0
1.44848e-09 -2.26894e-08 0
-6.51702e-10 -1.97128e-08 0
-4.19657e-09 -1.21892e-08 0
-9.19176e-09 -2.36059e-09 0
-1.42225e-08 7.31994e-09 0
-1.77055e-08 1.43031e-08 0
-1.88657e-08 1.72384e-08 0
-1.79983e-08 1.66942e-08 0
-1.61246e-08 1.42508e-08 0
-1.43101e-08 1.12693e-08 0
-1.3132e-08 8.45394e-09 0
-1.26133e-08 6.04292e-09 0
-1.24855e-08 4.08418e-09 0
-1.24666e-08 2.56924e-09 0
-1.23904e-08 1.46264e-09 0
-1.22071e-08 7.04991e-10 0
-1.19318e-08 2.20557e-10 0
-1.15981e-08 -7.18423e-11 0
-1.12283e-08 -2.48541e-10 0
-1.08248e-08 -3.7634e-10 0
-1.03776e-08 -5.22198e-10 0
-9.84178e-09 -7.49446e-10 0
-9.13763e-09 -1.09466e-09 0
-8.23811e-09 -1.6181e-09 0
-7.07747e-09 -2.43429e-09 0
-5.39687e-09 -3.54526e-09 0
-2.98844e-09 -4.73e-09 0
6.50908e-11 -5.69772e-09 0
3.47651e-09 -6.27479e-09 0
6.94965e-09 -6.44022e-09 0
1.0245e-08 -6.27014e-09 0
1.31799e-08 -5.89483e-09 0
1.56788e-08 -5.45797e-09 0
1.78087e-08 -5.04061e-09 0
1.96971e-08 -4.60143e-09 0
2.1405e-08 -4.00314e-09 0
2.28621e-08 -3.104e-09 0
2.39009e-08 -1.8814e-09 0
2.45228e-08 -5.37003e-10 0
0.00639867 -4.61275e-05 0
0 -1.2657e-06 0
9.13155e-13 -4.16032e-09 0
9.22565e-10 -1.16227e-08 0
3.39162e-09 -1.53924e-08 0
2.68213e-09 -1.24781e-08 0
-1.08877e-12 -4.55098e-09 0
-4.85032e-11 -5.43013e-11 0
5.15583e-11 -5.26526e-11 0
-2.16685e-09 -4.86961e-09 0
-1.09929e-08 -1.64595e-08 0
-1.56191e-08 -2.74981e-08 0
-1.49405e-08 -3.271e-08 0
-1.55796e-08 -2.93316e-08 0
-1.87545e-08 -1.77512e-08 0
-2.31269e-08 -2.50744e-09 0
-2.70824e-08 1.14396e-08 0
-2.92628e-08 1.99739e-08 0
-2.86321e-08 2.1851e-08 0
-2.49796e-08 1.88937e-08 0
-1.9291e-08 1.40105e-08 0
-1.31805e-08 9.29434e-09 0
-7.9224e-09 5.57254e-09 0
-4.00019e-09 2.89751e-09 0
-1.28739e-09 1.07572e-09 0
5.67065e-10 -9.29019e-11 0
1.88154e-09 -7.72588e-10 0
2.86454e-09 -1.10383e-09 0
3.63461e-09 -1.21064e-09 0
4.25933e-09 -1.20086e-09 0
4.78771e-09 -1.16526e-09 0
5.27016e-09 -1.17453e-09 0
5.74476e-09 -1.2941e-09 0
6.25783e-09 -1.60059e-09 0
6.92124e-09 -2.13877e-09 0
7.78218e-09 -2.95614e-09 0
8.86244e-09 -4.19953e-09 0
1.04933e-08 -5.90727e-09 0
1.30016e-08 -7.77927e-09 0
1.62929e-08 -9.35876e-09 0
1.9987e-08 -1.03236e-08 0
2.37084e-08 -1.05785e-08 0
2.71561e-08 -1.02044e-08 0
3.00982e-08 -9.40329e-09 0
3.24582e-08 -8.42955e-09 0
3.43702e-08 -7.46254e-09 0
3.60493e-08 -6.50366e-09 0
3.7608e-08 -5.41239e-09 0
3.89913e-08 -4.03825e-09 0
4.00225e-08 -2.36835e-09 0
4.07309e-08 -7.72118e-10 0
0.00658142 -6.19588e-05 0
0 -1.14661e-06 0
-1.97586e-12 -4.34198e-09 0
-1.83496e-09 -9.80935e-09 0
-2.05753e-09 -1.19198e-08 0
-3.89668e-09 -1.1808e-08 0
-2.93669e-09 -5.35642e-09 0
-4.98219e-11 4.86008e-11 0
2.96247e-12 -2.96247e-12 0
5.08574e-11 -5.22575e-11 0
-6.82859e-09 -8.73027e-09 0
-2.17679e-08 -2.7049e-08 0
-2.52347e-08 -3.74829e-08 0
-2.75221e-08 -3.28654e-08 0
-2.96237e-08 -1.88742e-08 0
-3.06259e-08 -1.61425e-09 0
-3.06003e-08 1.32569e-08 0
-2.98423e-08 2.1394e-08 0
-2.77379e-08 2.17954e-08 0
-2.33289e-08 1.69106e-08 0
-1.67533e-08 1.03511e-08 0
-9.38834e-09 4.62804e-09 0
-2.76525e-09 6.15427e-10 0
2.30071e-09 -1.80427e-09 0
5.76595e-09 -3.04389e-09 0
7.98276e-09 -3.49039e-09 0
9.36145e-09 -3.44255e-09 0
1.02212e-08 -3.12571e-09 0
1.0773e-08 -2.70743e-09 0
1.1146e-08 -2.3082e-09 0
1.14193e-08 -2.01516e-09 0
1.16568e-08 -1.88854e-09 0
1.19007e-08 -1.97476e-09 0
1.21662e-08 -2.34826e-09 0
1.25649e-08 -3.07258e-09 0
1.31839e-08 -4.18666e-09 0
1.3997e-08 -5.86635e-09 0
1.54438e-08 -8.20258e-09 0
1.80552e-08 -1.08142e-08 0
2.17072e-08 -1.30487e-08 0
2.58651e-08 -1.44041e-08 0
3.00198e-08 -1.46935e-08 0
3.37603e-08 -1.40105e-08 0
3.6802e-08 -1.26602e-08 0
3.91203e-08 -1.1043e-08 0
4.09789e-08 -9.46034e-09 0
4.26968e-08 -7.96805e-09 0
4.44014e-08 -6.42569e-09 0
4.59974e-08 -4.67199e-09 0
4.72665e-08 -2.68449e-09 0
4.81823e-08 -9.53659e-10 0
0.00654005 -7.21693e-05 0
0 -7.90361e-07 0
-9.1109e-13 -2.55857e-09 0
-1.8768e-09 -6.51292e-09 0
-1.70738e-09 -8.56775e-09 0
-5.18138e-09 -8.91431e-09 0
-7.19035e-09 -6.26083e-09 0
-3.31551e-09 -1.95954e-09 0
-4.85953e-11 4.86057e-11 0
2.25723e-12 -2.25723e-12 0
4.98961e-11 -5.18179e-11 0
-1.0056e-08 -1.5576e-08 0
-2.21885e-08 -3.36431e-08 0
-2.93613e-08 -3.03908e-08 0
-3.21859e-08 -1.61279e-08 0
-3.12584e-08 3.63829e-10 0
-2.75683e-08 1.34094e-08 0
-2.31339e-08 1.9569e-08 0
-1.90175e-08 1.84452e-08 0
-1.46367e-08 1.25975e-08 0
-9.3973e-09 5.5948e-09 0
-3.80927e-09 -1.04727e-10 0
1.05955e-09 -3.71366e-09 0
4.51005e-09 -5.47624e-09 0
6.49229e-09 -5.94509e-09 0
7.35717e-09 -5.63175e-09 0
7.5373e-09 -4.92416e-09 0
7.37528e-09 -4.09358e-09 0
7.08874e-09 -3.31608e-09 0
6.79377e-09 -2.69537e-09 0
6.5375e-09 -2.29115e-09 0
6.34365e-09 -2.14273e-09 0
6.22602e-09 -2.27763e-09 0
6.15113e-09 -2.75775e-09 0
6.18825e-09 -3.6735e-09 0
6.46868e-09 -5.07836e-09 0
6.91979e-09 -7.17686e-09 0
8.13445e-09 -1.01063e-08 0
1.10146e-08 -1.33759e-08 0
1.53944e-08 -1.61161e-08 0
2.04912e-08 -1.76869e-08 0
2.55547e-08 -1.78683e-08 0
2.99706e-08 -1.68046e-08 0
3.34059e-08 -1.49182e-08 0
3.59714e-08 -1.27404e-08 0
3.81204e-08 -1.06665e-08 0
4.02568e-08 -8.78501e-09 0
4.24602e-08 -6.94746e-09 0
4.45416e-08 -4.98126e-09 0
4.62367e-08 -2.85408e-09 0
4.74124e-08 -1.08328e-09 0
0.00636735 -7.67291e-05 0
0 -5.539e-07 0
9.59675e-13 -1.66254e-09 0
-6.9414e-10 -4.46909e-09 0
-1.05291e-09 -6.48504e-09 0
-4.20723e-09 -6.50415e-09 0
-8.92672e-09 -3.56371e-09 0
-9.56996e-09 -4.26432e-10 0
-5.76816e-09 3.11579e-10 0
-5.12421e-11 4.59674e-11 0
4.98469e-11 4.19797e-11 0
3.46084e-12 -8.63379e-09 0
-1.34441e-08 -2.0813e-08 0
-2.72331e-08 -1.91928e-08 0
-3.46184e-08 -6.65539e-09 0
-3.38777e-08 5.98484e-09 0
-2.6382e-08 1.33367e-08 0
-1.68477e-08 1.45876e-08 0
-9.56353e-09 1.10959e-08 0
-5.44782e-09 5.37318e-09 0
-3.24953e-09 -5.11915e-11 0
-1.91562e-09 -3.7681e-09 0
-1.25798e-09 -5.61513e-09 0
-1.38127e-09 -6.06819e-09 0
-2.20919e-09 -5.69135e-09 0
-3.46829e-09 -4.91816e-09 0
-4.85512e-09 -4.03381e-09 0
-6.15282e-09 -3.21044e-09 0
-7.25397e-09 -2.54302e-09 0
-8.13549e-09 -2.07749e-09 0
-8.82772e-09 -1.83486e-09 0
-9.37571e-09 -1.83651e-09 0
-9.81564e-09 -2.11092e-09 0
-1.02278e-08 -2.71416e-09 0
-1.06075e-08 -3.75663e-09 0
-1.08049e-08 -5.32747e-09 0
-1.09414e-08 -7.63801e-09 0
-1.02638e-08 -1.07946e-08 0
-7.27919e-09 -1.41213e-08 0
-2.2217e-09 -1.65897e-08 0
3.89915e-09 -1.76608e-08 0
9.99594e-09 -1.73198e-08 0
1.52311e-08 -1.58687e-08 0
1.93025e-08 -1.37919e-08 0
2.25193e-08 -1.16013e-08 0
2.54766e-08 -9.63696e-09 0
2.85371e-08 -7.92741e-09 0
3.16289e-08 -6.28362e-09 0
3.44358e-08 -4.52385e-09 0
3.6663e-08 -2.6322e-09 0
3.80807e-08 -1.06513e-09 0
0.00604299 -7.80282e-05 0
0 -4.69579e-07 0
9.55937e-13 -8.6731e-10 0
7.18026e-11 -2.47235e-09 0
-1.03316e-09 -3.83719e-09 0
-5.39037e-09 -4.11305e-09 0
-1.16282e-08 -1.14845e-09 0
-1.42632e-08 2.35272e-09 0
-1.33271e-08 -1.58912e-09 0
-8.68739e-09 -3.20942e-09 0
-7.01741e-09 9.30678e-14 0
-6.12157e-09 -4.78611e-09 0
-1.69129e-08 -9.43905e-09 0
-3.23539e-08 -5.20988e-09 0
-3.99152e-08 3.34408e-09 0
-3.52384e-08 9.61148e-09 0
-2.24255e-08 1.04731e-08 0
-9.80346e-09 7.0485e-09 0
-3.33508e-09 1.98099e-09 0
-3.27763e-09 -2.29097e-09 0
-6.52738e-09 -4.52526e-09 0
-1.03321e-08 -4.89227e-09 0
-1.36051e-08 -4.2595e-09 0
-1.63024e-08 -3.37953e-09 0
-1.86098e-08 -2.60911e-09 0
-2.06201e-08 -2.02476e-09 0
-2.23405e-08 -1.59915e-09 0
-2.37644e-08 -1.29687e-09 0
-2.49112e-08 -1.1009e-09 0
-2.58289e-08 -1.01062e-09 0
-2.65874e-08 -1.03605e-09 0
-2.72612e-08 -1.2007e-09 0
-2.79189e-08 -1.54579e-09 0
-2.86674e-08 -2.12658e-09 0
-2.95602e-08 -3.0467e-09 0
-3.04966e-08 -4.42101e-09 0
-3.16487e-08 -6.36797e-09 0
-3.21283e-08 -8.7725e-09 0
-2.97946e-08 -1.07936e-08 0
-2.5223e-08 -1.16541e-08 0
-1.93129e-08 -1.13569e-08 0
-1.34139e-08 -1.02864e-08 0
-8.32932e-09 -8.89215e-09 0
-4.07937e-09 -7.48994e-09 0
-1.94546e-10 -6.28337e-09 0
3.79705e-09 -5.34742e-09 0
7.96873e-09 -4.56968e-09 0
1.20051e-08 -3.74094e-09 0
1.54955e-08 -2.72175e-09 0
1.81631e-08 -1.56213e-09 0
1.97241e-08 -6.22695e-10 0
0.00537836 -7.371e-05 0
0 -4.84047e-07 0
1.85682e-12 -1.0975e-10 0
4.89099e-10 -4.87642e-10 0
-1.1404e-09 -9.80581e-10 0
-6.28349e-09 -1.16709e-09 0
-1.34218e-08 -8.32088e-10 0
-1.69317e-08 6.85264e-10 0
-1.60864e-08 -2.82364e-11 0
-1.87127e-08 -1.5723e-09 0
-1.73012e-08 -7.27299e-10 0
-1.52849e-08 2.44365e-10 0
-1.95276e-08 2.21655e-09 0
-2.51182e-08 4.31303e-09 0
-2.58693e-08 4.80075e-09 0
-1.93103e-08 3.88187e-09 0
-9.28827e-09 1.88279e-09 0
-2.22278e-09 -5.98616e-10 0
-1.57058e-09 -2.52784e-09 0
-5.96361e-09 -3.16782e-09 0
-1.19163e-08 -2.6691e-09 0
-1.69594e-08 -1.72489e-09 0
-2.04224e-08 -9.11797e-10 0
-2.26406e-08 -4.30377e-10 0
-2.41255e-08 -2.26397e-10 0
-2.52249e-08 -1.76974e-10 0
-2.61105e-08 -1.88923e-10 0
-2.68551e-08 -2.18089e-10 0
-2.74975e-08 -2.53902e-10 0
-2.80731e-08 -3.02507e-10 0
-2.86272e-08 -3.77726e-10 0
-2.92146e-08 -4.98223e-10 0
-2.99014e-08 -6.89694e-10 0
-3.07874e-08 -9.80615e-10 0
-3.1954e-08 -1.42664e-09 0
-3.34141e-08 -2.10216e-09 0
-3.52687e-08 -2.92748e-09 0
-3.64828e-08 -3.59578e-09 0
-3.50015e-08 -3.64335e-09 0
-3.21464e-08 -3.05137e-09 0
-2.85362e-08 -2.25724e-09 0
-2.53611e-08 -1.57644e-09 0
-2.29053e-08 -1.1488e-09 0
-2.06331e-08 -9.29266e-10 0
-1.7972e-08 -8.24896e-10 0
-1.47463e-08 -7.72868e-10 0
-1.11937e-08 -7.09775e-10 0
-7.74155e-09 -5.71261e-10 0
-4.75814e-09 -3.30181e-10 0
-2.46787e-09 -5.20307e-11 0
-1.17947e-09 1.03407e-10 0
0.00382786 -4.83945e-05 0
0 0 0
1.39158e-12 0 0
3.06274e-10 0 0
-5.45472e-10 0 0
-2.98459e-09 0 0
-6.46562e-09 0 0
-8.9236e-09 0 0
-8.5274e-09 0 0
-1.0028e-08 0 0
-1.02838e-08 0 0
-9.15991e-09 0 0
-7.82778e-09 0 0
-6.28523e-09 0 0
-4.61087e-09 0 0
-2.4022e-09 0 0
-2.98023e-10 0 0
3.48293e-10 0 0
-1.02443e-09 0 0
-3.64042e-09 0 0
-6.26766e-09 0 0
-8.17897e-09 0 0
-9.30889e-09 0 0
-9.90939e-09 0 0
-1.02425e-08 0 0
-1.047e-08 0 0
-1.06644e-08 0 0
-1.08506e-08 0 0
-1.10364e-08 0 0
-1.12282e-08 0 0
-1.14384e-08 0 0
-1.16865e-08 0 0
-1.20015e-08 0 0
-1.24263e-08 0 0
-1.30033e-08 0 0
-1.37716e-08 0 0
-1.47339e-08 0 0
-1.53302e-08 0 0
-1.47243e-08 0 0
-1.38033e-08 0 0
-1.28303e-08 0 0
-1.22813e-08 0 0
-1.21038e-08 0 0
-1.18678e-08 0 0
-1.12626e-08 0 0
-1.02695e-08 0 0
-9.05427e-09 0 0
-7.8187e-09 0 0
-6.71299e-09 0 0
-5.836e-09 0 0
-5.34601e-09 0 0
0.0013662 0 0
0 0 5.4124e-07
1.27724e-13 0 2.70089e-10
-3.29754e-10 0 1.07925e-09
2.06574e-09 0 3.94181e-09
-1.08105e-08 0 8.6562e-10
5.51448e-09 0 -3.44464e-09
1.06639e-08 0 -1.58569e-09
1.13688e-08 0 -2.53368e-10
1.13701e-08 0 7.5488e-10
1.19624e-08 0 1.79887e-09
1.36469e-08 0 2.91457e-09
1.63959e-08 0 3.30845e-09
1.91219e-08 0 2.50167e-09
1.98647e-08 0 1.22936e-09
1.71404e-08 0 4.1002e-10
1.15807e-08 0 1.18849e-10
5.2373e-09 0 3.14118e-11
-3.83322e-10 0 4.01395e-11
-5.12136e-09 0 1.91448e-10
-9.48926e-09 0 4.49001e-10
-1.38284e-08 0 6.89948e-10
-1.80673e-08 0 8.14986e-10
-2.19192e-08 0 8.0258e-10
-2.51314e-08 0 6.90368e-10
-2.76013e-08 0 5.33677e-10
-2.93683e-08 0 3.76753e-10
-3.05538e-08 0 2.43707e-10
-3.13026e-08 0 1.41775e-10
-3.17471e-08 0 6.83025e-11
-3.19914e-08 0 1.65814e-11
-3.21089e-08 0 -2.09175e-11
-3.21424e-08 0 -5.03431e-11
-3.21085e-08 0 -7.42607e-11
-3.20155e-08 0 -9.51462e-11
-3.18495e-08 0 -1.23394e-10
-3.15186e-08 0 -1.70877e-10
-3.08778e-08 0 -2.32057e-10
-2.98548e-08 0 -2.83391e-10
-2.85178e-08 0 -3.0384e-10
-2.70236e-08 0 -2.89206e-10
-2.5528e-08 0 -2.48741e-10
-2.41349e-08 0 -1.96273e-10
-2.28829e-08 0 -1.4665e-10
-2.17432e-08 0 -1.13539e-10
-2.064e-08 0 -1.03613e-10
-1.95035e-08 0 -1.11636e-10
-1.83309e-08 0 -1.2194e-10
-1.72173e-08 0 -1.19456e-10
-1.63354e-08 0 -1.07528e-10
-1.58688e-08 0 -1.20156e-10
0.00400763 0 1.13502e-05
0.0036 -3.10304e-07 -6.29802e-08
0.0035998 -0.00138971 -2.28404e-05
0.00670674 -0.00393225 0.000109461
0.0136127 -0.00588919 -0.00050942
0.0235125 -0.0144617 -0.0042767
0.0463571 -0.0133993 -0.00488265
0.049879 -0.00192195 -0.00164351
0.0496176 0.00264344 -0.000162189
0.0446302 0.00496884 0.000571477
0.0390249 0.00513549 0.000559097
0.0339244 0.00446728 0.000289384
0.0296379 0.00358348 1.30927e-05
0.0262341 0.00271072 -0.000182571
0.0236494 0.00194554 -0.000280123
0.0217318 0.00133665 -0.000294242
0.0203076 0.00089543 -0.000251841
0.0192356 0.000601044 -0.000182055
0.0184212 0.000414938 -0.000110148
0.0178045 0.000297181 -5.25309e-05
0.0173451 0.000217842 -1.49305e-05
0.0170113 0.000159741 4.85631e-06
0.0167761 0.000115126 1.23683e-05
0.0166153 8.10261e-05 1.30525e-05
0.0165083 5.60532e-05 1.08058e-05
0.0164379 3.90022e-05 7.86591e-06
0.0163907 2.85774e-05 5.25778e-06
0.0163561 2.35406e-05 3.30195e-06
0.0163264 2.29014e-05 1.99076e-06
0.0162954 2.60254e-05 1.20989e-06
0.016258 3.26563e-05 8.45847e-07
0.016209 4.28904e-05 8.31223e-07
0.0161433 5.71305e-05 1.16725e-06
0.0160547 7.59463e-05 1.9072e-06
0.0159362 9.98309e-05 3.11866e-06
0.0157796 0.000129073 4.95761e-06
0.0155767 0.000163346 7.67278e-06
0.0153201 0.000200411 1.12117e-05
0.0150073 0.000235243 1.48799e-05
0.0146441 0.000261267 1.76393e-05
0.0142458 0.000273004 1.8744e-05
0.0138336 0.000268139 1.80861e-05
0.0134301 0.000247896 1.60748e-05
0.0130553 0.00021603 1.33223e-05
0.0127237 0.000177347 1.04071e-05
0.0124445 0.000136364 7.75433e-06
0.0122214 9.64329e-05 5.58007e-06
0.0120542 5.94148e-05 3.86206e-06
0.0119402 2.59327e-05 2.30185e-06
0.0118745 -1.08305e-06 2.8968e-06
0.0118525 -8.57603e-06 1.65189e-05
0.0118525 -4.8929e-06 2.87496e-05
0.01 -1.39199e-07 -1.47078e-06
0.0100008 -0.00298754 -0.000599693
0.014786 -0.00996187 -0.000793894
0.0241784 -0.0177416 -0.00124007
0.0385768 -0.0325674 -0.003345
0.0592652 -0.0248773 -0.000819249
0.0565005 -0.0027443 0.00317798
0.0559362 0.00508535 0.00338766
0.0501543 0.0100617 0.0030082
0.0446841 0.0102068 0.00212006
0.0401874 0.00912479 0.00117343
0.0364827 0.00770856 0.000426109
0.033516 0.00623873 -9.41989e-05
0.0312415 0.00488158 -0.000397565
0.0295027 0.00373438 -0.000505397
0.0281488 0.00281622 -0.00046923
0.027085 0.00209891 -0.000355858
0.0262598 0.00154432 -0.000225452
0.0256383 0.00111931 -0.000116334
0.0251867 0.000797252 -4.2555e-05
0.0248706 0.000556677 -1.54102e-06
0.0246574 0.000380375 1.61673e-05
0.024519 0.000254607 2.03002e-05
0.0244319 0.000168246 1.8046e-05
0.0243777 0.000112157 1.36995e-05
0.0243424 7.8966e-05 9.35733e-06
0.0243153 6.30134e-05 5.78622e-06
0.0242886 6.03192e-05 3.0929e-06
0.024256 6.84673e-05 1.13291e-06
0.0242118 8.6421e-05 -2.82122e-07
0.0241503 0.000114292 -1.29905e-06
0.024065 0.000153149 -1.96207e-06
0.0239477 0.000204747 -2.19407e-06
0.0237885 0.000270859 -1.88634e-06
0.0235754 0.000352656 -7.64496e-07
0.0232952 0.000449749 1.73265e-06
0.0229353 0.000557164 5.5934e-06
0.0224887 0.000662793 9.35786e-06
0.0219614 0.00074981 1.08519e-05
0.0213725 0.000802916 8.75501e-06
0.0207514 0.000813684 3.37072e-06
0.0201301 0.000782144 -3.80286e-06
0.0195378 0.000715019 -1.09861e-05
0.0189978 0.000622616 -1.67547e-05
0.0185261 0.000515807 -2.02939e-05
0.0181321 0.000403779 -2.14518e-05
0.01782 0.000293155 -2.05832e-05
0.0175898 0.000188199 -1.86541e-05
0.0174378 9.17354e-05 -1.43252e-05
0.0173652 1.76865e-05 1.2653e-05
0.0173651 -1.0562e-05 3.63573e-05
0.0148 -9.70619e-07 -1.76697e-06
0.0148024 -0.00529722 -0.00112665
0.0203918 -0.0164372 -0.00244776
0.027571 -0.0288611 -0.00394087
0.0322288 -0.0462557 -0.0057721
0.0306927 -0.0285545 -0.00142109
0.0268999 -1.24748e-05 0.00329918
0.026339 0.0070598 0.00352317
0.0298372 0.0144033 0.00343853
0.0301838 0.0138233 0.00247532
0.0293836 0.012043 0.0015094
0.0285549 0.0102019 0.00066976
0.0279321 0.0083268 6.56792e-05
0.0276213 0.00657523 -0.000292792
0.0274965 0.00509081 -0.000424455
0.0274556 0.0038708 -0.000397974
0.0274557 0.00287653 -0.000292964
0.0274826 0.00208193 -0.000172225
0.0275279 0.00146774 -7.20352e-05
0.0275829 0.00100983 -5.24967e-06
0.0276401 0.00067878 3.00842e-05
0.0276945 0.000445742 4.24533e-05
0.0277435 0.000286514 4.12533e-05
0.027785 0.000182312 3.39099e-05
0.0278176 0.000118892 2.50863e-05
0.0278397 8.56069e-05 1.70942e-05
0.0278499 7.48177e-05 1.07144e-05
0.0278469 8.15329e-05 5.93552e-06
0.0278289 0.000103104 2.44798e-06
0.0277932 0.00013894 -8.25121e-08
0.0277359 0.000190184 -1.90887e-06
0.0276512 0.000259414 -3.12084e-06
0.0275308 0.000350391 -3.5236e-06
0.0273637 0.000467092 -2.78272e-06
0.0271349 0.000612532 -2.87343e-07
0.0268268 0.000787409 5.22576e-06
0.0264195 0.000984549 1.38809e-05
0.0258998 0.00118324 2.24895e-05
0.0252729 0.00135319 2.62101e-05
0.0245638 0.00146606 2.21438e-05
0.023811 0.00150536 1.09999e-05
0.0230556 0.00146931 -3.91342e-06
0.0223334 0.00136779 -1.88006e-05
0.0216722 0.00121702 -3.07771e-05
0.0210909 0.00103471 -3.82951e-05
0.0206009 0.000836506 -4.11402e-05
0.0202081 0.000633858 -4.00156e-05
0.0199147 0.000434144 -3.63078e-05
0.0197193 0.000241733 -3.02208e-05
0.0196237 6.68991e-05 4.45637e-06
0.0196236 -1.39383e-05 3.53223e-05
0.018 -1.95615e-06 -1.71497e-06
0.018003 -0.00700517 -0.00187605
0.0207846 -0.0190196 -0.0049245
0.0207418 -0.0250272 -0.00634153
0.0161002 -0.02705 -0.00762902
-1.62269e-06 -0.014047 -0.00433695
9.46332e-05 2.2811e-05 9.34054e-07
-2.99361e-05 3.1297e-05 0.000655258
0.00656862 0.00407409 0.00144319
0.0134188 0.00923953 0.00141388
0.0168283 0.0100395 0.00100498
0.0186079 0.00906681 0.000466672
0.020307 0.00752353 -2.04366e-05
0.0220002 0.00590059 -0.000290762
0.0235229 0.00451175 -0.000360305
0.0248112 0.00335933 -0.000311533
0.0258722 0.00241045 -0.000216163
0.0267335 0.00165618 -0.000117987
0.0274202 0.00108955 -3.80885e-05
0.0279541 0.000687907 1.61728e-05
0.0283578 0.000416502 4.53343e-05
0.0286555 0.000240277 5.46131e-05
0.0288703 0.000131225 5.11726e-05
0.0290222 6.93814e-05 4.16523e-05
0.0291263 4.0998e-05 3.07311e-05
0.0291941 3.67122e-05 2.09287e-05
0.0292335 5.04872e-05 1.31557e-05
0.0292498 7.90696e-05 7.41857e-06
0.0292458 0.000121644 3.36214e-06
0.029222 0.000179592 6.19232e-07
0.0291767 0.000256242 -1.03275e-06
0.0291051 0.000356578 -1.59574e-06
0.0289995 0.000487182 -5.56145e-07
0.0288478 0.000655317 3.01277e-06
0.028632 0.000867343 1.06191e-05
0.028328 0.00112751 2.54412e-05
0.0279041 0.00142851 4.85415e-05
0.0273348 0.00173922 7.30712e-05
0.026624 0.00201086 8.78208e-05
0.0258074 0.00219756 8.56975e-05
0.0249393 0.00227293 6.75922e-05
0.024074 0.00223408 4.02553e-05
0.0232554 0.00209566 1.14777e-05
0.0225135 0.00188125 -1.29927e-05
0.0218673 0.00161628 -3.02237e-05
0.0213268 0.00132307 -3.9885e-05
0.0208969 0.00101804 -4.34034e-05
0.0205792 0.000711646 -4.30148e-05
0.0203712 0.000410883 -3.98428e-05
0.0202733 0.000124823 -5.22452e-06
0.0202731 -1.30326e-05 2.70832e-05
0.0196 -2.84036e-06 -2.58711e-06
0.019601 -0.00591658 -0.00274438
0.0190562 -0.0132032 -0.00648135
0.0159399 -0.0162358 -0.00668986
0.0108824 -0.0152182 -0.00669053
0.00172145 -0.00627188 -0.0050447
6.95205e-05 -6.35348e-05 -0.00130457
3.35987e-05 -3.35987e-05 -4.20589e-08
-2.9326e-05 3.05461e-05 0.0002616
0.00390216 0.002743 0.000559148
0.00892682 0.0064097 0.000490245
0.01184 0.00668665 0.000139673
0.0150865 0.00523345 -0.000243935
0.0182387 0.00381701 -0.000407711
0.0209381 0.00273746 -0.000401347
0.0231235 0.00188715 -0.000319411
0.0248538 0.00119814 -0.000221558
0.0262072 0.000665512 -0.000133039
0.0272471 0.000293642 -6.12038e-05
0.0280246 6.48768e-05 -8.51306e-06
0.028587 -5.66436e-05 2.40934e-05
0.0289807 -0.000108112 3.85611e-05
0.0292483 -0.000117518 3.98219e-05
0.0294253 -0.000102411 3.37871e-05
0.0295388 -7.27855e-05 2.52738e-05
0.0296082 -3.38839e-05 1.71734e-05
0.0296471 1.22009e-05 1.07099e-05
0.0296642 6.57796e-05 6.1006e-06
0.0296646 0.000129195 3.13478e-06
0.0296503 0.00020667 1.59534e-06
0.0296207 0.000304292 1.51414e-06
0.0295719 0.000429889 3.2307e-06
0.0294961 0.000593298 7.906e-06
0.0293803 0.000805986 1.7689e-05
0.0292023 0.00107935 3.61182e-05
0.0289295 0.00142485 7.13367e-05
0.0285102 0.00183908 0.000128585
0.0278958 0.00227809 0.000194139
0.0270886 0.00266661 0.000241739
0.026144 0.00293553 0.000253503
0.0251436 0.00304786 0.000229508
0.0241628 0.00300219 0.000183109
0.0232541 0.00282117 0.000129951
0.0224483 0.00253791 8.1351e-05
0.0217603 0.00218645 4.28689e-05
0.0211953 0.00179593 1.50699e-05
0.020754 0.00138756 -4.57383e-06
0.020435 0.000975065 -1.95376e-05
0.0202331 0.0005686 -3.09567e-05
0.0201446 0.000179459 -9.94107e-06
0.0201443 -9.17311e-06 1.57446e-05
0.0196 -1.36839e-06 -3.61044e-06
0.0195999 -0.00369283 -0.00312709
0.0187627 -0.00810866 -0.00652187
0.0175106 -0.0081423 -0.0060536
0.0131835 -0.00431301 -0.00554421
0.00908496 0.00256393 -0.00533338
0.00614558 0.00315184 -0.0031178
6.9695e-05 -5.73746e-05 -0.000673588
2.80486e-05 -2.80486e-05 -1.28343e-07
-2.8787e-05 2.9865e-05 9.53847e-05
0.00269912 0.00192085 0.000362051
0.00698907 0.00299426 0.000262744
0.0122538 0.00146424 -0.000163579
0.0168868 0.000482138 -0.000352006
0.0204873 3.64676e-05 -0.000357725
0.0231705 -0.00022479 -0.000289432
0.0251472 -0.000433685 -0.000212097
0.0265899 -0.000584288 -0.000146854
0.0276198 -0.000647903 -9.33061e-05
0.0283279 -0.000626269 -4.94809e-05
0.0287918 -0.000547865 -1.69956e-05
0.0290802 -0.000445141 2.72949e-06
0.0292498 -0.000340321 1.13152e-05
0.0293439 -0.000243859 1.25693e-05
0.0293924 -0.000158339 1.03522e-05
0.0294148 -8.2196e-05 7.31595e-06
0.0294233 -1.17828e-05 4.80434e-06
0.0294246 5.77947e-05 3.31432e-06
0.0294223 0.000132439 2.97779e-06
0.0294175 0.000219146 3.95721e-06
0.0294093 0.000326404 6.81198e-06
0.0293941 0.00046452 1.25992e-05
0.0293645 0.00064629 2.36387e-05
0.0293069 0.000887583 4.43168e-05
0.0291945 0.00120586 8.21581e-05
0.0289838 0.00162321 0.000156355
0.0285959 0.00214574 0.000284859
0.0279398 0.00271434 0.000441848
0.0270154 0.00321748 0.000566627
0.0259124 0.00355885 0.000616756
0.0247576 0.00369407 0.000590747
0.0236548 0.00362878 0.000515069
0.0226646 0.00339799 0.000420023
0.0218132 0.00304594 0.000326756
0.0211064 0.00261511 0.000245311
0.0205401 0.00214042 0.0001769
0.0201082 0.0016466 0.000117875
0.0198048 0.00114992 6.37411e-05
0.0196219 0.000664205 1.46974e-05
0.0195501 0.000207633 -6.28352e-07
0.0195499 -1.06372e-05 6.73705e-06
0.018 -8.71539e-07 -3.60297e-06
0.0180009 -0.00201251 -0.00304988
0.0183158 -0.00388783 -0.00616168
0.0183705 -0.00268398 -0.00528766
0.0173519 0.000612674 -0.00419521
0.0170727 0.0070666 -0.00396589
0.0178079 0.0125763 -0.00300444
0.0109366 0.00693018 -0.00149844
7.11811e-05 -4.3568e-05 -0.000436709
-2.17772e-05 -5.13393e-05 5.61376e-07
7.96453e-06 -0.000717629 0.000747067
0.00826627 -0.00288425 0.00108481
0.0155644 -0.00443625 0.00044958
0.020538 -0.00408194 0.000133557
0.0237028 -0.00320322 1.32279e-05
0.0256973 -0.00246537 -3.22758e-05
0.026952 -0.00196452 -5.97798e-05
0.0277184 -0.00160709 -8.12394e-05
0.0281491 -0.0013042 -8.96001e-05
0.0283515 -0.00102323 -8.12354e-05
0.0284098 -0.000769371 -6.20422e-05
0.0283889 -0.000554972 -4.11478e-05
0.0283338 -0.000384154 -2.44497e-05
0.0282719 -0.000252359 -1.3369e-05
0.0282173 -0.000150846 -6.7568e-06
0.028176 -7.01589e-05 -2.86845e-06
0.0281494 -1.52734e-06 -2.81596e-07
0.0281371 6.30179e-05 1.98983e-06
0.0281381 0.000131091 4.69007e-06
0.0281513 0.000210584 8.61465e-06
0.0281757 0.000310524 1.50815e-05
0.0282087 0.000442004 2.62486e-05
0.028245 0.000619218 4.62236e-05
0.0282723 0.000861129 8.29851e-05
0.0282616 0.00119046 0.000150925
0.0281596 0.00163843 0.000288937
0.0278569 0.00222198 0.000540951
0.0271967 0.00286752 0.000857842
0.0261724 0.00342785 0.00111205
0.0249246 0.00378681 0.00121986
0.0236436 0.00390271 0.00118371
0.0224618 0.00379648 0.00105731
0.0214382 0.00351828 0.000895324
0.0205856 0.00312137 0.0007323
0.0198947 0.00265235 0.000582926
0.01935 0.00214713 0.000448362
0.0189389 0.00162979 0.000323601
0.018653 0.00111624 0.000203677
0.0184842 0.00062246 9.18823e-05
0.0184219 0.000176225 1.85223e-05
0.0184217 -3.0389e-05 -2.25431e-06
0.0148 -4.89121e-07 -3.19199e-06
0.0148015 -0.00103772 -0.00282961
0.0162302 -0.00165102 -0.00542652
0.0177931 -3.80042e-05 -0.00429157
0.0191154 0.00316605 -0.00306814
0.0208523 0.00734897 -0.00284627
0.0246672 0.012979 -0.00241161
0.02796 0.0195114 -0.00151707
0.0229919 0.0112911 -0.000345212
0.0234446 7.36457e-11 0.00062433
0.0265893 -0.00670981 0.00155916
0.0300045 -0.0131056 0.00211009
0.0308223 -0.0110351 0.00163914
0.0302476 -0.0077095 0.00114373
0.0292572 -0.0050798 0.000697586
0.0282787 -0.00336359 0.000348438
0.0274388 -0.00229405 0.00010687
0.0267478 -0.00159696 -3.84678e-05
0.0261863 -0.00110703 -0.000104763
0.0257359 -0.000749658 -0.00011489
0.0253824 -0.00049304 -9.4989e-05
0.0251136 -0.000315611 -6.64856e-05
0.0249166 -0.000196188 -4.13299e-05
0.0247782 -0.000115441 -2.32755e-05
0.0246866 -5.82573e-05 -1.16744e-05
0.0246317 -1.39143e-05 -4.50369e-06
0.0246062 2.51112e-05 1.8518e-07
0.0246053 6.45697e-05 3.9117e-06
0.0246267 0.000109645 7.91465e-06
0.02467 0.00016589 1.34865e-05
0.0247366 0.000240119 2.25593e-05
0.0248277 0.000341497 3.83855e-05
0.0249429 0.000482685 6.70965e-05
0.0250756 0.000682073 0.000121069
0.0252014 0.000962897 0.000224285
0.0252667 0.0013514 0.000438671
0.0251393 0.00185886 0.000832939
0.0245768 0.00241034 0.00131051
0.0235782 0.00287104 0.00166767
0.0223186 0.00313627 0.00179051
0.0210628 0.00317533 0.00169937
0.019947 0.00302931 0.00149599
0.0190072 0.00275538 0.00126219
0.0182333 0.00240253 0.00103845
0.0176022 0.00200809 0.000835675
0.017094 0.00159764 0.000649641
0.016698 0.00118659 0.000472022
0.0164105 0.000785301 0.000297698
0.0162301 0.000406489 0.000134014
0.0161545 7.93807e-05 1.39758e-05
0.0161544 -6.59391e-05 -2.89861e-05
0.01 -9.34708e-07 -2.89189e-06
0.0100008 -0.000635796 -0.00230429
0.0113216 -0.000715396 -0.00414391
0.0131849 0.000548929 -0.00291011
0.01562 0.00251802 -0.00181265
0.019521 0.00556507 -0.00182225
0.0254403 0.00836477 -0.00237001
0.034553 0.0101209 -0.00209632
0.0461711 0.00482333 -0.0005134
0.045924 -0.00402309 0.000985234
0.0454274 -0.00822933 0.00162358
0.038118 -0.00841575 0.00180137
0.0311555 -0.00577453 0.00155402
0.0260552 -0.00333875 0.00113225
0.022668 -0.00174433 0.000699401
0.020491 -0.000859022 0.000351342
0.0190942 -0.000412792 0.000118826
0.01819 -0.000197627 -1.01937e-05