# vtk DataFile Version 2.0
Tobias Weinzierl: CPU, Manycore and Cluster Computing
ASCII

DATASET STRUCTURED_POINTS
DIMENSIONS  51 11 6

ORIGIN 0 0 0 

SPACING 0.1 0.1 0.1 

POINT_DATA 3366

VECTORS velocity float
0 0 0
1.46356e-08 0 0
1.81925e-08 0 0
9.87474e-09 0 0
3.20487e-09 0 0
7.32927e-10 0 0
1.33663e-10 0 0
2.06438e-11 0 0
2.78809e-12 0 0
3.35642e-13 0 0
3.6484e-14 0 0
3.61521e-15 0 0
3.29054e-16 0 0
2.76843e-17 0 0
2.16455e-18 0 0
1.58017e-19 0 0
1.08151e-20 0 0
6.96536e-22 0 0
4.23517e-23 0 0
2.43838e-24 0 0
1.33291e-25 0 0
6.93477e-27 0 0
3.44162e-28 0 0
1.63261e-29 0 0
7.41669e-31 0 0
3.23219e-32 0 0
1.35345e-33 0 0
5.45367e-35 0 0
2.11759e-36 0 0
7.93344e-38 0 0
2.87124e-39 0 0
1.00498e-40 0 0
3.40552e-42 0 0
1.11835e-43 0 0
3.56247e-45 0 0
1.10175e-46 0 0
3.31084e-48 0 0
9.67513e-50 0 0
2.75146e-51 0 0
7.62017e-53 0 0
2.05662e-54 0 0
5.41263e-56 0 0
1.38993e-57 0 0
3.48463e-59 0 0
8.53383e-61 0 0
2.04259e-62 0 0
4.7807e-64 0 0
1.09466e-65 0 0
2.45334e-67 0 0
5.49969e-69 0 0
1.2406e-66 0 0
0 -3.51459e-167 0
6.15528e-08 -3.26874e-165 0
8.92572e-08 -3.27324e-163 0
5.15365e-08 -2.87914e-161 0
1.65682e-08 -2.09686e-159 0
3.53275e-09 -1.26609e-157 0
6.05718e-10 -5.57635e-156 0
8.92773e-11 -5.56228e-157 0
1.16563e-11 -3.33124e-155 0
1.36945e-12 -2.4897e-153 0
1.46244e-13 -1.82624e-151 0
1.43033e-14 -1.31799e-149 0
1.28919e-15 -9.35872e-148 0
1.07658e-16 -6.53607e-146 0
8.36903e-18 -4.48783e-144 0
6.08192e-19 -3.0282e-142 0
4.14762e-20 -2.00706e-140 0
2.66345e-21 -1.30602e-138 0
1.61562e-22 -8.33915e-137 0
9.28359e-24 -5.22194e-135 0
5.06646e-25 -3.20492e-133 0
2.63231e-26 -1.92661e-131 0
1.30485e-27 -1.13358e-129 0
6.18369e-29 -6.52328e-128 0
2.80674e-30 -3.66836e-126 0
1.22227e-31 -2.01409e-124 0
5.1148e-33 -1.07859e-122 0
2.05982e-34 -5.6278e-121 0
7.99405e-36 -2.8576e-119 0
2.9936e-37 -1.41017e-117 0
1.08301e-38 -6.75319e-116 0
3.78938e-40 -3.13328e-114 0
1.28368e-41 -1.40585e-112 0
4.21436e-43 -6.08713e-111 0
1.34213e-44 -2.53737e-109 0
4.1498e-46 -1.01545e-107 0
1.24679e-47 -3.88909e-106 0
3.64274e-49 -1.42016e-104 0
1.03576e-50 -4.9228e-103 0
2.86809e-52 -1.61129e-101 0
7.73961e-54 -4.94807e-100 0
2.03665e-55 -1.41434e-98 0
5.22933e-57 -3.72548e-97 0
1.31088e-58 -8.92719e-96 0
3.20999e-60 -1.91288e-94 0
7.68246e-62 -3.57908e-93 0
1.79792e-63 -5.64841e-92 0
4.11647e-65 -7.122e-91 0
9.22502e-67 -6.52543e-90 0
2.06784e-68 -3.55378e-89 0
4.68231e-66 -1.12039e-86 0
0 -4.47716e-166 0
1.16762e-07 -4.11132e-164 0
2.2423e-07 -5.21875e-162 0
1.49286e-07 -6.18508e-160 0
4.84515e-08 -6.16862e-158 0
8.41384e-09 -5.56445e-156 0
1.26138e-09 -4.83992e-154 0
1.69797e-10 -1.09418e-155 0
2.09243e-11 -4.77623e-154 0
2.3675e-12 -3.66381e-152 0
2.4658e-13 -2.71831e-150 0
2.37111e-14 -1.98111e-148 0
2.11225e-15 -1.42076e-146 0
1.74944e-16 -1.00246e-144 0
1.352e-17 -6.95627e-143 0
9.78356e-19 -4.74532e-141 0
6.65132e-20 -3.18084e-139 0
4.26149e-21 -2.0941e-137 0
2.5806e-22 -1.35336e-135 0
1.48098e-23 -8.58132e-134 0
8.07483e-25 -5.33537e-132 0
4.19242e-26 -3.25068e-130 0
2.07715e-27 -1.93948e-128 0
9.84004e-29 -1.13236e-126 0
4.46517e-30 -6.46429e-125 0
1.94414e-31 -3.60513e-123 0
8.13471e-33 -1.96233e-121 0
3.27581e-34 -1.0414e-119 0
1.2713e-35 -5.38226e-118 0
4.7608e-37 -2.70555e-116 0
1.7224e-38 -1.32092e-114 0
6.02688e-40 -6.25372e-113 0
2.0418e-41 -2.86592e-111 0
6.70381e-43 -1.26874e-109 0
2.13513e-44 -5.41333e-108 0
6.60234e-46 -2.22014e-106 0
1.98383e-47 -8.72534e-105 0
5.79677e-49 -3.27415e-103 0
1.6484e-50 -1.16807e-101 0
4.56501e-52 -3.94153e-100 0
1.23201e-53 -1.25015e-98 0
3.24233e-55 -3.69828e-97 0
8.32595e-57 -1.01047e-95 0
2.08735e-58 -2.5178e-94 0
5.11189e-60 -5.62527e-93 0
1.22355e-61 -1.10072e-91 0
2.86375e-63 -1.82259e-90 0
6.55739e-65 -2.41918e-89 0
1.46965e-66 -2.3399e-88 0
3.29462e-68 -1.34394e-87 0
7.47899e-66 -4.35166e-85 0
0 -1.60789e-167 0
1.33641e-07 -1.48932e-165 0
3.83091e-07 -1.49525e-163 0
3.1832e-07 -1.30161e-161 0
1.08449e-07 -6.90247e-160 0
5.61402e-09 -6.77379e-160 0
7.89323e-10 0 0
1.01164e-10 4.15513e-152 0
1.32839e-11 -5.39312e-153 0
1.57669e-12 -4.69189e-151 0
1.70429e-13 -3.56195e-149 0
1.6879e-14 -2.62516e-147 0
1.53997e-15 -1.9021e-145 0
1.30078e-16 -1.35641e-143 0
1.02192e-17 -9.51613e-142 0
7.4985e-19 -6.56554e-140 0
5.15887e-20 -4.45281e-138 0
3.33949e-21 -2.96726e-136 0
2.04052e-22 -1.94188e-134 0
1.18034e-23 -1.24742e-132 0
6.48084e-25 -7.86099e-131 0
3.38593e-26 -4.85692e-129 0
1.68701e-27 -2.94023e-127 0
8.03237e-29 -1.74274e-125 0
3.66166e-30 -1.01062e-123 0
1.60096e-31 -5.72904e-122 0
6.7244e-33 -3.17193e-120 0
2.71739e-34 -1.71348e-118 0
1.05799e-35 -9.02137e-117 0
3.97381e-37 -4.62352e-115 0
1.44165e-38 -2.30351e-113 0
5.05746e-40 -1.11395e-111 0
1.71747e-41 -5.21982e-110 0
5.65152e-43 -2.36545e-108 0
1.80373e-44 -1.03437e-106 0
5.58848e-46 -4.35346e-105 0
1.68228e-47 -1.75831e-103 0
4.92411e-49 -6.79121e-102 0
1.40252e-50 -2.49798e-100 0
3.89006e-52 -8.70689e-99 0
1.05138e-53 -2.85845e-97 0
2.77075e-55 -8.77241e-96 0
7.12425e-57 -2.49276e-94 0
1.78829e-58 -6.47781e-93 0
4.38463e-60 -1.51405e-91 0
1.05065e-61 -3.10996e-90 0
2.46169e-63 -5.42599e-89 0
5.64248e-65 -7.61885e-88 0
1.26583e-66 -7.82317e-87 0
2.84036e-68 -4.76865e-86 0
6.4258e-66 -1.58724e-83 0
0 -3.72158e-169 0
1.07447e-07 -3.47725e-167 0
4.92722e-07 -2.89922e-165 0
5.18232e-07 -2.04326e-163 0
1.91152e-07 -7.73285e-162 0
0 -7.53139e-162 0
0 0 0
0 0 0
1.22781e-12 -3.61485e-150 0
2.64514e-13 -4.72234e-150 0
3.81731e-14 -4.01219e-148 0
4.50969e-15 -3.0155e-146 0
4.63863e-16 -2.20821e-144 0
4.27479e-17 -1.59202e-142 0
3.58838e-18 -1.12961e-140 0
2.77392e-19 -7.8853e-139 0
1.99048e-20 -5.413e-137 0
1.33403e-21 -3.65258e-135 0
8.39247e-23 -2.42162e-133 0
4.97665e-24 -1.57666e-131 0
2.79165e-25 -1.00756e-129 0
1.48596e-26 -6.31613e-128 0
7.5261e-28 -3.88164e-126 0
3.63587e-29 -2.33708e-124 0
1.6791e-30 -1.37757e-122 0
7.42746e-32 -7.94309e-121 0
3.15272e-33 -4.47641e-119 0
1.28627e-34 -2.46333e-117 0
5.0518e-36 -1.32226e-115 0
1.91266e-37 -6.91519e-114 0
6.98995e-39 -3.51907e-112 0
2.46879e-40 -1.74004e-110 0
8.43641e-42 -8.3462e-109 0
2.79226e-43 -3.87626e-107 0
8.95999e-45 -1.73945e-105 0
2.79009e-46 -7.5236e-104 0
8.43854e-48 -3.12765e-102 0
2.48092e-49 -1.24549e-100 0
7.09571e-51 -4.73222e-99 0
1.97576e-52 -1.70732e-97 0
5.35958e-54 -5.81499e-96 0
1.41734e-55 -1.8561e-94 0
3.65628e-57 -5.50113e-93 0
9.20627e-59 -1.49574e-91 0
2.2639e-60 -3.67077e-90 0
5.43994e-62 -7.94841e-89 0
1.27797e-63 -1.46833e-87 0
2.93666e-65 -2.19338e-86 0
6.60395e-67 -2.40674e-85 0
1.48532e-68 -1.56867e-84 0
3.31903e-66 -5.37197e-82 0
0 -7.70938e-170 0
7.80588e-08 -7.18047e-168 0
5.30166e-07 -5.17175e-166 0
6.53309e-07 -3.24207e-164 0
2.62757e-07 -1.1764e-162 0
2.35778e-08 -1.14449e-162 0
0 0 0
0 0 0
0 0 0
2.15167e-14 3.05699e-148 0
4.91877e-15 -3.52371e-147 0
7.33423e-16 -2.92166e-145 0
8.79726e-17 -2.16301e-143 0
9.07629e-18 -1.57711e-141 0
8.31801e-19 -1.13216e-139 0
6.9014e-20 -7.99899e-138 0
5.25026e-21 -5.56008e-136 0
3.69618e-22 -3.80072e-134 0
2.42508e-23 -2.55388e-132 0
1.49127e-24 -1.6861e-130 0
8.6351e-26 -1.09319e-128 0
4.72679e-27 -6.95675e-127 0
2.45425e-28 -4.34271e-125 0
1.21228e-29 -2.6576e-123 0
5.71147e-31 -1.59329e-121 0
2.57249e-32 -9.35091e-120 0
1.11e-33 -5.36804e-118 0
4.59699e-35 -3.01157e-116 0
1.83039e-36 -1.64952e-114 0
7.01793e-38 -8.81126e-113 0
2.59475e-39 -4.58461e-111 0
9.26356e-41 -2.32039e-109 0
3.19733e-42 -1.14063e-107 0
1.06812e-43 -5.43615e-106 0
3.45726e-45 -2.50688e-104 0
1.08532e-46 -1.11601e-102 0
3.3075e-48 -4.78326e-101 0
9.79349e-50 -1.96754e-99 0
2.81985e-51 -7.7379e-98 0
7.90137e-53 -2.89629e-96 0
2.15617e-54 -1.02601e-94 0
5.73414e-56 -3.41594e-93 0
1.48711e-57 -1.05938e-91 0
3.76338e-59 -3.02487e-90 0
9.29886e-61 -7.82756e-89 0
2.24462e-62 -1.79542e-87 0
5.29601e-64 -3.53173e-86 0
1.222e-65 -5.64998e-85 0
2.75884e-67 -6.67747e-84 0
6.22881e-69 -4.69677e-83 0
1.36737e-66 -1.65642e-80 0
0 -3.55182e-168 0
7.79011e-08 -3.27776e-166 0
5.29627e-07 -2.62229e-164 0
6.5305e-07 -1.88208e-162 0
2.6835e-07 -9.68819e-161 0
4.85113e-08 -3.17371e-159 0
2.97558e-09 -3.07869e-159 0
0 0 0
0 0 0
0 0 0
3.54735e-16 -2.94649e-146 0
1.7046e-16 -2.29462e-144 0
3.1712e-17 -1.71818e-142 0
4.15459e-18 -1.26739e-140 0
4.42596e-19 -9.20813e-139 0
4.07125e-20 -6.58721e-137 0
3.33775e-21 -4.63814e-135 0
2.48633e-22 -3.21317e-133 0
1.70471e-23 -2.18924e-131 0
1.08581e-24 -1.46633e-129 0
6.47022e-26 -9.65046e-128 0
3.627e-27 -6.23768e-126 0
1.92129e-28 -3.95751e-124 0
9.65349e-30 -2.46315e-122 0
4.61537e-31 -1.50298e-120 0
2.10552e-32 -8.98479e-119 0
9.18737e-34 -5.2581e-117 0
3.84268e-35 -3.00991e-115 0
1.54356e-36 -1.68377e-113 0
5.96492e-38 -9.19557e-112 0
2.22108e-39 -4.89718e-110 0
7.98039e-41 -2.53999e-108 0
2.77048e-42 -1.28119e-106 0
9.30436e-44 -6.27457e-105 0
3.02625e-45 -2.97801e-103 0
9.54255e-47 -1.3668e-101 0
2.92004e-48 -6.05087e-100 0
8.67907e-50 -2.57618e-98 0
2.50777e-51 -1.05108e-96 0
7.0499e-53 -4.09186e-95 0
1.92968e-54 -1.51195e-93 0
5.14642e-56 -5.26744e-92 0
1.33825e-57 -1.71562e-90 0
3.39511e-59 -5.16592e-89 0
8.40859e-61 -1.41641e-87 0
2.0342e-62 -3.461e-86 0
4.80953e-64 -7.29787e-85 0
1.11193e-65 -1.26033e-83 0
2.51502e-67 -1.61985e-82 0
5.6885e-69 -1.2438e-81 0
1.24878e-66 -4.52196e-79 0
0 -1.49085e-166 0
1.06241e-07 -1.3654e-164 0
4.89475e-07 -1.17056e-162 0
5.15886e-07 -8.97836e-161 0
1.9852e-07 -5.53652e-159 0
4.05726e-08 -2.73789e-157 0
5.38637e-09 -9.53697e-156 0
2.54245e-10 -9.26863e-156 0
0 0 0
0 0 0
0 -1.76427e-145 0
1.20053e-15 -1.37283e-143 0
1.93401e-16 -1.03968e-141 0
2.19182e-17 -7.761e-140 0
2.07591e-18 -5.7087e-138 0
1.73722e-19 -4.13639e-136 0
1.31857e-20 -2.95138e-134 0
9.21484e-22 -2.07298e-132 0
5.98809e-23 -1.43274e-130 0
3.64391e-24 -9.74013e-129 0
2.08769e-25 -6.5103e-127 0
1.13098e-26 -4.27636e-125 0
5.81408e-28 -2.7591e-123 0
2.84488e-29 -1.74762e-121 0
1.32844e-30 -1.08608e-119 0
5.93362e-32 -6.61802e-118 0
2.54033e-33 -3.95139e-116 0
1.04437e-34 -2.3099e-114 0
4.1299e-36 -1.32097e-112 0
1.5733e-37 -7.38322e-111 0
5.78202e-39 -4.02899e-109 0
2.0526e-40 -2.14406e-107 0
7.04699e-42 -1.11121e-105 0
2.34241e-43 -5.60045e-104 0
7.54624e-45 -2.7401e-102 0
2.35846e-46 -1.29886e-100 0
7.15731e-48 -5.95111e-99 0
2.11089e-49 -2.62832e-97 0
6.05518e-51 -1.11525e-95 0
1.69067e-52 -4.52836e-94 0
4.59809e-54 -1.75082e-92 0
1.21891e-55 -6.40588e-91 0
3.15157e-57 -2.20031e-89 0
7.95253e-59 -7.02054e-88 0
1.95957e-60 -2.05104e-86 0
4.71771e-62 -5.37463e-85 0
1.11032e-63 -1.22455e-83 0
2.55583e-65 -2.30514e-82 0
5.75695e-67 -3.26065e-81 0
1.29688e-68 -2.77381e-80 0
2.90508e-66 -1.04071e-77 0
0 -4.6002e-165 0
1.27259e-07 -4.18344e-163 0
3.70484e-07 -3.70222e-161 0
3.09844e-07 -2.99489e-159 0
1.0871e-07 -2.16369e-157 0
2.28842e-08 -1.41027e-155 0
3.63588e-09 -8.03105e-154 0
4.24485e-10 -3.39918e-152 0
1.67107e-11 -3.32026e-152 0
1.55929e-12 0 0
1.49966e-13 -7.09429e-145 0
1.46807e-14 -5.58216e-143 0
1.32753e-15 -4.27739e-141 0
1.11376e-16 -3.23199e-139 0
8.70509e-18 -2.40746e-137 0
6.36274e-19 -1.76734e-135 0
4.36463e-20 -1.27826e-133 0
2.8191e-21 -9.10569e-132 0
1.7197e-22 -6.38639e-130 0
9.93532e-24 -4.40843e-128 0
5.45027e-25 -2.99385e-126 0
2.84568e-26 -1.99944e-124 0
1.41722e-27 -1.31257e-122 0
6.7459e-29 -8.46566e-121 0
3.07472e-30 -5.36159e-119 0
1.34426e-31 -3.33251e-117 0
5.6463e-33 -2.03151e-115 0
2.2819e-34 -1.21378e-113 0
8.88548e-36 -7.1024e-112 0
3.33794e-37 -4.06675e-110 0
1.2112e-38 -2.27646e-108 0
4.24992e-40 -1.24447e-106 0
1.44357e-41 -6.63607e-105 0
4.75139e-43 -3.44704e-103 0
1.51683e-44 -1.74149e-101 0
4.70081e-46 -8.54182e-100 0
1.41544e-47 -4.05905e-98 0
4.14416e-49 -1.86406e-96 0
1.18069e-50 -8.24822e-95 0
3.27564e-52 -3.50384e-93 0
8.8555e-54 -1.42252e-91 0
2.33435e-55 -5.4882e-90 0
6.00371e-57 -1.99741e-88 0
1.5074e-58 -6.79077e-87 0
3.69687e-60 -2.12784e-85 0
8.86068e-62 -6.02704e-84 0
2.07658e-63 -1.49813e-82 0
4.76089e-65 -3.11106e-81 0
1.0683e-66 -4.91739e-80 0
2.3977e-68 -4.72588e-79 0
5.45203e-66 -1.83198e-76 0
0 -7.76244e-164 0
9.24984e-08 -7.01153e-162 0
1.87344e-07 -6.24917e-160 0
1.27807e-07 -5.44608e-158 0
4.22388e-08 -4.6913e-156 0
9.2021e-09 -3.99399e-154 0
1.57569e-09 -3.36019e-152 0
2.22911e-10 -2.79314e-150 0
2.32656e-11 -2.29361e-148 0
2.27949e-12 -1.86023e-146 0
2.22589e-13 -1.48965e-144 0
2.03407e-14 -1.17046e-142 0
1.74017e-15 -9.07416e-141 0
1.39541e-16 -6.94012e-139 0
1.05065e-17 -5.23513e-137 0
7.44321e-19 -3.89382e-135 0
4.97274e-20 -2.8549e-133 0
3.14026e-21 -2.06275e-131 0
1.87874e-22 -1.46827e-129 0
1.06723e-23 -1.02927e-127 0
5.76852e-25 -7.10332e-126 0
2.97277e-26 -4.82438e-124 0
1.46343e-27 -3.22324e-122 0
6.89407e-29 -2.11753e-120 0
3.11315e-30 -1.36724e-118 0
1.34967e-31 -8.67208e-117 0
5.62603e-33 -5.40035e-115 0
2.25799e-34 -3.29972e-113 0
8.73683e-36 -1.97698e-111 0
3.26307e-37 -1.16058e-109 0
1.17771e-38 -6.67027e-108 0
4.11204e-40 -3.74977e-106 0
1.39036e-41 -2.05973e-104 0
4.55686e-43 -1.1042e-102 0
1.44899e-44 -5.76938e-101 0
4.47404e-46 -2.93341e-99 0
1.34252e-47 -1.44871e-97 0
3.918e-49 -6.9344e-96 0
1.11288e-50 -3.2086e-94 0
3.07872e-52 -1.43058e-92 0
8.30085e-54 -6.1217e-91 0
2.18261e-55 -2.50152e-89 0
5.60003e-57 -9.69743e-88 0
1.40287e-58 -3.5352e-86 0
3.43313e-60 -1.19722e-84 0
8.2118e-62 -3.70012e-83 0
1.92079e-63 -1.01532e-81 0
4.39563e-65 -2.36133e-80 0
9.84615e-67 -4.25442e-79 0
2.20612e-68 -4.74496e-78 0
5.05045e-66 -1.90278e-75 0
0 0 0
2.79876e-08 0 0
4.40763e-08 0 0
2.65728e-08 0 0
8.66418e-09 0 0
1.95695e-09 0 0
3.50598e-10 0 0
5.26711e-11 0 0
6.5549e-12 0 0
7.20199e-13 0 0
7.26237e-14 0 0
6.7698e-15 0 0
5.86303e-16 0 0
4.73649e-17 0 0
3.58176e-18 0 0
2.54347e-19 0 0
1.70111e-20 0 0
1.07451e-21 0 0
6.42665e-23 0 0
3.6484e-24 0 0
1.97034e-25 0 0
1.01442e-26 0 0
4.98855e-28 0 0
2.34753e-29 0 0
1.05893e-30 0 0
4.58598e-32 0 0
1.90965e-33 0 0
7.65656e-35 0 0
2.95965e-36 0 0
1.10435e-37 0 0
3.98222e-39 0 0
1.38922e-40 0 0
4.69336e-42 0 0
1.53702e-43 0 0
4.88374e-45 0 0
1.50687e-46 0 0
4.51854e-48 0 0
1.31782e-49 0 0
3.74083e-51 0 0
1.03427e-52 0 0
2.78699e-54 0 0
7.32405e-56 0 0
1.87819e-57 0 0
4.70271e-59 0 0
1.15031e-60 0 0
2.75019e-62 0 0
6.43003e-64 0 0
1.47086e-65 0 0
3.29337e-67 0 0
7.37617e-69 0 0
1.69158e-66 0 0
0 0 -8.01627e-168
5.75186e-08 0 -7.43932e-166
8.03866e-08 0 -7.29629e-164
4.53906e-08 0 -5.88047e-162
1.45485e-08 0 -3.61678e-160
3.23095e-09 0 -1.69134e-158
5.73848e-10 0 -5.10747e-157
8.68689e-11 0 -2.35341e-157
1.15619e-11 0 -1.65741e-155
1.37714e-12 0 -1.23389e-153
1.48527e-13 0 -9.03875e-152
1.46318e-14 0 -6.51659e-150
1.32586e-15 0 -4.62259e-148
1.11165e-16 0 -3.22506e-146
8.66809e-18 0 -2.21207e-144
6.31414e-19 0 -1.491e-142
4.31394e-20 0 -9.87135e-141
2.77431e-21 0 -6.41618e-139
1.68483e-22 0 -4.09212e-137
9.69038e-24 0 -2.55946e-135
5.29251e-25 0 -1.56895e-133
2.75148e-26 0 -9.41997e-132
1.36463e-27 0 -5.53556e-130
6.46976e-29 0 -3.18137e-128
2.93763e-30 0 -1.78667e-126
1.27965e-31 0 -9.79635e-125
5.35629e-33 0 -5.2389e-123
2.15754e-34 0 -2.72962e-121
8.37479e-36 0 -1.38399e-119
3.13666e-37 0 -6.81951e-118
1.13491e-38 0 -3.26081e-116
3.97143e-40 0 -1.51054e-114
1.34548e-41 0 -6.76661e-113
4.4176e-43 0 -2.925e-111
1.40695e-44 0 -1.21719e-109
4.35049e-46 0 -4.86266e-108
1.30715e-47 0 -1.85903e-106
3.81926e-49 0 -6.77607e-105
1.08599e-50 0 -2.34439e-103
3.00727e-52 0 -7.65854e-102
8.1154e-54 0 -2.34714e-100
2.13558e-55 0 -6.6952e-99
5.48346e-57 0 -1.75985e-97
1.3746e-58 0 -4.20789e-96
3.36607e-60 0 -8.99638e-95
8.05609e-62 0 -1.67941e-93
1.88537e-63 0 -2.64421e-92
4.31672e-65 0 -3.32611e-91
9.67382e-67 0 -3.04027e-90
2.16844e-68 0 -1.65211e-89
4.90721e-66 0 -5.20258e-87
0.0036 -4.29496e-167 -2.5907e-167
0.00414507 -7.36285e-163 -7.12685e-163
0.00247842 -1.54641e-160 -1.57788e-160
0.000871772 -2.29941e-158 -2.18935e-158
0.000203672 -2.03609e-156 -1.86174e-156
3.50002e-05 -1.29948e-154 -1.1723e-154
5.0509e-06 -5.84303e-153 -5.25371e-153
6.42046e-07 -5.56446e-154 -5.45182e-154
7.34621e-08 -3.35925e-152 -3.36025e-152
7.65618e-09 -2.55533e-150 -2.55544e-150
7.32626e-10 -1.90841e-148 -1.90841e-148
6.47662e-11 -1.40279e-146 -1.40279e-146
5.31664e-12 -1.0149e-144 -1.0149e-144
4.07087e-13 -7.2247e-143 -7.2247e-143
2.91892e-14 -5.05835e-141 -5.05835e-141
1.96695e-15 -3.48185e-139 -3.48185e-139
1.24971e-16 -2.35521e-137 -2.35521e-137
7.50848e-18 -1.56481e-135 -1.56481e-135
4.27752e-19 -1.02067e-133 -1.02067e-133
2.31634e-20 -6.53231e-132 -6.53231e-132
1.19501e-21 -4.0997e-130 -4.0997e-130
5.88577e-23 -2.52156e-128 -2.52156e-128
2.77294e-24 -1.51888e-126 -1.51888e-126
1.25186e-25 -8.95359e-125 -8.95359e-125
5.42463e-27 -5.16114e-123 -5.16114e-123
2.2597e-28 -2.90665e-121 -2.90665e-121
9.0619e-30 -1.59781e-119 -1.59781e-119
3.50313e-31 -8.56429e-118 -8.56429e-118
1.30709e-32 -4.47087e-116 -4.47087e-116
4.71272e-34 -2.27026e-114 -2.27026e-114
1.64374e-35 -1.11976e-112 -1.11976e-112
5.55188e-37 -5.35616e-111 -5.35616e-111
1.81765e-38 -2.48018e-109 -2.48018e-109
5.77357e-40 -1.10952e-107 -1.10952e-107
1.7808e-41 -4.78417e-106 -4.78417e-106
5.33802e-43 -1.98309e-104 -1.98309e-104
1.55623e-44 -7.87773e-103 -7.87773e-103
4.41585e-46 -2.98823e-101 -2.98823e-101
1.22041e-47 -1.07776e-99 -1.07776e-99
3.28727e-49 -3.67695e-98 -3.67695e-98
8.63527e-51 -1.17922e-96 -1.17922e-96
2.21355e-52 -3.52761e-95 -3.52761e-95
5.54018e-54 -9.74733e-94 -9.74733e-94
1.35462e-55 -2.45641e-92 -2.45641e-92
3.2374e-57 -5.55095e-91 -5.55095e-91
7.56622e-59 -1.09867e-89 -1.09867e-89
1.7301e-60 -1.84015e-88 -1.84015e-88
3.87236e-62 -2.47049e-87 -2.47049e-87
8.48758e-64 -2.41632e-86 -2.41632e-86
1.86086e-65 -1.40201e-85 -1.40201e-85
1.8527e-65 -2.36054e-85 -2.36054e-85
0.01 -4.5173e-166 -3.47976e-167
0.01047 -4.28723e-162 -1.88631e-166
0.00701625 -1.01457e-159 -4.20344e-160
0.00268275 -4.08405e-157 -3.69875e-157
0.000616456 -5.92395e-155 -5.42399e-155
8.67457e-05 -5.81772e-153 -5.24991e-153
1.09297e-05 -5.16582e-151 -4.63897e-151
1.26677e-06 -1.12661e-152 -1.08355e-152
1.36422e-07 -4.90112e-151 -4.9094e-151
1.36493e-08 -3.82784e-149 -3.82873e-149
1.26985e-09 -2.89258e-147 -2.89264e-147
1.1005e-10 -2.14795e-145 -2.14795e-145
8.90551e-12 -1.57012e-143 -1.57012e-143
6.74751e-13 -1.12967e-141 -1.12967e-141
4.80031e-14 -7.99673e-140 -7.99673e-140
3.21556e-15 -5.56731e-138 -5.56731e-138
2.03369e-16 -3.81036e-136 -3.81036e-136
1.21754e-17 -2.56256e-134 -2.56256e-134
6.91681e-19 -1.69263e-132 -1.69263e-132
3.73724e-20 -1.0975e-130 -1.0975e-130
1.92463e-21 -6.98162e-129 -6.98162e-129
9.46579e-23 -4.35472e-127 -4.35472e-127
4.45439e-24 -2.66156e-125 -2.66156e-125
2.00906e-25 -1.59286e-123 -1.59286e-123
8.69898e-27 -9.32732e-122 -9.32732e-122
3.62135e-28 -5.33964e-120 -5.33964e-120
1.45148e-29 -2.98573e-118 -2.98573e-118
5.60864e-31 -1.62907e-116 -1.62907e-116
2.09194e-32 -8.66369e-115 -8.66369e-115
7.54025e-34 -4.48549e-113 -4.48549e-113
2.6293e-35 -2.25773e-111 -2.25773e-111
8.87886e-37 -1.10314e-109 -1.10314e-109
2.90639e-38 -5.22324e-108 -5.22324e-108
9.23055e-40 -2.39198e-106 -2.39198e-106
2.84675e-41 -1.05711e-104 -1.05711e-104
8.53245e-43 -4.49689e-103 -4.49689e-103
2.48734e-44 -1.8359e-101 -1.8359e-101
7.05748e-46 -7.16828e-100 -7.16828e-100
1.95039e-47 -2.6657e-98 -2.6657e-98
5.25333e-49 -9.39456e-97 -9.39456e-97
1.37995e-50 -3.11871e-95 -3.11871e-95
3.53729e-52 -9.67901e-94 -9.67901e-94
8.85321e-54 -2.78162e-92 -2.78162e-92
2.16467e-55 -7.3111e-91 -7.3111e-91
5.17334e-57 -1.72848e-89 -1.72848e-89
1.20908e-58 -3.59145e-88 -3.59145e-88
2.76472e-60 -6.33864e-87 -6.33864e-87
6.18812e-62 -9.00307e-86 -9.00307e-86
1.35635e-63 -9.34913e-85 -9.34913e-85
2.97379e-65 -5.75791e-84 -5.75791e-84
2.96079e-65 -9.78901e-84 -9.78901e-84
0.0148 -1.46924e-167 -6.42964e-166
0.016773 -1.94946e-163 1.01145e-161
0.0134456 -6.93299e-162 -9.29564e-160
0.0060412 -6.88255e-159 -3.20622e-157
0.00143152 -6.53419e-157 -6.36297e-155
5.87447e-05 -6.46543e-157 -5.14582e-153
6.95622e-06 0 -4.58701e-151
7.68522e-07 4.51893e-149 4.00625e-149
8.72951e-08 -5.634e-150 -5.70079e-150
9.10857e-09 -4.9921e-148 -4.99944e-148
8.76396e-10 -3.86143e-146 -3.86199e-146
7.80589e-11 -2.90076e-144 -2.90076e-144
6.46108e-12 -2.1432e-142 -2.1432e-142
4.98879e-13 -1.55909e-140 -1.55909e-140
3.60633e-14 -1.11632e-138 -1.11632e-138
2.44902e-15 -7.86397e-137 -7.86397e-137
1.56731e-16 -5.44829e-135 -5.44829e-135
9.48038e-18 -3.71068e-133 -3.71068e-133
5.43476e-19 -2.48327e-131 -2.48327e-131
2.96009e-20 -1.63213e-129 -1.63213e-129
1.53532e-21 -1.05297e-127 -1.05297e-127
7.59948e-23 -6.66447e-126 -6.66447e-126
3.5968e-24 -4.13553e-124 -4.13553e-124
1.63073e-25 -2.51436e-122 -2.51436e-122
7.09443e-27 -1.49671e-120 -1.49671e-120
2.96619e-28 -8.71613e-119 -8.71613e-119
1.1936e-29 -4.96146e-117 -4.96146e-117
4.62904e-31 -2.75794e-115 -2.75794e-115
1.73238e-32 -1.49554e-113 -1.49554e-113
6.26371e-34 -7.9021e-112 -7.9021e-112
2.19049e-35 -4.06314e-110 -4.06314e-110
7.41693e-37 -2.03014e-108 -2.03014e-108
2.43394e-38 -9.84077e-107 -9.84077e-107
7.74817e-40 -4.61918e-105 -4.61918e-105
2.39482e-41 -2.09515e-103 -2.09515e-103
7.19269e-43 -9.16046e-102 -9.16046e-102
2.10084e-44 -3.84981e-100 -3.84981e-100
5.97171e-46 -1.54999e-98 -1.54999e-98
1.65316e-47 -5.95474e-97 -5.95474e-97
4.46e-49 -2.1725e-95 -2.1725e-95
1.17336e-50 -7.48308e-94 -7.48308e-94
3.0121e-52 -2.41578e-92 -2.41578e-92
7.54916e-54 -7.24215e-91 -7.24215e-91
1.84824e-55 -1.99189e-89 -1.99189e-89
4.42263e-57 -4.94532e-88 -4.94532e-88
1.03486e-58 -1.08335e-86 -1.08335e-86
2.36901e-60 -2.02477e-85 -2.02477e-85
5.30815e-62 -3.05995e-84 -3.05995e-84
1.16468e-63 -3.39619e-83 -3.39619e-83
2.5561e-65 -2.23704e-82 -2.23704e-82
2.54489e-65 -3.84253e-82 -3.84253e-82
0.018 -2.87615e-169 -3.66898e-164
0.0210361 -5.29103e-165 4.11824e-160
0.0194519 3.00462e-164 -4.32557e-158
0.0103228 -8.41313e-161 4.13423e-156
0.00262182 -7.20523e-159 -9.23758e-154
0 -7.12106e-159 -9.27936e-154
0 0 0
0 0 4.00728e-149
7.28096e-09 -4.00524e-147 -3.55255e-147
1.39378e-09 -5.11869e-147 -5.17812e-147
1.80998e-10 -4.4327e-145 -4.43758e-145
1.94063e-11 -3.39716e-143 -3.39716e-143
1.82463e-12 -2.53776e-141 -2.53776e-141
1.54675e-13 -1.86726e-139 -1.86726e-139
1.20099e-14 -1.35279e-137 -1.35279e-137
8.63043e-16 -9.64659e-136 -9.64659e-136
5.78263e-17 -6.7681e-134 -6.7681e-134
3.63329e-18 -4.67017e-132 -4.67017e-132
2.15056e-19 -3.16798e-130 -3.16798e-130
1.20376e-20 -2.11161e-128 -2.11161e-128
6.39272e-22 -1.38232e-126 -1.38232e-126
3.23013e-23 -8.88257e-125 -8.88257e-125
1.5568e-24 -5.59948e-123 -5.59948e-123
7.17286e-26 -3.46072e-121 -3.46072e-121
3.16575e-27 -2.09555e-119 -2.09555e-119
1.34084e-28 -1.24228e-117 -1.24228e-117
5.45904e-30 -7.20416e-116 -7.20416e-116
2.13974e-31 -4.08318e-114 -4.08318e-114
8.08583e-33 -2.25964e-112 -2.25964e-112
2.94965e-34 -1.21964e-110 -1.21964e-110
1.03999e-35 -6.41285e-109 -6.41285e-109
3.54801e-37 -3.2802e-107 -3.2802e-107
1.17247e-38 -1.62972e-105 -1.62972e-105
3.75668e-40 -7.85113e-104 -7.85113e-104
1.16814e-41 -3.66003e-102 -3.66003e-102
3.52823e-43 -1.64729e-100 -1.64729e-100
1.03596e-44 -7.13861e-99 -7.13861e-99
2.95931e-46 -2.96921e-97 -2.96921e-97
8.23035e-48 -1.18089e-95 -1.18089e-95
2.23013e-49 -4.47032e-94 -4.47032e-94
5.89127e-51 -1.60175e-92 -1.60175e-92
1.51821e-52 -5.39436e-91 -5.39436e-91
3.81902e-54 -1.6924e-89 -1.6924e-89
9.38253e-56 -4.88896e-88 -4.88896e-88
2.25253e-57 -1.28005e-86 -1.28005e-86
5.28721e-59 -2.97085e-85 -2.97085e-85
1.21396e-60 -5.91332e-84 -5.91332e-84
2.72778e-62 -9.57217e-83 -9.57217e-83
6.00125e-64 -1.1445e-81 -1.1445e-81
1.32055e-65 -8.13748e-81 -8.13748e-81
1.31468e-65 -1.41313e-80 -1.41313e-80
0.0196 -5.98974e-170 2.05139e-164
0.0229487 -1.09045e-165 -1.77656e-160
0.0227875 -1.39803e-164 1.41716e-158
0.0134076 -1.4579e-161 -7.87123e-157
0.00365858 -1.09401e-159 -1.89242e-154
0.00025614 -1.07944e-159 1.38316e-151
0 0 1.38504e-151
0 0 0
0 0 -3.5473e-147
1.03607e-10 3.45452e-145 3.00641e-145
2.14233e-11 -3.96891e-144 -4.01107e-144
2.91683e-12 -3.35693e-142 -3.35694e-142
3.2158e-13 -2.53639e-140 -2.53639e-140
3.06695e-14 -1.88828e-138 -1.88828e-138
2.61138e-15 -1.38473e-136 -1.38473e-136
2.02211e-16 -9.99928e-135 -9.99928e-135
1.44154e-17 -7.10752e-133 -7.10752e-133
9.54472e-19 -4.97106e-131 -4.97106e-131
5.90924e-20 -3.41966e-129 -3.41966e-129
3.43916e-21 -2.31277e-127 -2.31277e-127
1.88987e-22 -1.53707e-125 -1.53707e-125
9.84175e-24 -1.00335e-123 -1.00335e-123
4.87246e-25 -6.42935e-122 -6.42935e-122
2.29963e-26 -4.04194e-120 -4.04194e-120
1.03718e-27 -2.4914e-118 -2.4914e-118
4.48001e-29 -1.50462e-116 -1.50462e-116
1.85684e-30 -8.89641e-115 -8.89641e-115
7.39783e-32 -5.1457e-113 -5.1457e-113
2.83768e-33 -2.90883e-111 -2.90883e-111
1.04952e-34 -1.60544e-109 -1.60544e-109
3.74773e-36 -8.64138e-108 -8.64138e-108
1.29371e-37 -4.53034e-106 -4.53034e-106
4.32216e-39 -2.31001e-104 -2.31001e-104
1.39902e-40 -1.14373e-102 -1.14373e-102
4.39179e-42 -5.48839e-101 -5.48839e-101
1.33832e-43 -2.54708e-99 -2.54708e-99
3.96243e-45 -1.1403e-97 -1.1403e-97
1.14079e-46 -4.90994e-96 -4.90994e-96
3.19616e-48 -2.02616e-94 -2.02616e-94
8.72068e-50 -7.97886e-93 -7.97886e-93
2.31885e-51 -2.98247e-91 -2.98247e-91
6.01287e-53 -1.05123e-89 -1.05123e-89
1.52141e-54 -3.46428e-88 -3.46428e-88
3.75862e-56 -1.05553e-86 -1.05553e-86
9.0713e-58 -2.92867e-85 -2.92867e-85
2.13995e-59 -7.24223e-84 -7.24223e-84
4.9369e-61 -1.54551e-82 -1.54551e-82
1.11438e-62 -2.70121e-81 -2.70121e-81
2.46235e-64 -3.51299e-80 -3.51299e-80
5.4412e-66 -2.72742e-79 -2.72742e-79
5.4166e-66 -4.79172e-79 -4.79172e-79
0.0196 -3.03818e-168 2.12859e-164
0.0229464 -4.7951e-164 -1.86282e-160
0.0227798 -3.79678e-162 1.51957e-158
0.0134014 -1.11795e-159 -8.95634e-157
0.00370473 -9.16421e-158 -1.65419e-154
0.00051332 -3.29091e-156 -6.75156e-154
2.55567e-05 -3.20038e-156 -1.30437e-149
0 0 -1.30432e-149
0 0 0
0 0 3.05355e-145
1.4265e-12 -3.38603e-143 -3.35913e-143
6.53329e-13 -2.68987e-141 -2.68991e-141
1.13049e-13 -2.05652e-139 -2.05652e-139
1.37789e-14 -1.54964e-137 -1.54964e-137
1.36952e-15 -1.15071e-135 -1.15071e-135
1.17923e-16 -8.41785e-134 -8.41785e-134
9.07957e-18 -6.06444e-132 -6.06444e-132
6.37192e-19 -4.30111e-130 -4.30111e-130
4.12793e-20 -3.00198e-128 -3.00198e-128
2.49107e-21 -2.06109e-126 -2.06109e-126
1.40991e-22 -1.39143e-124 -1.39143e-124
7.52424e-24 -9.23207e-123 -9.23207e-123
3.8026e-25 -6.0172e-121 -6.0172e-121
1.82643e-26 -3.85047e-119 -3.85047e-119
8.36278e-28 -2.4177e-117 -2.4177e-117
3.65988e-29 -1.48863e-115 -1.48863e-115
1.53443e-30 -8.98178e-114 -8.98178e-114
6.17558e-32 -5.30639e-112 -5.30639e-112
2.39027e-33 -3.06713e-110 -3.06713e-110
8.91184e-35 -1.73283e-108 -1.73283e-108
3.20542e-36 -9.55908e-107 -9.55908e-107
1.11376e-37 -5.14291e-105 -5.14291e-105
3.74307e-39 -2.69501e-103 -2.69501e-103
1.21814e-40 -1.37346e-101 -1.37346e-101
3.84288e-42 -6.79567e-100 -6.79567e-100
1.17637e-43 -3.25792e-98 -3.25792e-98
3.4975e-45 -1.50983e-96 -1.50983e-96
1.01082e-46 -6.74532e-95 -6.74532e-95
2.84217e-48 -2.89553e-93 -2.89553e-93
7.78058e-50 -1.18951e-91 -1.18951e-91
2.07527e-51 -4.65352e-90 -4.65352e-90
5.39679e-53 -1.72293e-88 -1.72293e-88
1.36921e-54 -5.98903e-87 -5.98903e-87
3.39117e-56 -1.93403e-85 -1.93403e-85
8.20389e-58 -5.71897e-84 -5.71897e-84
1.93965e-59 -1.51694e-82 -1.51694e-82
4.48421e-61 -3.49858e-81 -3.49858e-81
1.01421e-62 -6.66659e-80 -6.66659e-80
2.24521e-64 -9.54421e-79 -9.54421e-79
4.97037e-66 -8.21193e-78 -8.21193e-78
4.9479e-66 -1.4607e-77 -1.4607e-77
0.018 -1.25148e-166 -4.05027e-164
0.021011 -2.88878e-162 4.72435e-160
0.0193986 -4.55613e-160 -5.1803e-158
0.0102875 -6.98982e-158 5.46544e-156
0.00268063 -5.50558e-156 3.5208e-154
0.000414567 -2.89071e-154 4.1923e-153
4.55353e-05 -1.03079e-152 1.09376e-152
1.85297e-06 -1.00243e-152 1.14609e-147
0 0 1.14608e-147
0 0 0
0 -2.06768e-142 -2.06315e-142
5.16306e-12 -1.64235e-140 -1.64231e-140
7.62096e-13 -1.2706e-138 -1.2706e-138
7.95689e-14 -9.69396e-137 -9.69396e-137
6.97781e-15 -7.29165e-135 -7.29165e-135
5.43172e-16 -5.40577e-133 -5.40577e-133
3.8511e-17 -3.94878e-131 -3.94878e-131
2.52366e-18 -2.84121e-129 -2.84121e-129
1.54314e-19 -2.01292e-127 -2.01292e-127
8.86413e-21 -1.4037e-125 -1.4037e-125
4.80776e-22 -9.63106e-124 -9.63106e-124
2.47222e-23 -6.499e-122 -6.499e-122
1.20927e-24 -4.31115e-120 -4.31115e-120
5.64262e-26 -2.80998e-118 -2.80998e-118
2.51781e-27 -1.79865e-116 -1.79865e-116
1.07667e-28 -1.12998e-114 -1.12998e-114
4.4207e-30 -6.96322e-113 -6.96322e-113
1.74581e-31 -4.20591e-111 -4.20591e-111
6.64168e-33 -2.48825e-109 -2.48825e-109
2.43754e-34 -1.44061e-107 -1.44061e-107
8.64144e-36 -8.15469e-106 -8.15469e-106
2.96283e-37 -4.50842e-104 -4.50842e-104
9.83555e-39 -2.43153e-102 -2.43153e-102
3.16457e-40 -1.27758e-100 -1.27758e-100
9.87818e-42 -6.5294e-99 -6.5294e-99
2.9942e-43 -3.24008e-97 -3.24008e-97
8.82055e-45 -1.55784e-95 -1.55784e-95
2.52739e-46 -7.23919e-94 -7.23919e-94
7.0492e-48 -3.24161e-92 -3.24161e-92
1.91517e-49 -1.39366e-90 -1.39366e-90
5.07192e-51 -5.72686e-89 -5.72686e-89
1.31012e-52 -2.23651e-87 -2.23651e-87
3.30285e-54 -8.23998e-86 -8.23998e-86
8.13126e-56 -2.83615e-84 -2.83615e-84
1.95595e-57 -8.99764e-83 -8.99764e-83
4.5996e-59 -2.58046e-81 -2.58046e-81
1.05794e-60 -6.49475e-80 -6.49475e-80
2.38115e-62 -1.36564e-78 -1.36564e-78
5.24693e-64 -2.18536e-77 -2.18536e-77
1.15633e-65 -2.12504e-76 -2.12504e-76
1.15121e-65 -3.83014e-76 -3.83014e-76
0.0148 -7.83851e-165 -5.6533e-165
0.0165867 -2.04734e-160 9.52321e-161
0.0132024 -2.67608e-158 -2.75941e-158
0.00592043 -2.82145e-156 -1.09149e-155
0.00142609 -2.25403e-154 -4.7772e-154
0.000229744 -1.52114e-152 -1.83538e-152
3.01016e-05 -8.8478e-151 -9.12398e-151
3.06853e-06 -3.81847e-149 -3.83268e-149
1.07267e-07 -3.73149e-149 -9.92051e-146
9.04327e-09 0 -8.31158e-144
7.83699e-10 -8.48241e-142 -8.56448e-142
6.90605e-11 -6.81639e-140 -6.81639e-140
5.66788e-12 -5.33835e-138 -5.33835e-138
4.34686e-13 -4.12482e-136 -4.12482e-136
3.1254e-14 -3.14371e-134 -3.14371e-134
2.11331e-15 -2.36268e-132 -2.36268e-132
1.3478e-16 -1.75055e-130 -1.75055e-130
8.12991e-18 -1.27827e-128 -1.27827e-128
4.65012e-19 -9.19637e-127 -9.19637e-127
2.52812e-20 -6.51647e-125 -6.51647e-125
1.30933e-21 -4.54631e-123 -4.54631e-123
6.47314e-23 -3.12171e-121 -3.12171e-121
3.06073e-24 -2.10882e-119 -2.10882e-119
1.38659e-25 -1.40092e-117 -1.40092e-117