# vtk DataFile Version 2.0
Tobias Weinzierl: CPU, Manycore and Cluster Computing
ASCII

DATASET STRUCTURED_POINTS
DIMENSIONS  51 11 6

ORIGIN 0 0 0 

SPACING 0.1 0.1 0.1 

POINT_DATA 3366

VECTORS velocity float
0 0 0
5.02211e-12 0 0
9.88956e-09 0 0
3.31868e-10 0 0
-4.94002e-08 0 0
-1.57141e-08 0 0
-1.02223e-08 0 0
-1.1418e-08 0 0
-1.0124e-08 0 0
-5.43354e-09 0 0
-2.12318e-09 0 0
-6.4573e-09 0 0
-1.75954e-08 0 0
-2.88336e-08 0 0
-3.48864e-08 0 0
-3.58759e-08 0 0
-3.49003e-08 0 0
-3.43654e-08 0 0
-3.49265e-08 0 0
-3.62221e-08 0 0
-3.77099e-08 0 0
-3.90323e-08 0 0
-4.00493e-08 0 0
-4.07582e-08 0 0
-4.12162e-08 0 0
-4.14926e-08 0 0
-4.16475e-08 0 0
-4.17251e-08 0 0
-4.17534e-08 0 0
-4.17461e-08 0 0
-4.17043e-08 0 0
-4.16174e-08 0 0
-4.14567e-08 0 0
-4.11559e-08 0 0
-4.06109e-08 0 0
-3.97406e-08 0 0
-3.85523e-08 0 0
-3.71238e-08 0 0
-3.55384e-08 0 0
-3.38443e-08 0 0
-3.20545e-08 0 0
-3.01619e-08 0 0
-2.81555e-08 0 0
-2.60443e-08 0 0
-2.3882e-08 0 0
-2.17698e-08 0 0
-1.98369e-08 0 0
-1.82136e-08 0 0
-1.70158e-08 0 0
-1.63829e-08 0 0
0.00150839 0 0
0 3.94555e-07 0
5.07708e-12 -9.6769e-09 0
1.74946e-08 -1.54656e-08 0
7.29223e-09 1.76231e-09 0
-6.20824e-08 -1.88739e-08 0
-6.44386e-09 -2.10372e-08 0
-7.14509e-09 2.56158e-08 0
-1.91749e-08 3.80635e-08 0
-2.27411e-08 2.90514e-08 0
-1.87091e-08 1.73113e-08 0
-1.36552e-08 1.3117e-08 0
-1.85752e-08 1.70767e-08 0
-3.5208e-08 1.97111e-08 0
-5.30579e-08 1.52808e-08 0
-6.26807e-08 7.25899e-09 0
-6.48991e-08 1.49369e-09 0
-6.56691e-08 -2.54523e-10 0
-6.86389e-08 3.4869e-10 0
-7.3869e-08 1.34937e-09 0
-7.98981e-08 1.86806e-09 0
-8.54197e-08 1.85501e-09 0
-8.97937e-08 1.54292e-09 0
-9.29225e-08 1.14652e-09 0
-9.49886e-08 7.87174e-10 0
-9.62578e-08 5.10498e-10 0
-9.69764e-08 3.19705e-10 0
-9.7334e-08 1.9981e-10 0
-9.74588e-08 1.30593e-10 0
-9.74253e-08 9.18489e-11 0
-9.7263e-08 6.46191e-11 0
-9.69625e-08 3.04443e-11 0
-9.64815e-08 -3.52414e-11 0
-9.57411e-08 -1.78765e-10 0
-9.45819e-08 -4.64455e-10 0
-9.27319e-08 -9.14951e-10 0
-8.99396e-08 -1.45714e-09 0
-8.61792e-08 -1.97368e-09 0
-8.16381e-08 -2.40118e-09 0
-7.65449e-08 -2.75121e-09 0
-7.10628e-08 -3.06351e-09 0
-6.52907e-08 -3.36545e-09 0
-5.92936e-08 -3.65978e-09 0
-5.31194e-08 -3.91966e-09 0
-4.68383e-08 -4.08618e-09 0
-4.06039e-08 -4.08633e-09 0
-3.46736e-08 -3.8667e-09 0
-2.93642e-08 -3.41242e-09 0
-2.49908e-08 -2.73578e-09 0
-2.18077e-08 -1.83477e-09 0
-2.00635e-08 -7.88433e-10 0
0.00416139 -1.07487e-05 0
0 -2.30694e-08 0
1.88454e-12 -8.15889e-09 0
2.17591e-08 -2.59836e-08 0
3.59962e-08 -4.56774e-08 0
1.16393e-08 -9.72835e-08 0
6.20017e-08 -7.72117e-08 0
3.3846e-08 3.55529e-09 0
-3.94546e-09 1.8472e-08 0
-3.53592e-08 1.27313e-08 0
-4.13044e-08 1.21414e-08 0
-3.35397e-08 1.28359e-08 0
-3.04564e-08 1.1279e-08 0
-4.1165e-08 9.89163e-09 0
-5.59471e-08 1.16359e-08 0
-6.29555e-08 1.58104e-08 0
-6.2612e-08 1.94303e-08 0
-6.13308e-08 2.05409e-08 0
-6.30872e-08 1.91647e-08 0
-6.79096e-08 1.62353e-08 0
-7.40238e-08 1.27165e-08 0
-7.97741e-08 9.31491e-09 0
-8.43073e-08 6.43099e-09 0
-8.74612e-08 4.20413e-09 0
-8.94386e-08 2.60402e-09 0
-9.05491e-08 1.51943e-09 0
-9.10751e-08 8.18574e-10 0
-9.12247e-08 3.798e-10 0
-9.11286e-08 1.01864e-10 0
-9.08515e-08 -9.74861e-11 0
-9.04054e-08 -2.88533e-10 0
-8.97548e-08 -5.3528e-10 0
-8.88242e-08 -9.0134e-10 0
-8.75209e-08 -1.47926e-09 0
-8.56935e-08 -2.4142e-09 0
-8.29981e-08 -3.79756e-09 0
-7.89972e-08 -5.49272e-09 0
-7.35627e-08 -7.19265e-09 0
-6.69587e-08 -8.66721e-09 0
-5.95483e-08 -9.8596e-09 0
-5.16142e-08 -1.07979e-08 0
-4.33693e-08 -1.15082e-08 0
-3.49991e-08 -1.19975e-08 0
-2.66352e-08 -1.22469e-08 0
-1.83702e-08 -1.21864e-08 0
-1.03624e-08 -1.17041e-08 0
-2.89889e-09 -1.07094e-08 0
3.65755e-09 -9.17961e-09 0
8.95641e-09 -7.15511e-09 0
1.27576e-08 -4.72616e-09 0
1.49458e-08 -2.12915e-09 0
0.00568486 -2.63421e-05 0
0 -6.48139e-07 0
7.63137e-12 -1.27165e-08 0
2.65372e-08 -4.33427e-08 0
4.80585e-08 -8.16584e-08 0
1.5601e-08 -1.09343e-07 0
5.27314e-08 -5.83423e-08 0
3.07798e-08 -4.19138e-11 0
3.81138e-09 -6.14978e-09 0
-4.60794e-08 -2.38951e-08 0
-5.87642e-08 -4.12321e-08 0
-5.10873e-08 -4.80315e-08 0
-5.32697e-08 -4.05156e-08 0
-6.87637e-08 -1.64251e-08 0
-8.52557e-08 1.19218e-08 0
-8.97984e-08 3.05689e-08 0
-8.26054e-08 3.64252e-08 0
-7.07412e-08 3.39418e-08 0
-6.0666e-08 2.82328e-08 0
-5.49684e-08 2.20049e-08 0
-5.30036e-08 1.62337e-08 0
-5.30224e-08 1.12991e-08 0
-5.36238e-08 7.37827e-09 0
-5.41121e-08 4.48186e-09 0
-5.42953e-08 2.48299e-09 0
-5.42104e-08 1.18447e-09 0
-5.39503e-08 3.79867e-10 0
-5.35892e-08 -1.12539e-10 0
-5.31636e-08 -4.39821e-10 0
-5.26743e-08 -7.18987e-10 0
-5.20953e-08 -1.05009e-09 0
-5.13733e-08 -1.52778e-09 0
-5.04176e-08 -2.2372e-09 0
-4.91456e-08 -3.27842e-09 0
-4.75036e-08 -4.85657e-09 0
-4.5184e-08 -7.19738e-09 0
-4.1502e-08 -1.01724e-08 0
-3.60886e-08 -1.32331e-08 0
-2.92704e-08 -1.58633e-08 0
-2.15577e-08 -1.78604e-08 0
-1.33241e-08 -1.92223e-08 0
-4.85274e-09 -1.99977e-08 0
3.57934e-09 -2.02554e-08 0
1.18088e-08 -2.00684e-08 0
1.98135e-08 -1.94329e-08 0
2.75259e-08 -1.82358e-08 0
3.46964e-08 -1.6352e-08 0
4.09697e-08 -1.37538e-08 0
4.60183e-08 -1.05219e-08 0
4.96487e-08 -6.85561e-09 0
5.1875e-08 -3.28699e-09 0
0.00614378 -4.20893e-05 0
0 -1.25319e-06 0
-2.13554e-12 -2.23177e-08 0
1.1486e-08 -5.96717e-08 0
1.27952e-08 -7.56776e-08 0
-2.08425e-08 -5.89039e-08 0
-1.52404e-11 -2.06042e-08 0
-1.85065e-10 -2.46212e-10 0
2.1456e-10 -2.38644e-10 0
-2.33372e-08 -2.47508e-08 0
-6.64787e-08 -6.53503e-08 0
-7.86511e-08 -7.82818e-08 0
-8.55581e-08 -5.87603e-08 0
-1.00495e-07 -1.92385e-08 0
-1.12533e-07 1.88114e-08 0
-1.14577e-07 3.78076e-08 0
-1.05108e-07 3.8531e-08 0
-8.73536e-08 3.05568e-08 0
-6.81945e-08 2.17746e-08 0
-5.30868e-08 1.48642e-08 0
-4.33806e-08 9.70526e-09 0
-3.7784e-08 5.81647e-09 0
-3.45655e-08 2.97433e-09 0
-3.25468e-08 1.04989e-09 0
-3.11356e-08 -1.27588e-10 0
-3.00768e-08 -7.68082e-10 0
-2.9258e-08 -1.0759e-09 0
-2.8613e-08 -1.22125e-09 0
-2.80871e-08 -1.33549e-09 0
-2.76272e-08 -1.51958e-09 0
-2.71844e-08 -1.86106e-09 0
-2.67128e-08 -2.45703e-09 0
-2.6126e-08 -3.40516e-09 0
-2.53218e-08 -4.78412e-09 0
-2.43557e-08 -6.80749e-09 0
-2.31084e-08 -9.90617e-09 0
-2.06021e-08 -1.41337e-08 0
-1.59152e-08 -1.8707e-08 0
-9.35167e-09 -2.26596e-08 0
-1.607e-09 -2.5509e-08 0
6.82511e-09 -2.71859e-08 0
1.55618e-08 -2.77897e-08 0
2.41806e-08 -2.75139e-08 0
3.24707e-08 -2.66102e-08 0
4.05065e-08 -2.52175e-08 0
4.83147e-08 -2.32536e-08 0
5.56407e-08 -2.05571e-08 0
6.20864e-08 -1.70839e-08 0
6.73141e-08 -1.29403e-08 0
7.11377e-08 -8.38236e-09 0
7.35771e-08 -4.20586e-09 0
0.00619551 -5.49339e-05 0
0 -1.1263e-06 0
-1.68813e-11 -2.37757e-08 0
-2.98225e-09 -4.96442e-08 0
-9.5875e-09 -5.95652e-08 0
-3.89768e-08 -6.71586e-08 0
-3.06074e-08 -3.34682e-08 0
-2.00178e-10 1.91881e-10 0
2.26793e-11 -2.26793e-11 0
1.98999e-10 -2.30122e-10 0
-3.57434e-08 -3.53342e-08 0
-9.02094e-08 -8.13747e-08 0
-9.30127e-08 -7.03178e-08 0
-9.68392e-08 -2.08746e-08 0
-1.01969e-07 2.4132e-08 0
-1.0892e-07 4.39361e-08 0
-1.09852e-07 3.95227e-08 0
-9.77694e-08 2.47402e-08 0
-7.70715e-08 1.15479e-08 0
-5.69006e-08 3.4574e-09 0
-4.22305e-08 -7.91299e-10 0
-3.3151e-08 -2.89971e-09 0
-2.78942e-08 -3.80532e-09 0
-2.48461e-08 -3.97006e-09 0
-2.30176e-08 -3.69831e-09 0
-2.1884e-08 -3.22934e-09 0
-2.11699e-08 -2.73997e-09 0
-2.07198e-08 -2.34705e-09 0
-2.04386e-08 -2.12454e-09 0
-2.02618e-08 -2.12414e-09 0
-2.01463e-08 -2.39393e-09 0
-2.00792e-08 -3.01185e-09 0
-2.00178e-08 -4.0992e-09 0
-1.98134e-08 -5.73394e-09 0
-1.95477e-08 -8.05945e-09 0
-1.94816e-08 -1.16801e-08 0
-1.85107e-08 -1.70616e-08 0
-1.47201e-08 -2.33311e-08 0
-8.18414e-09 -2.89051e-08 0
1.33009e-10 -3.27952e-08 0
9.4781e-09 -3.47764e-08 0
1.9226e-08 -3.50407e-08 0
2.87426e-08 -3.39792e-08 0
3.77985e-08 -3.21105e-08 0
4.66033e-08 -2.98004e-08 0
5.52583e-08 -2.7035e-08 0
6.34346e-08 -2.36082e-08 0
7.06356e-08 -1.94366e-08 0
7.64976e-08 -1.46178e-08 0
8.0839e-08 -9.41805e-09 0
8.35939e-08 -4.81093e-09 0
0.00609451 -6.29636e-05 0
0 -7.82985e-07 0
-1.03079e-11 -1.65491e-08 0
-3.70115e-09 -4.13924e-08 0
-9.89052e-09 -5.12876e-08 0
-5.38938e-08 -4.6986e-08 0
-7.35198e-08 -2.4789e-08 0
-2.69256e-08 -4.24459e-09 0
-1.95267e-10 1.88496e-10 0
1.05035e-11 -1.05035e-11 0
1.76121e-10 -2.21878e-10 0
-4.0638e-08 -4.57805e-08 0
-6.0655e-08 -6.96867e-08 0
-6.406e-08 -1.69229e-08 0
-6.2782e-08 3.37274e-08 0
-7.19689e-08 5.46998e-08 0
-8.66397e-08 4.48789e-08 0
-8.95214e-08 2.18102e-08 0
-7.69023e-08 2.53761e-09 0
-5.87399e-08 -7.71781e-09 0
-4.39032e-08 -1.12801e-08 0
-3.4774e-08 -1.13938e-08 0
-3.00776e-08 -1.00422e-08 0
-2.79709e-08 -8.21778e-09 0
-2.71666e-08 -6.4156e-09 0
-2.69613e-08 -4.87576e-09 0
-2.70145e-08 -3.69115e-09 0
-2.71749e-08 -2.8753e-09 0
-2.73834e-08 -2.41241e-09 0
-2.76231e-08 -2.29088e-09 0
-2.78934e-08 -2.51782e-09 0
-2.82299e-08 -3.14002e-09 0
-2.86786e-08 -4.29603e-09 0
-2.9093e-08 -6.13206e-09 0
-2.94483e-08 -8.71426e-09 0
-3.04434e-08 -1.26255e-08 0
-3.12729e-08 -1.88008e-08 0
-2.85406e-08 -2.65126e-08 0
-2.16438e-08 -3.35732e-08 0
-1.20226e-08 -3.84049e-08 0
-8.59022e-10 -4.06271e-08 0
1.07446e-08 -4.05696e-08 0
2.19166e-08 -3.87871e-08 0
3.25278e-08 -3.60296e-08 0
4.2913e-08 -3.29118e-08 0
5.31595e-08 -2.95142e-08 0
6.27805e-08 -2.55793e-08 0
7.11562e-08 -2.09692e-08 0
7.79243e-08 -1.57525e-08 0
8.29487e-08 -1.01581e-08 0
8.60383e-08 -5.19474e-09 0
0.00591876 -6.62727e-05 0
0 -5.49657e-07 0
-1.68543e-12 -1.28536e-08 0
-2.97812e-09 -3.14342e-08 0
-1.60484e-08 -3.83711e-08 0
-5.62874e-08 -3.01485e-08 0
-8.69817e-08 -1.01889e-08 0
-6.91251e-08 -2.5352e-09 0
-3.36301e-08 -2.70594e-09 0
-2.08957e-10 1.68036e-10 0
1.71128e-10 1.54959e-10 0
5.15653e-12 -2.32444e-08 0
-4.38507e-08 -3.2459e-08 0
-6.43383e-08 4.33181e-09 0
-4.90564e-08 4.16957e-08 0
-3.18253e-08 5.54309e-08 0
-3.8674e-08 4.27028e-08 0
-5.53315e-08 1.80591e-08 0
-6.16987e-08 -2.39581e-09 0
-5.75217e-08 -1.28203e-08 0
-5.1217e-08 -1.54585e-08 0
-4.74609e-08 -1.41491e-08 0
-4.65094e-08 -1.14616e-08 0
-4.71498e-08 -8.6733e-09 0
-4.83466e-08 -6.30792e-09 0
-4.95576e-08 -4.50981e-09 0
-5.05887e-08 -3.25318e-09 0
-5.14202e-08 -2.45723e-09 0
-5.21025e-08 -2.04514e-09 0
-5.27071e-08 -1.97318e-09 0
-5.33031e-08 -2.24076e-09 0
-5.39771e-08 -2.88424e-09 0
-5.48615e-08 -4.02142e-09 0
-5.59069e-08 -5.88261e-09 0
-5.69751e-08 -8.60453e-09 0
-5.90397e-08 -1.25744e-08 0
-6.20617e-08 -1.88167e-08 0
-6.07928e-08 -2.66361e-08 0
-5.30064e-08 -3.34285e-08 0
-4.15265e-08 -3.78102e-08 0
-2.77955e-08 -3.99534e-08 0
-1.3241e-08 -4.01933e-08 0
9.62215e-10 -3.87344e-08 0
1.46153e-08 -3.61557e-08 0
2.79352e-08 -3.31503e-08 0
4.07783e-08 -2.98503e-08 0
5.24365e-08 -2.59702e-08 0
6.22395e-08 -2.13749e-08 0
6.99362e-08 -1.61594e-08 0
7.55366e-08 -1.05416e-08 0
7.88145e-08 -5.42495e-09 0
0.00565524 -6.69932e-05 0
0 -4.70691e-07 0
2.35585e-12 -7.34108e-09 0
-3.52689e-09 -1.99133e-08 0
-2.52795e-08 -2.6916e-08 0
-6.82411e-08 -2.17926e-08 0
-9.99167e-08 -1.096e-09 0
-9.07536e-08 7.6553e-09 0
-7.35572e-08 -2.08023e-08 0
-4.55239e-08 -2.2105e-08 0
-3.99847e-08 -1.15436e-14 0
-4.38641e-08 4.45409e-09 0
-8.55903e-08 1.91133e-08 0
-1.09623e-07 3.14919e-08 0
-7.56576e-08 3.04751e-08 0
-2.52725e-08 2.21985e-08 0
-1.57528e-08 1.19009e-08 0
-4.07962e-08 2.50225e-09 0
-6.50076e-08 -4.04997e-09 0
-7.5409e-08 -7.10012e-09 0
-7.79777e-08 -7.51807e-09 0
-7.9142e-08 -6.62623e-09 0
-8.09116e-08 -5.32926e-09 0
-8.30957e-08 -4.06719e-09 0
-8.51905e-08 -3.01647e-09 0
-8.69364e-08 -2.22471e-09 0
-8.82977e-08 -1.68205e-09 0
-8.935e-08 -1.36184e-09 0
-9.02052e-08 -1.24258e-09 0
-9.09804e-08 -1.32128e-09 0
-9.17901e-08 -1.6259e-09 0
-9.2764e-08 -2.21347e-09 0
-9.40832e-08 -3.16576e-09 0
-9.58345e-08 -4.68308e-09 0
-9.79765e-08 -7.04958e-09 0
-1.01583e-07 -1.04835e-08 0
-1.07403e-07 -1.54568e-08 0
-1.08625e-07 -2.09307e-08 0
-1.00214e-07 -2.42085e-08 0
-8.81483e-08 -2.56191e-08 0
-7.34368e-08 -2.72959e-08 0
-5.6489e-08 -2.90721e-08 0
-3.83065e-08 -2.97154e-08 0
-2.02017e-08 -2.89393e-08 0
-2.91998e-09 -2.72892e-08 0
1.29594e-08 -2.49938e-08 0
2.66214e-08 -2.19222e-08 0
3.75674e-08 -1.80948e-08 0
4.58295e-08 -1.37025e-08 0
5.1648e-08 -9.01422e-09 0
5.48658e-08 -4.74873e-09 0
0.00513776 -6.44153e-05 0
0 -4.88589e-07 0
9.9754e-12 -2.22734e-09 0
-4.85426e-09 -7.67112e-09 0
-3.16035e-08 -1.17775e-08 0
-7.29411e-08 -1.01504e-08 0
-1.03342e-07 -5.15071e-09 0
-9.77246e-08 -1.59694e-09 0
-8.35893e-08 -1.09431e-08 0
-9.68683e-08 -1.23438e-08 0
-8.97869e-08 6.15378e-09 0
-7.93498e-08 2.2918e-08 0
-7.77138e-08 3.15852e-08 0
-7.30864e-08 2.7002e-08 0
-4.39292e-08 1.09917e-08 0
-1.45953e-08 -7.85478e-09 0
-2.09573e-08 -1.89428e-08 0
-5.2531e-08 -1.75263e-08 0
-7.90912e-08 -9.15885e-09 0
-9.03125e-08 -1.9553e-09 0
-9.24047e-08 1.17848e-09 0
-9.21338e-08 1.53305e-09 0
-9.21611e-08 9.25967e-10 0
-9.27863e-08 2.99126e-10 0
-9.36976e-08 -9.45084e-11 0
-9.46295e-08 -2.8507e-10 0
-9.5467e-08 -3.63196e-10 0
-9.62012e-08 -4.03767e-10 0
-9.68796e-08 -4.57674e-10 0
-9.75798e-08 -5.60993e-10 0
-9.84026e-08 -7.47242e-10 0
-9.94831e-08 -1.05817e-09 0
-1.01004e-07 -1.53959e-09 0
-1.03136e-07 -2.2797e-09 0
-1.06102e-07 -3.4985e-09 0
-1.10894e-07 -5.23185e-09 0
-1.1793e-07 -7.08833e-09 0
-1.20555e-07 -8.50557e-09 0
-1.13141e-07 -8.57114e-09 0
-1.04478e-07 -8.28779e-09 0
-9.49854e-08 -9.78172e-09 0
-8.31436e-08 -1.25238e-08 0
-6.80267e-08 -1.44926e-08 0
-5.14278e-08 -1.47288e-08 0
-3.54613e-08 -1.37308e-08 0
-2.11491e-08 -1.2181e-08 0
-9.09576e-09 -1.0343e-08 0
4.59076e-10 -8.29052e-09 0
7.66184e-09 -6.0903e-09 0
1.27382e-08 -3.90013e-09 0
1.54685e-08 -2.10035e-09 0
0.0037892 -4.52394e-05 0
0 0 0
7.29799e-12 0 0
-2.68945e-09 0 0
-1.5842e-08 0 0
-3.39484e-08 0 0
-4.74797e-08 0 0
-4.91746e-08 0 0
-4.36588e-08 0 0
-5.13648e-08 0 0
-4.98072e-08 0 0
-3.54806e-08 0 0
-1.77051e-08 0 0
-5.29752e-09 0 0
2.48488e-09 0 0
1.84069e-09 0 0
-1.0999e-08 0 0
-2.81399e-08 0 0
-3.96093e-08 0 0
-4.35003e-08 0 0
-4.32464e-08 0 0
-4.20037e-08 0 0
-4.10879e-08 0 0
-4.06929e-08 0 0
-4.06563e-08 0 0
-4.07996e-08 0 0
-4.10145e-08 0 0
-4.12543e-08 0 0
-4.15136e-08 0 0
-4.18126e-08 0 0
-4.21908e-08 0 0
-4.27095e-08 0 0
-4.34527e-08 0 0
-4.45163e-08 0 0
-4.60804e-08 0 0
-4.85872e-08 0 0
-5.19283e-08 0 0
-5.31396e-08 0 0
-4.99482e-08 0 0
-4.71093e-08 0 0
-4.47606e-08 0 0
-4.16957e-08 0 0
-3.6666e-08 0 0
-3.03308e-08 0 0
-2.40327e-08 0 0
-1.83798e-08 0 0
-1.35757e-08 0 0
-9.69098e-09 0 0
-6.68762e-09 0 0
-4.52139e-09 0 0
-3.35565e-09 0 0
0.00139884 0 0
0 0 5.44836e-07
6.74471e-12 0 -2.12788e-10
2.03239e-08 0 1.51386e-08
1.82292e-08 0 5.75273e-08
-1.28844e-07 0 3.49198e-08
-4.6217e-08 0 -1.81408e-08
-2.03552e-08 0 -2.99121e-08
-3.66838e-09 0 -3.81618e-08
1.14471e-08 0 -3.5036e-08
2.86899e-08 0 -2.53123e-08
4.34869e-08 0 -1.20934e-08
4.21567e-08 0 -1.60465e-09
2.08002e-08 0 2.66513e-09
-9.71765e-09 0 2.01013e-09
-3.53957e-08 0 -2.16747e-10
-5.12707e-08 0 -1.47994e-09
-6.07783e-08 0 -1.25613e-09
-6.83798e-08 0 -3.22569e-10
-7.58634e-08 0 5.07318e-10
-8.30031e-08 0 9.15303e-10
-8.91161e-08 0 9.55105e-10
-9.38358e-08 0 7.96379e-10
-9.71834e-08 0 5.79285e-10
-9.93965e-08 0 3.79649e-10
-1.00769e-07 0 2.23777e-10
-1.01564e-07 0 1.1153e-10
-1.01983e-07 0 3.26744e-11
-1.02161e-07 0 -2.46913e-11
-1.02181e-07 0 -7.08856e-11
-1.02079e-07 0 -1.13834e-10
-1.01854e-07 0 -1.59191e-10
-1.01468e-07 0 -2.12339e-10
-1.00838e-07 0 -2.8285e-10
-9.97913e-08 0 -3.81477e-10
-9.80448e-08 0 -5.00317e-10
-9.53491e-08 0 -6.01498e-10
-9.16674e-08 0 -6.4316e-10
-8.71624e-08 0 -6.12693e-10
-8.2047e-08 0 -5.28372e-10
-7.64849e-08 0 -4.20459e-10
-7.05819e-08 0 -3.16976e-10
-6.4412e-08 0 -2.3926e-10
-5.80376e-08 0 -1.97891e-10
-5.15457e-08 0 -1.87319e-10
-4.5099e-08 0 -1.88206e-10
-3.89561e-08 0 -1.78359e-10
-3.34345e-08 0 -1.43815e-10
-2.88573e-08 0 -8.53643e-11
-2.55095e-08 0 4.12889e-12
-2.36971e-08 0 1.54688e-10
0.00413966 0 1.12942e-05
0.0036 -3.0878e-07 -6.07131e-08
0.00359981 -0.00133661 -2.77622e-08
0.00673734 -0.0038286 8.90635e-05
0.0135924 -0.0061437 -0.000793916
0.0237608 -0.0143685 -0.00454241
0.0461239 -0.0128399 -0.00493181
0.0495394 -0.00166043 -0.00168662
0.0492686 0.00281532 -0.000197577
0.0441951 0.00509819 0.000525192
0.0384883 0.00526243 0.000498558
0.0333201 0.0046001 0.000226446
0.029036 0.00365858 -5.87454e-05
0.0256922 0.0026612 -0.000266076
0.0231874 0.00178013 -0.000348942
0.021357 0.00112908 -0.000314182
0.02004 0.000713415 -0.000217858
0.0191072 0.000465507 -0.000120515
0.0184599 0.00031372 -5.2316e-05
0.018022 0.000213376 -1.50171e-05
0.0177342 0.000143308 1.16712e-06
0.0175505 9.40789e-05 6.10662e-06
0.0174362 6.04384e-05 6.22493e-06
0.0173663 3.84915e-05 4.83408e-06
0.0173234 2.50804e-05 3.33597e-06
0.0172955 1.77606e-05 2.18265e-06
0.0172747 1.47951e-05 1.43342e-06
0.0172556 1.50812e-05 1.02398e-06
0.0172339 1.80452e-05 8.77746e-07
0.0172061 2.3546e-05 9.4424e-07
0.0171685 3.18035e-05 1.2096e-06
0.017117 4.33444e-05 1.69594e-06
0.0170462 5.89337e-05 2.44776e-06
0.0169495 7.95443e-05 3.54508e-06
0.0168186 0.000106472 5.23061e-06
0.016643 0.000141056 7.94818e-06
0.0164111 0.000183022 1.18643e-05
0.0161124 0.000228505 1.6295e-05
0.0157444 0.000270376 1.99511e-05
0.0153154 0.000300966 2.17593e-05
0.0148439 0.000314935 2.1382e-05
0.0143543 0.000310731 1.91862e-05
0.0138718 0.000290434 1.59592e-05
0.0134185 0.0002585 1.26034e-05
0.0130108 0.000219962 9.80983e-06
0.0126584 0.000178852 7.8225e-06
0.0123667 0.000137493 6.45397e-06
0.0121379 9.66887e-05 5.25974e-06
0.0119727 5.64339e-05 3.76898e-06
0.0118704 1.93172e-05 3.96986e-06
0.0118289 -1.01782e-06 1.62487e-05
0.0118289 -4.24887e-06 2.74551e-05
0.01 -1.43135e-07 -1.4709e-06
0.0100008 -0.00299136 -0.000560791
0.0148457 -0.00989348 -0.00074236
0.0241369 -0.0177361 -0.00143273
0.0382 -0.0320444 -0.00348202
0.0585249 -0.0240936 -0.000811291
0.0558794 -0.00243004 0.00301118
0.0554262 0.0053915 0.00314322
0.0496851 0.010449 0.0027158
0.044193 0.0105913 0.00182046
0.0397 0.00943493 0.000893982
0.0359908 0.0078805 0.000152344
0.0329769 0.00624181 -0.000356497
0.0306389 0.00471741 -0.000579611
0.0288768 0.00342719 -0.000545804
0.0275865 0.00241132 -0.000383112
0.0266729 0.00165232 -0.000213904
0.0260476 0.00110626 -9.46245e-05
0.0256341 0.000724168 -2.87678e-05
0.0253704 0.000463312 3.93779e-07
0.0252084 0.000289949 9.78873e-06
0.0251123 0.000178321 1.05075e-05
0.0250564 0.000109224 8.32647e-06
0.0250234 6.88336e-05 5.73426e-06
0.0250016 4.76374e-05 3.56745e-06
0.0249833 3.94605e-05 1.96318e-06
0.0249632 4.06245e-05 8.20366e-07
0.0249371 4.92953e-05 -7.87562e-09
0.024901 6.50229e-05 -6.46557e-07
0.0248505 8.84513e-05 -1.17794e-06
0.02478 0.000121162 -1.62774e-06
0.0246823 0.000165514 -1.98033e-06
0.0245478 0.000224356 -2.20841e-06
0.0243647 0.000301023 -2.00601e-06
0.0241183 0.00039908 -4.02292e-07
0.023791 0.000518936 3.37263e-06
0.0233649 0.000652335 8.23854e-06
0.0228324 0.000781846 1.15817e-05
0.0222016 0.000886955 1.12864e-05
0.021497 0.000951339 6.95776e-06
0.0207527 0.000967149 -2.86557e-07
0.0200066 0.000935628 -8.51485e-06
0.0192933 0.000865039 -1.5621e-05
0.0186401 0.00076695 -2.00515e-05
0.0180653 0.000652278 -2.13742e-05
0.0175799 0.000528867 -2.022e-05
0.0171901 0.000401451 -1.77392e-05
0.0168989 0.000272958 -1.52339e-05
0.0167067 0.000146355 -1.11511e-05
0.0166152 3.72932e-05 1.21744e-05
0.016615 -9.38219e-06 3.2506e-05
0.0148 -9.74198e-07 -1.75975e-06
0.0148024 -0.0052779 -0.00110877
0.0202777 -0.0162746 -0.00239232
0.0271796 -0.0283679 -0.004008
0.0316908 -0.0453574 -0.00567452
0.0302056 -0.0280059 -0.00124307
0.0265772 -1.22218e-05 0.00321287
0.0261167 0.00719487 0.00332067
0.0299202 0.0147898 0.00314821
0.0303801 0.0143577 0.00217313
0.0295446 0.0126254 0.00118787
0.0286191 0.0107439 0.000328366
0.0278642 0.00864264 -0.000239673
0.0274932 0.00651199 -0.000476598
0.0273959 0.00465429 -0.000445107
0.0274358 0.00319774 -0.000294551
0.0275187 0.00213618 -0.000142824
0.0275978 0.00139661 -3.93215e-05
0.0276606 0.000893954 1.36119e-05
0.0277094 0.000558689 3.18658e-05
0.0277486 0.000340481 3.21168e-05
0.02778 0.000203384 2.55925e-05
0.0278041 0.00012153 1.80469e-05
0.0278202 7.6612e-05 1.1693e-05
0.0278281 5.62403e-05 6.97756e-06
0.0278273 5.26055e-05 3.66107e-06
0.0278171 6.13491e-05 1.33673e-06
0.0277961 8.0689e-05 -3.67408e-07
0.0277621 0.000110813 -1.73163e-06
0.0277115 0.000153505 -2.9405e-06
0.027639 0.000211984 -4.05361e-06
0.0275374 0.000290787 -4.9756e-06
0.0273962 0.00039519 -5.61934e-06
0.0272017 0.000530828 -5.65857e-06
0.0269369 0.000704296 -3.27203e-06
0.0265793 0.000918765 3.88029e-06
0.0261013 0.00116251 1.44192e-05
0.0254875 0.00140529 2.29387e-05
0.024746 0.00160915 2.4703e-05
0.0239079 0.00174254 1.85192e-05
0.0230186 0.0017888 6.21063e-06
0.0221269 0.0017477 -8.71639e-06
0.0212769 0.00163214 -2.22229e-05
0.0205017 0.00146197 -3.12139e-05
0.0198224 0.00125693 -3.47441e-05
0.0192503 0.0010319 -3.39004e-05
0.0187916 0.00079608 -3.06315e-05
0.0184498 0.000555031 -2.68887e-05
0.0182257 0.000314081 -2.19705e-05
0.0181198 9.08375e-05 5.49136e-06
0.0181195 -1.27249e-05 2.97904e-05
0.018 -1.97711e-06 -1.73755e-06
0.0180029 -0.00688573 -0.00188779
0.020634 -0.0185835 -0.00490076
0.0205071 -0.0243443 -0.00632371
0.0159624 -0.0264808 -0.00755048
-1.57866e-06 -0.0138439 -0.00424081
9.60019e-05 2.46117e-05 9.01435e-07
-3.15288e-05 3.30189e-05 0.000606468
0.00677219 0.00433839 0.00130405
0.0140058 0.00994378 0.00123537
0.0174618 0.0109271 0.000809193
0.0191348 0.00984863 0.000248393
0.0207903 0.00791566 -0.000205198
0.0225173 0.00573424 -0.000383091
0.0241074 0.00388574 -0.000349595
0.0254452 0.00251582 -0.000227037
0.0264871 0.00158424 -9.99305e-05
0.0272432 0.000980348 -8.72011e-06
0.0277635 0.000594238 3.8469e-05
0.0281108 0.00034858 5.20396e-05
0.0283394 0.000195808 4.72765e-05
0.0284883 0.000105856 3.6008e-05
0.0285836 5.81712e-05 2.46405e-05
0.0286423 3.84463e-05 1.55598e-05
0.0286755 3.72719e-05 9.05444e-06
0.0286902 4.91825e-05 4.62312e-06
0.0286903 7.1787e-05 1.62074e-06
0.0286776 0.00010507 -4.94556e-07
0.0286519 0.000150935 -2.09582e-06
0.0286111 0.000212957 -3.4004e-06
0.0285509 0.000296342 -4.43779e-06
0.0284647 0.000408141 -4.85845e-06
0.0283427 0.000556694 -4.19752e-06
0.0281694 0.000750376 -2.12225e-06
0.027925 0.000999804 4.41947e-06
0.027581 0.00131491 2.16189e-05
0.0270938 0.00168388 4.89515e-05
0.0264328 0.00206091 7.51653e-05
0.0256056 0.0023839 8.86946e-05
0.0246553 0.00260042 8.51645e-05
0.023644 0.00268275 6.68656e-05
0.0226366 0.0026298 4.04518e-05
0.0216876 0.00246153 1.41616e-05
0.0208343 0.00220899 -5.6985e-06
0.0200962 0.001903 -1.71694e-05
0.0194815 0.00156644 -2.20889e-05
0.0189938 0.00121321 -2.36642e-05
0.0186342 0.000851531 -2.4739e-05
0.018402 0.000489138 -2.48562e-05
0.0182959 0.000148106 -1.10069e-06
0.0182955 -1.26828e-05 2.2052e-05
0.0196 -2.80442e-06 -2.6371e-06
0.0196009 -0.00572765 -0.00274157
0.0190798 -0.0127944 -0.00643785
0.0160422 -0.0156999 -0.00666826
0.0110604 -0.0146502 -0.00669316
0.00184914 -0.00601986 -0.00496956
7.09891e-05 -6.49488e-05 -0.00124584
3.342e-05 -3.342e-05 -4.00261e-08
-3.08274e-05 3.22301e-05 0.000220709
0.00422362 0.00311895 0.000462553
0.00976062 0.00731465 0.000389613
0.0126628 0.0075673 5.71821e-05
0.0158985 0.00561374 -0.000291749
0.0190471 0.00357157 -0.000409763
0.0217555 0.00201746 -0.000377952
0.0239486 0.000992473 -0.000278812
0.0256251 0.000411108 -0.000157892
0.0268216 0.00012605 -5.28879e-05
0.0276231 -2.61701e-07 1.29535e-05
0.0281366 -5.18598e-05 3.98124e-05
0.028457 -6.72831e-05 4.17472e-05
0.0286533 -6.28323e-05 3.31233e-05
0.0287713 -4.66776e-05 2.2693e-05
0.0288401 -2.35797e-05 1.40522e-05
0.028878 4.09911e-06 7.91299e-06
0.0288962 3.60494e-05 3.86293e-06
0.0289012 7.36607e-05 1.25887e-06
0.0288962 0.000119745 -4.30918e-07
0.0288822 0.000178457 -1.52086e-06
0.0288582 0.000255385 -2.11402e-06
0.0288213 0.000357726 -2.11352e-06
0.028766 0.000494991 -7.50491e-07
0.0286833 0.000679273 3.46121e-06
0.0285565 0.000922681 1.12108e-05
0.028361 0.00124039 2.7122e-05
0.0280605 0.001654 6.60288e-05
0.027586 0.00215822 0.000133352
0.0268785 0.00268888 0.000207078
0.0259463 0.00314968 0.000257955
0.0248541 0.00345995 0.000270816
0.023694 0.00357936 0.000247056
0.0225556 0.00350845 0.000200457
0.0215057 0.0032783 0.000148732
0.0205824 0.00293501 0.0001048
0.0197993 0.0025228 7.2605e-05
0.0191577 0.00207302 4.92141e-05
0.0186558 0.00160379 2.97504e-05
0.0182919 0.00112563 1.04408e-05
0.0180623 0.000648611 -8.02334e-06
0.0179617 0.000200978 -2.02782e-06
0.0179613 -9.90611e-06 1.24524e-05
0.0196 -1.33728e-06 -3.62803e-06
0.0196 -0.00358304 -0.00310645
0.0188618 -0.00777658 -0.00647168
0.0176235 -0.00765595 -0.00608738
0.0134021 -0.00382137 -0.00560421
0.0093312 0.00287869 -0.00521863
0.00622648 0.00323899 -0.00292967
7.11174e-05 -5.87802e-05 -0.000596887
2.79528e-05 -2.79528e-05 -1.29879e-07
-3.01533e-05 3.15016e-05 7.4038e-05
0.00309629 0.00241748 0.000337523
0.00764701 0.00383239 0.000291656
0.0130233 0.00182901 -7.18517e-05
0.0176678 0.000221882 -0.000248151
0.021227 -0.000706186 -0.000312384
0.0238513 -0.00112347 -0.000309371
0.0257269 -0.00115388 -0.000241194
0.0269902 -0.000965351 -0.00014033
0.0277808 -0.000720708 -5.44054e-05
0.028245 -0.000507469 -5.19153e-06
0.0285052 -0.000345992 1.3215e-05
0.028646 -0.000228317 1.52017e-05
0.0287199 -0.000141821 1.14764e-05
0.0287572 -7.60355e-05 7.18291e-06
0.0287754 -2.28663e-05 3.95559e-06
0.0287838 2.4316e-05 1.92942e-06
0.0287875 7.14015e-05 8.26692e-07
0.028789 0.00012411 3.93241e-07
0.0287892 0.000188565 5.70522e-07
0.0287879 0.000271937 1.56922e-06
0.0287833 0.000382984 3.8041e-06
0.0287713 0.000533001 8.59311e-06
0.0287449 0.000737633 1.93335e-05
0.0286877 0.0010141 3.84316e-05
0.0285683 0.00138212 7.25895e-05
0.0283412 0.0018778 0.000153366
0.0279021 0.00251069 0.000305648
0.02714 0.00319662 0.00049002
0.0260658 0.00379409 0.000634206
0.0247835 0.00418947 0.000693918
0.0234356 0.00433235 0.000667613
0.0221471 0.00423019 0.000585287
0.0209951 0.00393027 0.000484265
0.0200114 0.0034966 0.000389753
0.0191968 0.00298723 0.000309638
0.0185416 0.00244065 0.000240288
0.0180376 0.00187736 0.000175359
0.0176792 0.00130908 0.000110593
0.0174599 0.000748447 4.76169e-05
0.0173693 0.000230986 1.11906e-05
0.0173689 -1.00063e-05 5.05207e-06
0.018 -8.67073e-07 -3.59488e-06
0.018001 -0.00192223 -0.00302978
0.0183612 -0.00361096 -0.00612343
0.0184969 -0.00225359 -0.00532739
0.0175793 0.00105582 -0.00431143
0.0173645 0.00734261 -0.00395957
0.0180785 0.0126565 -0.0028254
0.0111423 0.00693373 -0.00134187
7.27074e-05 -4.4853e-05 -0.000394505
-2.31196e-05 -5.25191e-05 5.59679e-07
7.90612e-06 -0.000458275 0.000757235
0.00869912 -0.00243191 0.00114106
0.0163527 -0.00427985 0.000588167
0.0214661 -0.00437834 0.000313494
0.0245329 -0.00384744 0.000111591
0.0262801 -0.00319418 -8.50177e-05
0.0272494 -0.00248666 -0.00019884
0.027758 -0.00178555 -0.000198242
0.0279913 -0.00119447 -0.00013711
0.0280711 -0.00076287 -7.515e-05
0.0280772 -0.00047385 -3.51771e-05
0.0280556 -0.000286764 -1.48584e-05
0.0280291 -0.000165284 -5.91578e-06
0.0280073 -8.3728e-05 -2.22596e-06
0.0279933 -2.49735e-05 -5.99247e-07
0.0279875 2.26068e-05 3.69558e-07
0.0279899 6.74662e-05 1.2837e-06
0.0280002 0.000116518 2.48441e-06
0.0280188 0.000176358 4.354e-06
0.0280463 0.000254378 7.57322e-06
0.0280828 0.000359754 1.31632e-05
0.0281269 0.000504293 2.31961e-05
0.028175 0.000705056 4.35599e-05
0.028214 0.000984358 8.08039e-05
0.0282083 0.0013667 0.000145642
0.0281029 0.00189831 0.000296434
0.0277573 0.00260337 0.000598043
0.0269734 0.00337813 0.000979639
0.0257638 0.00403964 0.00128384
0.0242891 0.00445527 0.00141645
0.0227645 0.00457662 0.0013785
0.0213527 0.00442553 0.00123361
0.0201314 0.00406727 0.00105131
0.0191155 0.00357947 0.000873702
0.0182887 0.00302708 0.000713143
0.0176303 0.00244889 0.000565131
0.0171274 0.00186295 0.000422064
0.0167727 0.00127964 0.000279829
0.0165589 0.000713542 0.000142265
0.0164732 0.000206644 3.74429e-05
0.0164728 -2.39452e-05 -9.45514e-07
0.0148 -4.8778e-07 -3.17808e-06
0.0148015 -0.000970291 -0.00280122
0.016284 -0.00143707 -0.00540141
0.0179809 0.000307135 -0.00436364
0.019497 0.00353105 -0.00322365
0.0213884 0.00753618 -0.00293857
0.025194 0.0129383 -0.00236645
0.028449 0.0195933 -0.00140368
0.0233285 0.0114345 -0.000270549
0.0237488 1.34186e-10 0.000646124
0.0269529 -0.00666131 0.00157432
0.0307505 -0.0131205 0.0021211
0.0318851 -0.0112707 0.0017133
0.0313394 -0.00808038 0.00132164
0.0301214 -0.0054433 0.000840116
0.0288003 -0.00361227 0.00029808
0.0276559 -0.00236041 -0.000100761
0.0267871 -0.00148761 -0.000248963
0.0261799 -0.000898455 -0.00022318
0.025776 -0.000526187 -0.000144979
0.0255158 -0.00030274 -7.9316e-05
0.0253526 -0.000170703 -3.91375e-05
0.0252537 -9.10281e-05 -1.79273e-05
0.0251973 -4.00208e-05 -7.46047e-06
0.0251696 -3.69109e-06 -2.28855e-06
0.0251626 2.65564e-05 5.59734e-07
0.0251722 5.65931e-05 2.62687e-06
0.0251971 9.11945e-05 4.812e-06
0.0252385 0.000135118 7.87341e-06
0.0252986 0.000194009 1.28649e-05
0.0253812 0.000275454 2.14792e-05
0.0254896 0.000389806 3.67937e-05
0.025626 0.000551914 6.67172e-05
0.0257849 0.000784855 0.000123357
0.0259358 0.00111559 0.00022589
0.0260258 0.00158082 0.000462145
0.0258948 0.00219392 0.000935543
0.0252235 0.00284184 0.00150805
0.0240419 0.00336239 0.00192777
0.0225358 0.0036568 0.0020786
0.0210039 0.00369393 0.00198482
0.0196138 0.00351185 0.00176163
0.018425 0.00317693 0.00150488
0.0174364 0.00275759 0.00126173
0.0166241 0.00230426 0.0010401
0.015968 0.00184172 0.000829973
0.0154584 0.00137909 0.000621554
0.0150907 0.000922817 0.000411844
0.0148607 0.000486597 0.000208618
0.0147612 0.000110678 4.47558e-05
0.014761 -5.46062e-05 -2.09723e-05
0.01 -9.33929e-07 -2.86412e-06
0.0100008 -0.000598867 -0.00228714
0.0113977 -0.000604015 -0.00415388
0.013445 0.000715976 -0.00301507
0.0161347 0.00268509 -0.00197948
0.0202549 0.00567523 -0.00194414
0.0261994 0.00835833 -0.00237952
0.0352095 0.0101371 -0.00204832
0.0469253 0.0048979 -0.000468216
0.0466523 -0.00406756 0.00103418
0.0461447 -0.00841293 0.00166421
0.0388847 -0.00868569 0.00179687
0.0318625 -0.00603154 0.0015514
0.0265856 -0.00348866 0.00120124
0.0230128 -0.00174976 0.000770884
0.0207338 -0.000739101 0.000309686