# vtk DataFile Version 2.0
Tobias Weinzierl: CPU, Manycore and Cluster Computing
ASCII

DATASET STRUCTURED_POINTS
DIMENSIONS  51 11 6

ORIGIN 0 0 0 

SPACING 0.1 0.1 0.1 

POINT_DATA 3366

VECTORS velocity float
0 0 0
1.69646e-13 0 0
2.84899e-09 0 0
4.45577e-09 0 0
-7.67181e-09 0 0
4.59488e-09 0 0
5.90709e-09 0 0
4.51906e-09 0 0
3.61255e-09 0 0
1.9399e-09 0 0
5.04227e-10 0 0
1.77086e-11 0 0
-9.72555e-10 0 0
-3.85409e-09 0 0
-7.76639e-09 0 0
-1.07564e-08 0 0
-1.20475e-08 0 0
-1.23266e-08 0 0
-1.25852e-08 0 0
-1.32974e-08 0 0
-1.44074e-08 0 0
-1.5648e-08 0 0
-1.67837e-08 0 0
-1.76931e-08 0 0
-1.83529e-08 0 0
-1.87946e-08 0 0
-1.90691e-08 0 0
-1.92266e-08 0 0
-1.93076e-08 0 0
-1.9342e-08 0 0
-1.935e-08 0 0
-1.93445e-08 0 0
-1.93332e-08 0 0
-1.93206e-08 0 0
-1.93088e-08 0 0
-1.92988e-08 0 0
-1.92907e-08 0 0
-1.92844e-08 0 0
-1.92797e-08 0 0
-1.92763e-08 0 0
-1.92738e-08 0 0
-1.92721e-08 0 0
-1.9271e-08 0 0
-1.92703e-08 0 0
-1.92701e-08 0 0
-1.92701e-08 0 0
-1.92703e-08 0 0
-1.92706e-08 0 0
-1.92707e-08 0 0
-1.9271e-08 0 0
0.00197305 0 0
0 3.79895e-07 0
-1.27262e-12 -2.68665e-09 0
4.41621e-09 -6.46939e-09 0
9.63116e-09 -1.98967e-09 0
-4.95076e-09 -9.99389e-09 0
1.75639e-08 -1.32408e-08 0
1.86616e-08 5.55868e-10 0
1.39392e-08 4.2184e-09 0
1.19505e-08 4.83324e-09 0
9.4047e-09 4.41587e-09 0
6.21092e-09 2.48854e-09 0
3.60925e-09 2.04266e-09 0
1.01935e-12 4.4856e-09 0
-6.23258e-09 7.0193e-09 0
-1.3298e-08 6.77184e-09 0
-1.82414e-08 4.2474e-09 0
-2.06e-08 1.76667e-09 0
-2.21578e-08 6.62563e-10 0
-2.45854e-08 7.22878e-10 0
-2.82574e-08 1.16992e-09 0
-3.25978e-08 1.46823e-09 0
-3.68248e-08 1.47555e-09 0
-4.03989e-08 1.27019e-09 0
-4.31147e-08 9.77313e-10 0
-4.50087e-08 6.8838e-10 0
-4.62343e-08 4.48467e-10 0
-4.69709e-08 2.69571e-10 0
-4.7377e-08 1.46448e-10 0
-4.75743e-08 6.74761e-11 0
-4.76484e-08 2.0429e-11 0
-4.76555e-08 -5.08959e-12 0
-4.76304e-08 -1.6989e-11 0
-4.75933e-08 -2.08522e-11 0
-4.75549e-08 -2.03815e-11 0
-4.75204e-08 -1.78878e-11 0
-4.74918e-08 -1.47194e-11 0
-4.74691e-08 -1.15956e-11 0
-4.74517e-08 -8.84944e-12 0
-4.74387e-08 -6.5913e-12 0
-4.74293e-08 -4.81433e-12 0
-4.74225e-08 -3.45774e-12 0
-4.74178e-08 -2.44279e-12 0
-4.74147e-08 -1.6924e-12 0
-4.74128e-08 -1.13824e-12 0
-4.74118e-08 -7.19895e-13 0
-4.74117e-08 -3.88351e-13 0
-4.74121e-08 -9.10167e-14 0
-4.74128e-08 2.57789e-13 0
-4.74136e-08 1.00342e-12 0
-4.74153e-08 3.26917e-12 0
0.00565545 -3.33799e-08 0
0 -2.12644e-08 0
-1.32038e-12 -2.45095e-09 0
4.91399e-09 -9.95011e-09 0
1.65051e-08 -1.59071e-08 0
1.69244e-08 -3.13932e-08 0
3.58832e-08 -2.65181e-08 0
3.05694e-08 -1.97431e-09 0
2.61979e-08 6.06301e-10 0
1.88713e-08 -5.3072e-09 0
1.00485e-08 -1.05261e-08 0
1.54245e-09 -1.10168e-08 0
-2.44296e-09 -5.94246e-09 0
-4.7317e-09 1.19673e-09 0
-9.82066e-09 6.28269e-09 0
-1.61298e-08 8.79161e-09 0
-2.03303e-08 1.03045e-08 0
-2.19087e-08 1.14959e-08 0
-2.26769e-08 1.20438e-08 0
-2.43792e-08 1.16825e-08 0
-2.7512e-08 1.04983e-08 0
-3.1548e-08 8.77653e-09 0
-3.56402e-08 6.85339e-09 0
-3.91427e-08 5.01795e-09 0
-4.17758e-08 3.4549e-09 0
-4.35518e-08 2.23713e-09 0
-4.46328e-08 1.35503e-09 0
-4.52178e-08 7.55275e-10 0
-4.54824e-08 3.71266e-10 0
-4.55582e-08 1.40664e-10 0
-4.55345e-08 1.2766e-11 0
-4.54665e-08 -5.01831e-11 0
-4.53858e-08 -7.45251e-11 0
-4.53086e-08 -7.76296e-11 0
-4.52421e-08 -7.03378e-11 0
-4.51882e-08 -5.90172e-11 0
-4.51463e-08 -4.71303e-11 0
-4.51146e-08 -3.63522e-11 0
-4.50912e-08 -2.73227e-11 0
-4.50742e-08 -2.01265e-11 0
-4.50621e-08 -1.45839e-11 0
-4.50535e-08 -1.04163e-11 0
-4.50476e-08 -7.33182e-12 0
-4.50437e-08 -5.06642e-12 0
-4.50413e-08 -3.39799e-12 0
-4.50401e-08 -2.13556e-12 0
-4.50398e-08 -1.10119e-12 0
-4.50403e-08 -6.59362e-14 0
-4.50414e-08 1.41891e-12 0
-4.50426e-08 3.82485e-12 0
-4.50445e-08 7.37537e-12 0
0.00807867 -7.42331e-08 0
0 -6.30136e-07 0
2.55753e-12 -4.64502e-09 0
6.99634e-09 -1.61139e-08 0
2.07691e-08 -2.99555e-08 0
1.85036e-08 -4.08401e-08 0
2.29145e-08 -2.2368e-08 0
1.78269e-08 -1.7769e-11 0
1.67775e-08 -2.59733e-09 0
2.64414e-09 -1.18923e-08 0
-1.0493e-08 -2.23369e-08 0
-1.64253e-08 -2.76657e-08 0
-1.75992e-08 -2.77832e-08 0
-1.88417e-08 -2.06482e-08 0
-2.52955e-08 -7.23944e-09 0
-3.32174e-08 7.48273e-09 0
-3.77213e-08 1.83989e-08 0
-3.72349e-08 2.29945e-08 0
-3.32365e-08 2.23367e-08 0
-2.8366e-08 1.90484e-08 0
-2.4642e-08 1.51091e-08 0
-2.26977e-08 1.13929e-08 0
-2.21274e-08 8.1693e-09 0
-2.22205e-08 5.52123e-09 0
-2.24421e-08 3.47027e-09 0
-2.25437e-08 1.98304e-09 0
-2.248e-08 9.77901e-10 0
-2.22965e-08 3.48744e-10 0
-2.20566e-08 -1.02543e-11 0
-2.18102e-08 -1.89225e-10 0
-2.15868e-08 -2.57016e-10 0
-2.13995e-08 -2.6199e-10 0
-2.12504e-08 -2.35722e-10 0
-2.11363e-08 -1.97374e-10 0
-2.10514e-08 -1.57608e-10 0
-2.09894e-08 -1.21669e-10 0
-2.0945e-08 -9.15763e-11 0
-2.09136e-08 -6.75871e-11 0
-2.08916e-08 -4.91089e-11 0
-2.08763e-08 -3.52284e-11 0
-2.08658e-08 -2.49939e-11 0
-2.08586e-08 -1.75479e-11 0
-2.08538e-08 -1.21747e-11 0
-2.08508e-08 -8.30007e-12 0
-2.0849e-08 -5.46971e-12 0
-2.08483e-08 -3.3129e-12 0
-2.08483e-08 -1.46948e-12 0
-2.0849e-08 4.40656e-13 0
-2.08496e-08 2.67828e-12 0
-2.08497e-08 5.20607e-12 0
-2.08495e-08 7.57047e-12 0
0.00905442 -7.72343e-08 0
0 -1.2301e-06 0
2.03306e-13 -8.80826e-09 0
2.87265e-09 -2.41605e-08 0
7.67456e-09 -3.1579e-08 0
2.4868e-09 -2.54614e-08 0
-7.94977e-12 -9.25164e-09 0
-1.23544e-10 -1.77023e-10 0
1.52371e-10 -1.7182e-10 0
-7.88948e-09 -1.02791e-08 0
-2.84787e-08 -3.08201e-08 0
-3.55096e-08 -4.48982e-08 0
-3.38852e-08 -4.56432e-08 0
-3.69532e-08 -3.19252e-08 0
-4.40641e-08 -8.93863e-09 0
-5.05501e-08 1.25952e-08 0
-5.34053e-08 2.54226e-08 0
-5.10747e-08 2.78891e-08 0
-4.3691e-08 2.35051e-08 0
-3.3578e-08 1.70294e-08 0
-2.38092e-08 1.12859e-08 0
-1.62794e-08 6.98684e-09 0
-1.12584e-08 3.92441e-09 0
-8.123e-09 1.78948e-09 0
-6.13746e-09 3.72043e-10 0
-4.79234e-09 -4.82006e-10 0
-3.81598e-09 -9.14808e-10 0
-3.08148e-09 -1.0598e-09 0
-2.52734e-09 -1.02984e-09 0
-2.11577e-09 -9.09483e-10 0
-1.81676e-09 -7.55183e-10 0
-1.60435e-09 -6.00415e-10 0
-1.45645e-09 -4.62226e-10 0
-1.35519e-09 -3.47159e-10 0
-1.28679e-09 -2.55743e-10 0
-1.24108e-09 -1.85528e-10 0
-1.21078e-09 -1.32941e-10 0
-1.19081e-09 -9.4309e-11 0
-1.17772e-09 -6.6351e-11 0
-1.16916e-09 -4.63505e-11 0
-1.16359e-09 -3.21661e-11 0
-1.16002e-09 -2.21631e-11 0
-1.15779e-09 -1.51196e-11 0
-1.15651e-09 -1.01333e-11 0
-1.15597e-09 -6.52789e-12 0
-1.15598e-09 -3.77757e-12 0
-1.15633e-09 -1.50642e-12 0
-1.15665e-09 4.70087e-13 0
-1.15633e-09 2.13069e-12 0
-1.15494e-09 3.39217e-12 0
-1.15343e-09 4.34319e-12 0
0.00939419 -4.32171e-08 0
0 -1.1121e-06 0
-6.9246e-12 -9.69615e-09 0
-2.92212e-09 -2.10741e-08 0
-3.18449e-09 -2.45431e-08 0
-8.76694e-09 -2.47517e-08 0
-7.69209e-09 -1.15906e-08 0
-1.40651e-10 1.30336e-10 0
2.21719e-11 -2.21719e-11 0
1.39401e-10 -1.65274e-10 0
-1.54022e-08 -1.71989e-08 0
-4.31615e-08 -4.69219e-08 0
-4.56852e-08 -5.47093e-08 0
-4.79038e-08 -3.67711e-08 0
-4.96441e-08 -9.4638e-09 0
-5.02125e-08 1.47343e-08 0
-5.06924e-08 2.79784e-08 0
-4.95922e-08 2.8513e-08 0
-4.40302e-08 2.09607e-08 0
-3.39942e-08 1.17055e-08 0
-2.25269e-08 4.48878e-09 0
-1.26705e-08 -1.52752e-12 0
-5.64362e-09 -2.42232e-09 0
-1.17549e-09 -3.52314e-09 0
1.51502e-09 -3.81332e-09 0
3.12046e-09 -3.61967e-09 0
4.09291e-09 -3.16838e-09 0
4.69207e-09 -2.61829e-09 0
5.06345e-09 -2.07194e-09 0
5.29177e-09 -1.58563e-09 0
5.42934e-09 -1.18218e-09 0
5.50979e-09 -8.63534e-10 0
5.55499e-09 -6.20738e-10 0
5.57905e-09 -4.40637e-10 0
5.59085e-09 -3.09731e-10 0
5.59585e-09 -2.16046e-10 0
5.59728e-09 -1.49789e-10 0
5.59698e-09 -1.0335e-10 0
5.59597e-09 -7.10226e-11 0
5.59477e-09 -4.86305e-11 0
5.59361e-09 -3.31701e-11 0
5.59259e-09 -2.25078e-11 0
5.5917e-09 -1.51374e-11 0
5.5909e-09 -9.99556e-12 0
5.59014e-09 -6.34446e-12 0
5.58944e-09 -3.70994e-12 0
5.58892e-09 -1.82732e-12 0
5.58879e-09 -5.58439e-13 0
5.58944e-09 1.74019e-13 0
5.59098e-09 3.52954e-13 0
5.59243e-09 2.07612e-13 0
0.00947207 7.93174e-09 0
0 -7.68322e-07 0
-4.69119e-12 -5.95359e-09 0
-3.11364e-09 -1.51453e-08 0
-2.86387e-09 -1.97094e-08 0
-1.32276e-08 -1.92251e-08 0
-1.943e-08 -1.1263e-08 0
-8.4818e-09 -2.55328e-09 0
-1.35626e-10 1.24876e-10 0
1.46104e-11 -1.46104e-11 0
1.24155e-10 -1.54685e-10 0
-1.99131e-08 -2.76175e-08 0
-3.53576e-08 -5.19361e-08 0
-4.26114e-08 -3.49761e-08 0
-4.30149e-08 -7.3939e-09 0
-3.87872e-08 1.60519e-08 0
-3.51026e-08 2.817e-08 0
-3.40302e-08 2.71542e-08 0
-3.21218e-08 1.75928e-08 0
-2.64305e-08 6.51914e-09 0
-1.81841e-08 -1.64386e-09 0
-1.03806e-08 -6.07603e-09 0
-4.82702e-09 -7.72034e-09 0
-1.66213e-09 -7.70881e-09 0
-2.1631e-10 -6.85626e-09 0
2.42052e-10 -5.67284e-09 0
2.26013e-10 -4.45879e-09 0
2.60855e-11 -3.37228e-09 0
-2.15531e-10 -2.47702e-09 0
-4.38556e-10 -1.77953e-09 0
-6.23036e-10 -1.25737e-09 0
-7.67005e-10 -8.77554e-10 0
-8.75466e-10 -6.07002e-10 0
-9.55305e-10 -4.17161e-10 0
-1.01314e-09 -2.85378e-10 0
-1.05457e-09 -1.94586e-10 0
-1.08399e-09 -1.32363e-10 0
-1.10476e-09 -8.98686e-11 0
-1.11935e-09 -6.09155e-11 0
-1.12957e-09 -4.12146e-11 0
-1.13671e-09 -2.78138e-11 0
-1.14168e-09 -1.86888e-11 0
-1.14517e-09 -1.24599e-11 0
-1.14764e-09 -8.20101e-12 0
-1.14942e-09 -5.30431e-12 0
-1.15071e-09 -3.37847e-12 0
-1.15164e-09 -2.17502e-12 0
-1.15215e-09 -1.55121e-12 0
-1.152e-09 -1.48837e-12 0
-1.15108e-09 -2.19617e-12 0
-1.15017e-09 -3.67889e-12 0
0.00939416 5.59974e-08 0
0 -5.38934e-07 0
-3.15182e-13 -4.36274e-09 0
-1.35098e-09 -1.11221e-08 0
-3.26708e-09 -1.47665e-08 0
-1.31497e-08 -1.3282e-08 0
-2.46923e-08 -5.81463e-09 0
-2.35298e-08 -3.18375e-10 0
-1.30129e-08 2.19698e-10 0
-1.36604e-10 1.13307e-10 0
1.20049e-10 9.80616e-11 0
6.09345e-12 -1.52507e-08 0
-2.19083e-08 -2.93913e-08 0
-4.00827e-08 -1.73166e-08 0
-4.53981e-08 3.20344e-09 0
-3.66432e-08 1.76199e-08 0
-2.30824e-08 2.25654e-08 0
-1.55689e-08 1.88711e-08 0
-1.48845e-08 1.00754e-08 0
-1.56389e-08 1.00903e-09 0
-1.49261e-08 -5.19394e-09 0
-1.34945e-08 -8.06155e-09 0
-1.2733e-08 -8.53981e-09 0
-1.30633e-08 -7.7212e-09 0
-1.41566e-08 -6.37943e-09 0
-1.55282e-08 -4.96544e-09 0
-1.68395e-08 -3.70433e-09 0
-1.79346e-08 -2.68001e-09 0
-1.87804e-08 -1.89687e-09 0
-1.94028e-08 -1.32225e-09 0
-1.98472e-08 -9.12281e-10 0
-2.01586e-08 -6.25222e-10 0
-2.03742e-08 -4.26673e-10 0
-2.05224e-08 -2.90396e-10 0
-2.06239e-08 -1.97298e-10 0
-2.06933e-08 -1.33873e-10 0
-2.07407e-08 -9.07332e-11 0
-2.0773e-08 -6.14208e-11 0
-2.07951e-08 -4.15168e-11 0
-2.08102e-08 -2.80076e-11 0
-2.08205e-08 -1.88421e-11 0
-2.08275e-08 -1.26298e-11 0
-2.08323e-08 -8.43272e-12 0
-2.08356e-08 -5.62028e-12 0
-2.0838e-08 -3.77122e-12 0
-2.08398e-08 -2.61456e-12 0
-2.08412e-08 -1.99824e-12 0
-2.08422e-08 -1.87816e-12 0
-2.08427e-08 -2.35182e-12 0
-2.08426e-08 -3.81649e-12 0
-2.08426e-08 -6.56971e-12 0
0.00905438 8.14311e-08 0
0 -4.57801e-07 0
3.34476e-13 -2.29597e-09 0
-3.46941e-10 -6.35015e-09 0
-4.75738e-09 -9.33866e-09 0
-1.71572e-08 -9.06422e-09 0
-3.10955e-08 -1.68504e-09 0
-3.34476e-08 4.37447e-09 0
-2.91977e-08 -5.55876e-09 0
-1.83181e-08 -7.83812e-09 0
-1.60705e-08 2.28103e-13 0
-1.79834e-08 -4.92532e-09 0
-3.62375e-08 -5.96714e-09 0
-5.35573e-08 4.83172e-09 0
-5.45689e-08 1.45935e-08 0
-3.73228e-08 1.5597e-08 0
-1.58939e-08 1.00256e-08 0
-6.37659e-09 2.84773e-09 0
-1.03803e-08 -2.67855e-09 0
-1.91736e-08 -5.36919e-09 0
-2.61662e-08 -5.73622e-09 0
-3.03693e-08 -4.98969e-09 0
-3.31033e-08 -4.0246e-09 0
-3.53773e-08 -3.18094e-09 0
-3.74718e-08 -2.49501e-09 0
-3.93308e-08 -1.93259e-09 0
-4.08684e-08 -1.47e-09 0
-4.20635e-08 -1.09652e-09 0
-4.29508e-08 -8.03528e-10 0
-4.3589e-08 -5.80174e-10 0
-4.40385e-08 -4.13947e-10 0
-4.4351e-08 -2.92539e-10 0
-4.45665e-08 -2.05133e-10 0
-4.47144e-08 -1.42904e-10 0
-4.48157e-08 -9.89896e-11 0
-4.48849e-08 -6.82237e-11 0
-4.49322e-08 -4.68014e-11 0
-4.49645e-08 -3.19646e-11 0
-4.49865e-08 -2.17378e-11 0
-4.50015e-08 -1.47204e-11 0
-4.50117e-08 -9.92813e-12 0
-4.50186e-08 -6.67453e-12 0
-4.50234e-08 -4.48518e-12 0
-4.50267e-08 -3.03624e-12 0
-4.50292e-08 -2.115e-12 0
-4.50311e-08 -1.59585e-12 0
-4.50327e-08 -1.4249e-12 0
-4.50342e-08 -1.62736e-12 0
-4.50353e-08 -2.32453e-12 0
-4.50361e-08 -3.87725e-12 0
-4.50377e-08 -6.69985e-12 0
0.00807865 6.88506e-08 0
0 -4.72667e-07 0
3.4463e-12 -4.35755e-10 0
2.07798e-10 -1.73546e-09 0
-5.87301e-09 -3.19364e-09 0
-1.95526e-08 -3.45107e-09 0
-3.44456e-08 -2.24282e-09 0
-3.80237e-08 2.61138e-10 0
-3.42052e-08 -2.29996e-09 0
-3.93821e-08 -4.05818e-09 0
-3.69482e-08 1.52098e-09 0
-3.45238e-08 6.69777e-09 0
-3.72943e-08 9.59464e-09 0
-3.84184e-08 9.59793e-09 0
-3.17877e-08 7.16202e-09 0
-1.72155e-08 3.2922e-09 0
-5.01758e-09 -1.55472e-09 0
-4.96628e-09 -5.48554e-09 0
-1.51868e-08 -6.4857e-09 0
-2.71123e-08 -4.84242e-09 0
-3.53139e-08 -2.46585e-09 0
-3.95244e-08 -7.75118e-10 0
-4.14879e-08 -2.46852e-11 0
-4.26041e-08 1.26995e-10 0
-4.34904e-08 4.57236e-11 0
-4.42982e-08 -6.50046e-11 0
-4.50185e-08 -1.34948e-10 0
-4.56237e-08 -1.59063e-10 0
-4.61052e-08 -1.52504e-10 0
-4.64728e-08 -1.30929e-10 0
-4.67451e-08 -1.04984e-10 0
-4.69425e-08 -8.04191e-11 0
-4.70834e-08 -5.96508e-11 0
-4.71827e-08 -4.32162e-11 0
-4.72523e-08 -3.07564e-11 0
-4.73006e-08 -2.1586e-11 0
-4.7334e-08 -1.498e-11 0
-4.7357e-08 -1.02981e-11 0
-4.73727e-08 -7.02227e-12 0
-4.73835e-08 -4.75497e-12 0
-4.73909e-08 -3.20134e-12 0
-4.73959e-08 -2.14863e-12 0
-4.73993e-08 -1.4472e-12 0
-4.74018e-08 -9.94809e-13 0
-4.74037e-08 -7.26442e-13 0
-4.74053e-08 -6.08354e-13 0
-4.74069e-08 -6.32926e-13 0
-4.74084e-08 -8.26843e-13 0
-4.74099e-08 -1.22761e-12 0
-4.74114e-08 -1.88841e-12 0
-4.74139e-08 -3.0869e-12 0
0.00565547 2.64659e-08 0
0 0 0
2.79556e-12 0 0
1.72201e-10 0 0
-2.93851e-09 0 0
-9.27114e-09 0 0
-1.62962e-08 0 0
-1.96292e-08 0 0
-1.80153e-08 0 0
-2.10755e-08 0 0
-2.0882e-08 0 0
-1.65342e-08 0 0
-1.09722e-08 0 0
-6.41936e-09 0 0
-3.03527e-09 0 0
-3.02684e-11 0 0
7.33469e-10 0 0
-2.52458e-09 0 0
-8.29917e-09 0 0
-1.35504e-08 0 0
-1.66974e-08 0 0
-1.8e-08 0 0
-1.83398e-08 0 0
-1.83735e-08 0 0
-1.83942e-08 0 0
-1.84724e-08 0 0
-1.85936e-08 0 0
-1.87278e-08 0 0
-1.88531e-08 0 0
-1.89592e-08 0 0
-1.90434e-08 0 0
-1.91074e-08 0 0
-1.91547e-08 0 0
-1.91889e-08 0 0
-1.92132e-08 0 0
-1.92303e-08 0 0
-1.92421e-08 0 0
-1.92504e-08 0 0
-1.9256e-08 0 0
-1.92599e-08 0 0
-1.92625e-08 0 0
-1.92643e-08 0 0
-1.92655e-08 0 0
-1.92665e-08 0 0
-1.92672e-08 0 0
-1.92679e-08 0 0
-1.92686e-08 0 0
-1.92693e-08 0 0
-1.927e-08 0 0
-1.92708e-08 0 0
-1.9272e-08 0 0
0.00197307 0 0
0 0 5.27536e-07
-1.62265e-12 0 -1.61281e-10
3.67387e-09 0 2.01694e-09
1.1408e-08 0 1.25159e-08
-2.42609e-08 0 9.86144e-09
6.59676e-09 0 -3.31872e-10
1.2286e-08 0 -4.7474e-10
1.14628e-08 0 -1.91892e-09
1.318e-08 0 -2.24947e-09
1.52443e-08 0 -1.30387e-09
1.82915e-08 0 -5.64045e-10
2.25516e-08 0 -5.64809e-10
2.42771e-08 0 -6.13736e-10
1.94546e-08 0 -2.26196e-10
8.98503e-09 0 1.29338e-10
-2.38042e-09 0 3.27112e-11
-1.12957e-08 0 -1.96903e-10
-1.77968e-08 0 -1.24916e-10
-2.33635e-08 0 2.47742e-10
-2.88914e-08 0 6.51729e-10
-3.43287e-08 0 8.81279e-10
-3.92222e-08 0 8.9936e-10
-4.32111e-08 0 7.7365e-10
-4.6189e-08 0 5.90931e-10
-4.82506e-08 0 4.12622e-10
-4.95845e-08 0 2.67806e-10
-5.03917e-08 0 1.62798e-10
-5.08437e-08 0 9.25635e-11
-5.10707e-08 0 4.85289e-11
-5.11635e-08 0 2.24978e-11
-5.1182e-08 0 8.03917e-12
-5.11635e-08 0 6.2336e-13
-5.11299e-08 0 -2.72581e-12
-5.10933e-08 0 -3.86258e-12
-5.10594e-08 0 -3.88888e-12
-5.10308e-08 0 -3.42831e-12
-5.10079e-08 0 -2.81366e-12
-5.09902e-08 0 -2.20827e-12
-5.09769e-08 0 -1.68134e-12
-5.09672e-08 0 -1.2528e-12
-5.09602e-08 0 -9.18494e-13
-5.09553e-08 0 -6.63957e-13
-5.0952e-08 0 -4.73072e-13
-5.095e-08 0 -3.3092e-13
-5.09489e-08 0 -2.21692e-13
-5.09487e-08 0 -1.35812e-13
-5.0949e-08 0 -7.06564e-14
-5.09496e-08 0 -5.24626e-14
-5.09503e-08 0 -1.95116e-15
-5.09518e-08 0 9.92959e-13
0.00560141 0 -5.17077e-09
0.0036 -3.04635e-07 -6.25837e-08
0.0035998 -0.00138277 -2.11356e-05
0.00671781 -0.00390643 0.000106623
0.0136041 -0.00592416 -0.000557599
0.023544 -0.0144157 -0.00431649
0.046262 -0.0132609 -0.00487981
0.0497472 -0.00185995 -0.00164938
0.0494874 0.0026913 -0.000172276
0.0444954 0.00501658 0.00055264
0.0388747 0.00518165 0.000521255
0.0337395 0.00451578 0.000237824
0.0294156 0.00363029 -3.6915e-05
0.0260003 0.00273421 -0.00022176
0.0234322 0.00192669 -0.000307466
0.0215444 0.00128164 -0.000308029
0.0201545 0.000828851 -0.000249175
0.0191243 0.00054277 -0.000165894
0.0183625 0.000369781 -8.95051e-05
0.0178079 0.000260775 -3.59172e-05
0.0174144 0.00018541 -5.95679e-06
0.0171442 0.000129551 6.96857e-06
0.0169654 8.75987e-05 1.02511e-05
0.0168516 5.68982e-05 9.22876e-06
0.0167823 3.53504e-05 6.91177e-06
0.016742 2.08911e-05 4.66165e-06
0.0167199 1.16096e-05 2.92363e-06
0.0167088 5.91247e-06 1.72873e-06
0.0167039 2.58272e-06 9.6643e-07
0.0167025 7.50513e-07 5.0675e-07
0.0167027 -1.74105e-07 2.42912e-07
0.0167037 -5.74171e-07 9.9023e-08
0.0167049 -6.8861e-07 2.53804e-08
0.016706 -6.60512e-07 -8.87366e-09
0.0167069 -5.7166e-07 -2.21017e-08
0.0167077 -4.66074e-07 -2.48175e-08
0.0167083 -3.65424e-07 -2.28014e-08
0.0167088 -2.78757e-07 -1.9078e-08
0.0167091 -2.08413e-07 -1.51226e-08
0.0167094 -1.53489e-07 -1.15736e-08
0.0167095 -1.11768e-07 -8.63805e-09
0.0167097 -8.07231e-08 -6.31635e-09
0.0167098 -5.80163e-08 -4.53331e-09
0.0167098 -4.16879e-08 -3.20492e-09
0.0167099 -3.01847e-08 -2.24103e-09
0.0167099 -2.23645e-08 -1.57191e-09
0.01671 -1.74123e-08 -1.06966e-09
0.01671 -1.47976e-08 -3.51501e-10
0.01671 -1.4529e-08 1.89185e-09
0.01671 -2.10188e-08 5.80681e-09
0.0167101 -6.27933e-08 -6.32691e-09
0.0167102 -9.85848e-08 -2.06173e-08
0.01 -1.37706e-07 -1.43456e-06
0.0100007 -0.00299004 -0.000596991
0.0147921 -0.00993729 -0.000783265
0.024155 -0.0177048 -0.00126975
0.0384638 -0.032409 -0.00336942
0.0590638 -0.024679 -0.000815792
0.0563227 -0.00267012 0.00316094
0.0557661 0.00515161 0.00336791
0.0499864 0.010163 0.00296251
0.0444991 0.0103472 0.00203409
0.0399851 0.00929278 0.00106568
0.0362673 0.00785696 0.000321199
0.033293 0.00631731 -0.000188903
0.0310114 0.00487472 -0.000474311
0.0292644 0.00365629 -0.000546132
0.0279174 0.00268985 -0.000463964
0.0268906 0.00194587 -0.000316199
0.02613 0.00138323 -0.000175145
0.0255865 0.000964229 -7.46869e-05
0.0252124 0.000657085 -1.73054e-05
0.0249652 0.00043607 8.68031e-06
0.0248091 0.000280723 1.65368e-05
0.0247157 0.000174601 1.59585e-05
0.0246635 0.000104391 1.25213e-05
0.0246369 5.95032e-05 8.83773e-06
0.0246255 3.18311e-05 5.84335e-06
0.0246223 1.54442e-05 3.69307e-06
0.0246232 6.19501e-06 2.25529e-06
0.0246258 1.2983e-06 1.33804e-06
0.0246288 -1.04823e-06 7.72673e-07
0.0246317 -1.97074e-06 4.33816e-07
0.0246341 -2.14825e-06 2.35812e-07
0.0246361 -1.97425e-06 1.23012e-07
0.0246376 -1.66587e-06 6.05171e-08
0.0246388 -1.33521e-06 2.70313e-08
0.0246396 -1.03415e-06 9.8654e-09
0.0246403 -7.81811e-07 1.62581e-09
0.0246407 -5.80649e-07 -1.89812e-09
0.024641 -4.25583e-07 -3.04455e-09
0.0246413 -3.08905e-07 -3.07152e-09
0.0246414 -2.22726e-07 -2.625e-09
0.0246415 -1.60066e-07 -2.02902e-09
0.0246416 -1.15239e-07 -1.46422e-09
0.0246417 -8.38368e-08 -9.93012e-10
0.0246417 -6.26337e-08 -6.11902e-10
0.0246418 -4.95949e-08 -1.30283e-10
0.0246418 -4.42204e-08 1.23904e-09
0.0246418 -5.20391e-08 4.43952e-09
0.0246419 -8.45435e-08 6.93867e-09
0.024642 -1.62933e-07 -1.94826e-08
0.0246421 -2.17368e-07 -4.6263e-08
0.0148 -9.46971e-07 -1.72024e-06
0.0148023 -0.00528951 -0.00112799
0.020358 -0.0163859 -0.00243625
0.0274627 -0.0287067 -0.0039438
0.0320722 -0.0459943 -0.00575671
0.0305635 -0.0284033 -0.00139704
0.0268124 -1.20996e-05 0.00328998
0.0262599 0.00709535 0.00350578
0.0298148 0.0145256 0.00339166
0.0301832 0.0140181 0.00239873
0.0293803 0.0122695 0.00141216
0.0285451 0.0104289 0.000563782
0.027894 0.00850203 -3.93751e-05
0.0275569 0.00664125 -0.000378349
0.0274262 0.00501888 -0.000465811
0.0274083 0.00367702 -0.000388365
0.0274503 0.00261328 -0.000248705
0.0275188 0.00180749 -0.000118254
0.0275918 0.00122072 -2.75341e-05
0.0276588 0.000804954 2.14826e-05
0.0277172 0.000516006 3.9751e-05
0.0277679 0.000319198 4.03411e-05
0.0278119 0.000188658 3.33059e-05
0.0278494 0.000104978 2.45896e-05
0.0278806 5.35058e-05 1.69089e-05
0.0279055 2.33709e-05 1.10688e-05
0.0279248 6.79787e-06 6.98641e-06
0.0279394 -1.53615e-06 4.28388e-06
0.02795 -5.11392e-06 2.5625e-06
0.0279577 -6.11491e-06 1.49814e-06
0.0279632 -5.84209e-06 8.56144e-07
0.027967 -5.03564e-06 4.77431e-07
0.0279696 -4.08982e-06 2.58783e-07
0.0279714 -3.19563e-06 1.35326e-07
0.0279727 -2.43061e-06 6.73166e-08
0.0279736 -1.81289e-06 3.09425e-08
0.0279741 -1.33256e-06 1.22256e-08
0.0279745 -9.68745e-07 3.12218e-09
0.0279748 -6.98463e-07 -9.02517e-10
0.027975 -5.00631e-07 -2.346e-09
0.0279751 -3.57598e-07 -2.54164e-09
0.0279752 -2.55366e-07 -2.18413e-09
0.0279753 -1.83275e-07 -1.65471e-09
0.0279753 -1.33535e-07 -1.10031e-09
0.0279754 -1.00772e-07 -4.42137e-10
0.0279754 -8.24555e-08 5.46783e-10
0.0279754 -7.9418e-08 2.56377e-09
0.0279755 -9.61847e-08 4.60165e-09
0.0279755 -1.38659e-07 -1.4983e-09
0.0279755 -1.99005e-07 -4.049e-08
0.0279755 -2.3105e-07 -7.27547e-08
0.018 -1.91007e-06 -1.67545e-06
0.0180029 -0.00697253 -0.00188159
0.0207453 -0.0188997 -0.00491887
0.0206775 -0.0248269 -0.00632588
0.0160584 -0.0268789 -0.00760786
-1.57361e-06 -0.0139888 -0.00432025
9.60221e-05 2.61452e-05 9.02659e-07
-3.30463e-05 3.43897e-05 0.000646704
0.00661939 0.00415205 0.00141239
0.0135919 0.00946417 0.00136738
0.0170337 0.0103558 0.000949709
0.0187779 0.00939756 0.00039863
0.0204471 0.00777212 -8.97424e-05
0.0221374 0.00597103 -0.000340416
0.0236801 0.00438196 -0.000378079
0.0249996 0.00307972 -0.000299495
0.0260848 0.00207195 -0.000184229
0.0269449 0.00134117 -7.80386e-05
0.027599 0.000840201 -1.53545e-06
0.0280774 0.000508355 4.10844e-05
0.0284173 0.000292372 5.59516e-05
0.0286548 0.000154372 5.34708e-05
0.0288193 6.92207e-05 4.32186e-05
0.0289323 1.97223e-05 3.15092e-05
0.0290093 -6.4498e-06 2.14058e-05
0.0290611 -1.8166e-05 1.38116e-05
0.0290954 -2.15662e-05 8.56398e-06
0.0291179 -2.06507e-05 5.13901e-06
0.0291325 -1.78486e-05 2.99557e-06
0.0291418 -1.45207e-05 1.69814e-06
0.0291476 -1.1352e-05 9.34929e-07
0.0291514 -8.6306e-06 4.97666e-07
0.0291537 -6.42984e-06 2.53691e-07
0.0291551 -4.71837e-06 1.21442e-07
0.029156 -3.42305e-06 5.22063e-08
0.0291566 -2.46174e-06 1.76093e-08
0.029157 -1.75864e-06 1.51004e-09
0.0291572 -1.25007e-06 -5.06055e-09
0.0291573 -8.85412e-07 -6.96152e-09
0.0291574 -6.25832e-07 -6.74404e-09
0.0291575 -4.42285e-07 -5.68664e-09
0.0291575 -3.13495e-07 -4.39913e-09
0.0291575 -2.24161e-07 -3.16545e-09
0.0291576 -1.63635e-07 -2.03909e-09
0.0291576 -1.25166e-07 -9.03099e-10
0.0291576 -1.0509e-07 1.57846e-10
0.0291576 -1.01444e-07 1.02604e-09
0.0291576 -1.10584e-07 -5.8309e-11
0.0291576 -1.28883e-07 -1.51105e-08
0.0291576 -1.39937e-07 -5.80949e-08
0.0291575 -1.39747e-07 -8.75173e-08
0.0196 -2.75967e-06 -2.53206e-06
0.019601 -0.00586785 -0.00274494
0.0190633 -0.0130909 -0.00646773
0.0159718 -0.0160825 -0.00667197
0.010946 -0.0150574 -0.00668212
0.0017614 -0.0062008 -0.00503164
7.15792e-05 -6.57337e-05 -0.00129626
3.26874e-05 -3.26874e-05 -3.96616e-08
-3.24367e-05 3.3656e-05 0.000250635
0.00399717 0.00286214 0.000531485
0.00919456 0.00672922 0.000459435
0.0121179 0.00706286 0.000111463
0.015365 0.00549235 -0.000264059
0.0185198 0.00386675 -0.000411464
0.0212197 0.00257107 -0.000394445
0.0234037 0.00157144 -0.000310386
0.0251255 0.00084216 -0.000210146
0.0264482 0.000365475 -0.000114513
0.0274268 9.29241e-05 -3.65354e-05
0.0281197 -4.34931e-05 1.48072e-05
0.0285916 -0.000102274 3.89997e-05
0.0289036 -0.00012039 4.32134e-05
0.0291054 -0.000117689 3.68708e-05
0.0292335 -0.000104721 2.72637e-05
0.0293136 -8.76049e-05 1.83502e-05
0.0293626 -7.00393e-05 1.15396e-05
0.0293921 -5.40942e-05 6.88188e-06
0.0294094 -4.06852e-05 3.92289e-06
0.0294193 -2.99858e-05 2.14253e-06
0.0294249 -2.17631e-05 1.11751e-06
0.0294279 -1.56143e-05 5.50293e-07
0.0294295 -1.11074e-05 2.48754e-07
0.0294303 -7.85206e-06 9.57138e-08
0.0294307 -5.52575e-06 2.27377e-08
0.0294308 -3.87617e-06 -8.72437e-09
0.0294308 -2.71297e-06 -1.96782e-08
0.0294308 -1.89607e-06 -2.11852e-08
0.0294308 -1.32409e-06 -1.88426e-08
0.0294308 -9.24582e-07 -1.53377e-08
0.0294307 -6.46188e-07 -1.18555e-08
0.0294307 -4.52773e-07 -8.8263e-09
0.0294307 -3.19061e-07 -6.33888e-09
0.0294307 -2.27587e-07 -4.38184e-09
0.0294306 -1.66465e-07 -2.9081e-09
0.0294306 -1.27501e-07 -1.94246e-09
0.0294306 -1.04152e-07 -1.7925e-09
0.0294306 -9.03155e-08 -2.79807e-09
0.0294306 -7.8813e-08 -5.95153e-09
0.0294305 -6.16451e-08 -2.39713e-08
0.0294305 -2.33708e-08 -6.38561e-08
0.0294304 3.95871e-09 -8.80671e-08
0.0196 -1.32422e-06 -3.52093e-06
0.0195999 -0.00366628 -0.00312261
0.0187909 -0.00802731 -0.00650525
0.0175475 -0.00801843 -0.00604901
0.01325 -0.00417567 -0.00555068
0.00915466 0.00266766 -0.00531289
0.00616755 0.00318727 -0.00307986
7.17344e-05 -5.9733e-05 -0.00065496
2.72964e-05 -2.72964e-05 -1.25113e-07
-3.18892e-05 3.29842e-05 8.89894e-05
0.00282647 0.00209862 0.0003498
0.00722584 0.00333828 0.000261772
0.012545 0.00170584 -0.000139594
0.0172005 0.00052172 -0.000308541
0.0207963 -0.000129303 -0.000318169
0.0234504 -0.000529561 -0.000274385
0.0253792 -0.000765884 -0.000219841
0.0267558 -0.000841038 -0.000158314
0.0277028 -0.000784046 -9.38796e-05
0.0283211 -0.000656604 -3.94937e-05
0.0287029 -0.000514419 -4.6689e-06
0.0289266 -0.000387442 1.11051e-05
0.0290512 -0.00028479 1.4405e-05
0.029117 -0.000205711 1.20083e-05
0.0291494 -0.000146471 8.22186e-06
0.0291636 -0.000103023 4.95553e-06
0.0291686 -7.17449e-05 2.69313e-06
0.0291691 -4.95885e-05 1.31642e-06
0.0291678 -3.40992e-05 5.56412e-07
0.0291659 -2.33773e-05 1.73454e-07
0.029164 -1.60055e-05 6.56199e-10
0.0291625 -1.09576e-05 -6.41548e-08
0.0291612 -7.50754e-06 -7.82461e-08
0.0291602 -5.15043e-06 -7.14242e-08
0.0291595 -3.5389e-06 -5.80596e-08
0.0291589 -2.43567e-06 -4.44212e-08
0.0291585 -1.67925e-06 -3.28005e-08
0.0291583 -1.15983e-06 -2.36899e-08
0.0291581 -8.02757e-07 -1.68635e-08
0.0291579 -5.57162e-07 -1.18776e-08
0.0291578 -3.88385e-07 -8.2773e-09
0.0291578 -2.72762e-07 -5.6995e-09
0.0291577 -1.94008e-07 -3.95111e-09
0.0291577 -1.40567e-07 -2.95287e-09
0.0291576 -1.03726e-07 -2.73683e-09
0.0291576 -7.62751e-08 -3.42056e-09
0.0291576 -5.16641e-08 -5.02129e-09
0.0291575 -2.25734e-08 -7.99066e-09
0.0291575 2.26871e-08 -2.30882e-08
0.0291574 9.86732e-08 -5.60247e-08
0.0291573 1.46108e-07 -7.58201e-08
0.018 -8.49435e-07 -3.5069e-06
0.0180009 -0.00199306 -0.00304485
0.0183266 -0.00382342 -0.00614849
0.0183999 -0.00257396 -0.00528652
0.0174055 0.000737545 -0.00421537
0.0171443 0.00715859 -0.00396769
0.0178792 0.0126129 -0.0029657
0.0109936 0.0069346 -0.00145899
7.32102e-05 -4.62558e-05 -0.000424759
-2.50594e-05 -5.37928e-05 5.45536e-07
7.73284e-06 -0.000624414 0.000743116
0.00840576 -0.00268293 0.00108792
0.0158339 -0.00429095 0.000480813
0.0208847 -0.00409474 0.000193973
0.0240602 -0.00336481 7.88349e-05
0.0259993 -0.00270872 1.50294e-06
0.0271532 -0.00220049 -7.34239e-05
0.0278034 -0.00176072 -0.000121957
0.0281292 -0.00134999 -0.000126028
0.028255 -0.000985122 -9.82636e-05
0.0282701 -0.00069056 -6.28209e-05
0.0282339 -0.000471397 -3.48728e-05
0.0281815 -0.000316782 -1.76929e-05
0.0281306 -0.000210968 -8.66907e-06
0.028088 -0.000139783 -4.35939e-06
0.0280552 -9.23934e-05 -2.36843e-06
0.0280311 -6.10614e-05 -1.41257e-06
0.0280139 -4.04283e-05 -9.0403e-07
0.0280019 -2.68577e-05 -5.98983e-07
0.0279936 -1.7921e-05 -3.99878e-07
0.0279879 -1.20168e-05 -2.65175e-07
0.027984 -8.09792e-06 -1.73751e-07
0.0279813 -5.48281e-06 -1.12432e-07
0.0279795 -3.72808e-06 -7.19697e-08
0.0279782 -2.54443e-06 -4.56908e-08
0.0279774 -1.74222e-06 -2.8851e-08
0.0279768 -1.19632e-06 -1.81706e-08
0.0279764 -8.23641e-07 -1.14445e-08
0.0279761 -5.68615e-07 -7.22567e-09
0.0279759 -3.9387e-07 -4.58405e-09
0.0279757 -2.74073e-07 -2.9336e-09
0.0279756 -1.91837e-07 -1.93865e-09
0.0279756 -1.34963e-07 -1.46372e-09
0.0279755 -9.45956e-08 -1.43357e-09
0.0279755 -6.39478e-08 -1.81061e-09
0.0279754 -3.72493e-08 -2.5799e-09
0.0279754 -8.7698e-09 -3.62414e-09
0.0279754 2.83741e-08 -5.25957e-09
0.0279754 8.74903e-08 -1.39425e-08
0.0279753 1.79019e-07 -3.80455e-08
0.0279753 2.3316e-07 -5.4539e-08
0.0148 -4.76986e-07 -3.10677e-06
0.0148015 -0.0010229 -0.00282163
0.0162398 -0.00160174 -0.00541437
0.0178325 4.81206e-05 -0.00429769
0.0192044 0.00326885 -0.00309973
0.0209865 0.00741628 -0.0028755
0.0248077 0.0129793 -0.00241026
0.0280952 0.0195351 -0.00149028
0.0230847 0.0113307 -0.00032362
0.0235237 2.63898e-11 0.000630112
0.0266703 -0.00667191 0.00155869
0.030202 -0.0130437 0.00210944
0.031166 -0.0110373 0.00165424
0.0306501 -0.00780459 0.00118873
0.0296127 -0.00522672 0.000761211
0.0285285 -0.00349767 0.000387219
0.027575 -0.00236794 9.03437e-05
0.0267951 -0.00159673 -9.39153e-05
0.0261837 -0.00105186 -0.00016035
0.0257211 -0.000673625 -0.000147552
0.0253824 -0.000423501 -0.000105036
0.0251416 -0.000265267 -6.42051e-05
0.0249749 -0.00016741 -3.55819e-05
0.024862 -0.000106988 -1.85035e-05
0.0247867 -6.92757e-05 -9.23765e-06
0.0247371 -4.53878e-05 -4.49171e-06
0.0247046 -3.00398e-05 -2.14217e-06
0.0246834 -2.00545e-05 -1.00126e-06
0.0246695 -1.34872e-05 -4.53547e-07
0.0246604 -9.12651e-06 -1.9325e-07
0.0246543 -6.207e-06 -7.15328e-08
0.0246503 -4.23854e-06 -1.64871e-08
0.0246476 -2.90357e-06 6.65364e-09
0.0246457 -1.99399e-06 1.47676e-08
0.0246445 -1.37199e-06 1.60719e-08
0.0246437 -9.45473e-07 1.45503e-08
0.0246431 -6.5243e-07 1.20991e-08
0.0246427 -4.50834e-07 9.57923e-09
0.0246424 -3.1204e-07 7.34059e-09
0.0246422 -2.16409e-07 5.48561e-09
0.0246421 -1.50361e-07 4.00557e-09
0.024642 -1.04382e-07 2.83832e-09
0.0246419 -7.16476e-08 1.89124e-09
0.0246419 -4.70535e-08 1.11191e-09
0.0246419 -2.64509e-08 4.61501e-10
0.0246418 -6.0075e-09 -7.28522e-11
0.0246418 1.84961e-08 -3.19776e-10
0.0246418 5.18515e-08 -6.00915e-10
0.0246418 1.02554e-07 -3.58248e-09
0.0246419 1.7429e-07 -2.06959e-08
0.024642 2.14847e-07 -3.50992e-08
0.01 -9.10106e-07 -2.81146e-06
0.0100007 -0.000627689 -0.00229818
0.0113365 -0.000689996 -0.00414037
0.0132407 0.000590296 -0.00292924
0.0157411 0.00256567 -0.00185435
0.0197098 0.00560499 -0.00186345