# vtk DataFile Version 2.0
Tobias Weinzierl: CPU, Manycore and Cluster Computing
ASCII

DATASET STRUCTURED_POINTS
DIMENSIONS  51 11 6

ORIGIN 0 0 0 

SPACING 0.1 0.1 0.1 

POINT_DATA 3366

VECTORS velocity float
0 0 0
4.96657e-12 0 0
4.06215e-09 0 0
5.49534e-09 0 0
-1.08053e-08 0 0
3.44369e-09 0 0
4.82578e-09 0 0
3.33052e-09 0 0
2.00769e-09 0 0
-1.50243e-11 0 0
-9.74875e-10 0 0
-9.47684e-10 0 0
-2.38968e-09 0 0
-6.39408e-09 0 0
-1.10975e-08 0 0
-1.41552e-08 0 0
-1.51578e-08 0 0
-1.52279e-08 0 0
-1.54766e-08 0 0
-1.62856e-08 0 0
-1.74902e-08 0 0
-1.87756e-08 0 0
-1.99087e-08 0 0
-2.07886e-08 0 0
-2.14103e-08 0 0
-2.18167e-08 0 0
-2.20631e-08 0 0
-2.22002e-08 0 0
-2.22676e-08 0 0
-2.22934e-08 0 0
-2.22964e-08 0 0
-2.22882e-08 0 0
-2.22757e-08 0 0
-2.22628e-08 0 0
-2.22511e-08 0 0
-2.22413e-08 0 0
-2.22336e-08 0 0
-2.22277e-08 0 0
-2.22234e-08 0 0
-2.22202e-08 0 0
-2.22179e-08 0 0
-2.22163e-08 0 0
-2.22151e-08 0 0
-2.22142e-08 0 0
-2.22134e-08 0 0
-2.22127e-08 0 0
-2.22119e-08 0 0
-2.22113e-08 0 0
-2.2211e-08 0 0
-2.22116e-08 0 0
0.0019892 0 0
0 3.801e-07 0
6.79965e-12 -3.69705e-09 0
6.39697e-09 -8.273e-09 0
1.18889e-08 -2.2972e-09 0
-8.41414e-09 -1.23334e-08 0
1.77274e-08 -1.6163e-08 0
1.78566e-08 1.73574e-09 0
1.18004e-08 7.3034e-09 0
8.89077e-09 8.34833e-09 0
5.31936e-09 6.99672e-09 0
2.16482e-09 3.92977e-09 0
8.85003e-11 3.54961e-09 0
-4.05353e-09 6.52079e-09 0
-1.17299e-08 8.74121e-09 0
-1.9727e-08 7.43422e-09 0
-2.46045e-08 4.06381e-09 0
-2.66012e-08 1.39649e-09 0
-2.8152e-08 5.00864e-10 0
-3.09544e-08 7.8077e-10 0
-3.50931e-08 1.30684e-09 0
-3.97634e-08 1.57696e-09 0
-4.41226e-08 1.52295e-09 0
-4.76783e-08 1.26769e-09 0
-5.02993e-08 9.47935e-10 0
-5.20797e-08 6.50658e-10 0
-5.32039e-08 4.13025e-10 0
-5.38625e-08 2.40873e-10 0
-5.42143e-08 1.25341e-10 0
-5.43768e-08 5.30927e-11 0
-5.44302e-08 1.13053e-11 0
-5.44262e-08 -1.04357e-11 0
-5.43959e-08 -1.98114e-11 0
-5.43571e-08 -2.21043e-11 0
-5.4319e-08 -2.07323e-11 0
-5.42856e-08 -1.77738e-11 0
-5.42584e-08 -1.4405e-11 0
-5.42371e-08 -1.12279e-11 0
-5.42209e-08 -8.50078e-12 0
-5.4209e-08 -6.29046e-12 0
-5.42004e-08 -4.56679e-12 0
-5.41942e-08 -3.25824e-12 0
-5.41897e-08 -2.28258e-12 0
-5.41866e-08 -1.56287e-12 0
-5.41842e-08 -1.03152e-12 0
-5.41823e-08 -6.29309e-13 0
-5.41807e-08 -3.09459e-13 0
-5.41793e-08 -1.72309e-14 0
-5.41783e-08 3.37066e-13 0
-5.41784e-08 1.14705e-12 0
-5.41808e-08 3.72885e-12 0
0.005695 -3.75478e-08 0
0 -2.16852e-08 0
4.19832e-12 -3.23504e-09 0
6.82249e-09 -1.23134e-08 0
2.04126e-08 -1.95891e-08 0
1.86488e-08 -3.9519e-08 0
4.18432e-08 -3.33128e-08 0
3.47853e-08 -2.03774e-09 0
2.68287e-08 1.38208e-09 0
1.48386e-08 -5.25772e-09 0
2.85184e-09 -9.69087e-09 0
-5.55244e-09 -8.25735e-09 0
-7.75434e-09 -2.06349e-09 0
-9.60911e-09 4.36536e-09 0
-1.57476e-08 8.01421e-09 0
-2.27252e-08 9.7582e-09 0
-2.65648e-08 1.12908e-08 0
-2.74877e-08 1.2666e-08 0
-2.80257e-08 1.31893e-08 0
-3.00098e-08 1.25897e-08 0
-3.36357e-08 1.10735e-08 0
-3.80785e-08 9.0392e-09 0
-4.23703e-08 6.88914e-09 0
-4.58919e-08 4.92661e-09 0
-4.84444e-08 3.31604e-09 0
-5.01106e-08 2.09949e-09 0
-5.10927e-08 1.24127e-09 0
-5.16044e-08 6.71383e-10 0
-5.18216e-08 3.14713e-10 0
-5.18707e-08 1.05697e-10 0
-5.18342e-08 -6.75077e-12 0
-5.17622e-08 -5.95097e-11 0
-5.16822e-08 -7.7661e-11 0
-5.1608e-08 -7.73617e-11 0
-5.15452e-08 -6.84632e-11 0
-5.14949e-08 -5.66042e-11 0
-5.14561e-08 -4.47523e-11 0
-5.14271e-08 -3.42711e-11 0
-5.14058e-08 -2.56201e-11 0
-5.13904e-08 -1.87903e-11 0
-5.13794e-08 -1.35614e-11 0
-5.13717e-08 -9.64367e-12 0
-5.13662e-08 -6.74894e-12 0
-5.13624e-08 -4.62302e-12 0
-5.13596e-08 -3.05375e-12 0
-5.13575e-08 -1.85595e-12 0
-5.13558e-08 -8.54551e-13 0
-5.13546e-08 1.9075e-13 0
-5.1354e-08 1.77794e-12 0
-5.13547e-08 4.40447e-12 0
-5.13571e-08 8.24567e-12 0
0.0081162 -8.20041e-08 0
0 -6.30468e-07 0
6.35078e-12 -5.68282e-09 0
9.13077e-09 -1.95597e-08 0
2.52055e-08 -3.61796e-08 0
1.99132e-08 -4.89885e-08 0
2.75593e-08 -2.67042e-08 0
2.17649e-08 -1.46082e-11 0
1.83587e-08 -3.17964e-09 0
-2.32401e-09 -1.35416e-08 0
-1.85311e-08 -2.45317e-08 0
-2.33907e-08 -2.99995e-08 0
-2.30534e-08 -2.96952e-08 0
-2.49534e-08 -2.08509e-08 0
-3.32491e-08 -5.11607e-09 0
-4.18264e-08 1.09718e-08 0
-4.52583e-08 2.16605e-08 0
-4.2889e-08 2.51495e-08 0
-3.73077e-08 2.34751e-08 0
-3.17006e-08 1.9594e-08 0
-2.79608e-08 1.53453e-08 0
-2.6305e-08 1.14358e-08 0
-2.60085e-08 8.0821e-09 0
-2.62504e-08 5.36601e-09 0
-2.65164e-08 3.30257e-09 0
-2.66121e-08 1.83892e-09 0
-2.65317e-08 8.72344e-10 0
-2.63382e-08 2.81958e-10 0
-2.60984e-08 -4.5472e-11 0
-2.58596e-08 -2.02146e-10 0
-2.56477e-08 -2.56086e-10 0
-2.54726e-08 -2.53702e-10 0
-2.5335e-08 -2.24495e-10 0
-2.52304e-08 -1.85884e-10 0
-2.51531e-08 -1.47261e-10 0
-2.5097e-08 -1.13034e-10 0
-2.5057e-08 -8.47294e-11 0
-2.50288e-08 -6.23529e-11 0
-2.50091e-08 -4.52118e-11 0
-2.49955e-08 -3.23794e-11 0
-2.49862e-08 -2.29339e-11 0
-2.49798e-08 -1.60639e-11 0
-2.49754e-08 -1.11007e-11 0
-2.49723e-08 -7.51066e-12 0
-2.49701e-08 -4.87046e-12 0
-2.49685e-08 -2.82929e-12 0
-2.49671e-08 -1.02681e-12 0
-2.49659e-08 9.23798e-13 0
-2.49649e-08 3.24864e-12 0
-2.4964e-08 5.84799e-12 0
-2.49642e-08 8.25634e-12 0
0.00907224 -8.4244e-08 0
0 -1.22896e-06 0
1.43048e-12 -1.06134e-08 0
3.792e-09 -2.8933e-08 0
9.0622e-09 -3.75504e-08 0
1.24296e-09 -3.01364e-08 0
-6.13607e-12 -1.09172e-08 0
-8.50066e-11 -1.22581e-10 0
1.11662e-10 -1.16661e-10 0
-1.02794e-08 -1.22331e-08 0
-3.44201e-08 -3.57528e-08 0
-4.17766e-08 -5.03113e-08 0
-4.04698e-08 -4.88386e-08 0
-4.51709e-08 -3.13021e-08 0
-5.36611e-08 -5.0434e-09 0
-6.03003e-08 1.73165e-08 0
-6.19966e-08 2.86711e-08 0
-5.74703e-08 2.89938e-08 0
-4.77068e-08 2.32343e-08 0
-3.59886e-08 1.63753e-08 0
-2.5661e-08 1.07418e-08 0
-1.82477e-08 6.6229e-09 0
-1.35481e-08 3.6811e-09 0
-1.0684e-08 1.62386e-09 0
-8.86558e-09 2.70172e-10 0
-7.61349e-09 -5.26947e-10 0
-6.6933e-09 -9.13828e-10 0
-5.99966e-09 -1.02762e-09 0
-5.47937e-09 -9.80954e-10 0
-5.0965e-09 -8.55351e-10 0
-4.82108e-09 -7.03383e-10 0
-4.62718e-09 -5.55053e-10 0
-4.49317e-09 -4.2486e-10 0
-4.40195e-09 -3.17746e-10 0
-4.34059e-09 -2.33389e-10 0
-4.29972e-09 -1.69006e-10 0
-4.27271e-09 -1.20997e-10 0
-4.25498e-09 -8.58253e-11 0
-4.24339e-09 -6.04037e-11 0
-4.23587e-09 -4.22175e-11 0
-4.23098e-09 -2.93048e-11 0
-4.22781e-09 -2.01776e-11 0
-4.22572e-09 -1.37278e-11 0
-4.2243e-09 -9.13662e-12 0
-4.22321e-09 -5.78344e-12 0
-4.22219e-09 -3.17925e-12 0
-4.22098e-09 -9.87116e-13 0
-4.21934e-09 9.3092e-13 0
-4.21716e-09 2.51835e-12 0
-4.21476e-09 3.69735e-12 0
-4.21349e-09 4.64364e-12 0
0.00939623 -4.70788e-08 0
0 -1.11012e-06 0
-8.29941e-12 -1.17009e-08 0
-3.16938e-09 -2.5195e-08 0
-3.60989e-09 -2.92674e-08 0
-1.1223e-08 -3.00499e-08 0
-1.00637e-08 -1.428e-08 0
-9.85973e-11 9.26815e-11 0
1.92454e-11 -1.92454e-11 0
1.04384e-10 -1.19314e-10 0
-1.83713e-08 -1.99804e-08 0
-5.02014e-08 -5.28748e-08 0
-5.25456e-08 -5.87897e-08 0
-5.4897e-08 -3.61219e-08 0
-5.6619e-08 -5.01658e-09 0
-5.75739e-08 2.01172e-08 0
-5.86404e-08 3.14393e-08 0
-5.69862e-08 2.90483e-08 0
-4.9474e-08 1.95751e-08 0
-3.73372e-08 9.89414e-09 0
-2.46717e-08 3.07594e-09 0
-1.45538e-08 -8.7697e-10 0
-7.72988e-09 -2.88918e-09 0
-3.54432e-09 -3.72254e-09 0
-1.06446e-09 -3.84308e-09 0
4.14369e-10 -3.54713e-09 0
1.31608e-09 -3.04309e-09 0
1.87519e-09 -2.47579e-09 0
2.22267e-09 -1.93497e-09 0
2.43615e-09 -1.46627e-09 0
2.56448e-09 -1.08482e-09 0
2.63938e-09 -7.87852e-10 0
2.68149e-09 -5.64024e-10 0
2.70403e-09 -3.99339e-10 0
2.71524e-09 -2.80338e-10 0
2.72014e-09 -1.95509e-10 0
2.72168e-09 -1.3565e-10 0
2.72154e-09 -9.37273e-11 0
2.72067e-09 -6.45277e-11 0
2.71957e-09 -4.42667e-11 0
2.7185e-09 -3.02384e-11 0
2.71759e-09 -2.05271e-11 0
2.7169e-09 -1.37803e-11 0
2.71649e-09 -9.04211e-12 0
2.71644e-09 -5.65416e-12 0
2.71691e-09 -3.2036e-12 0
2.71804e-09 -1.465e-12 0
2.71993e-09 -3.14276e-13 0
2.72241e-09 3.19666e-13 0
2.72488e-09 4.15628e-13 0
2.72601e-09 2.51341e-13 0
0.00946878 7.79884e-09 0
0 -7.67664e-07 0
-6.57475e-12 -7.32539e-09 0
-3.42147e-09 -1.86166e-08 0
-3.36722e-09 -2.40673e-08 0
-1.71429e-08 -2.31485e-08 0
-2.53148e-08 -1.31081e-08 0
-1.07606e-08 -2.73405e-09 0
-9.42318e-11 9.12781e-11 0
1.32573e-11 -1.32573e-11 0
8.9325e-11 -1.19741e-10 0
-2.31229e-08 -3.10472e-08 0
-3.94265e-08 -5.64149e-08 0
-4.65622e-08 -3.45068e-08 0
-4.59191e-08 -2.83078e-09 0
-4.14281e-08 2.20364e-08 0
-3.94887e-08 3.24659e-08 0
-4.03164e-08 2.8109e-08 0
-3.8401e-08 1.59328e-08 0
-3.1249e-08 4.01038e-09 0
-2.16275e-08 -3.78072e-09 0
-1.32225e-08 -7.47941e-09 0
-7.64255e-09 -8.47775e-09 0
-4.64494e-09 -8.01334e-09 0
-3.34636e-09 -6.8813e-09 0
-2.96228e-09 -5.54898e-09 0
-2.99536e-09 -4.27516e-09 0
-3.18192e-09 -3.18285e-09 0
-3.39889e-09 -2.30921e-09 0
-3.59616e-09 -1.64338e-09 0
-3.75807e-09 -1.1531e-09 0
-3.88386e-09 -8.00891e-10 0
-3.97839e-09 -5.52296e-10 0
-4.04787e-09 -3.79e-10 0
-4.0982e-09 -2.59223e-10 0
-4.13428e-09 -1.76909e-10 0
-4.15999e-09 -1.20548e-10 0
-4.17823e-09 -8.2039e-11 0
-4.19114e-09 -5.57573e-11 0
-4.20025e-09 -3.78248e-11 0
-4.20666e-09 -2.55816e-11 0
-4.21112e-09 -1.72074e-11 0
-4.21414e-09 -1.14645e-11 0
-4.21606e-09 -7.52434e-12 0
-4.21703e-09 -4.84335e-12 0
-4.21712e-09 -3.06888e-12 0
-4.21639e-09 -1.97564e-12 0
-4.21494e-09 -1.43743e-12 0
-4.213e-09 -1.45925e-12 0
-4.21122e-09 -2.27694e-12 0
-4.21065e-09 -3.8724e-12 0
0.0093962 5.96425e-08 0
0 -5.3857e-07 0
-3.01083e-12 -5.46945e-09 0
-1.60986e-09 -1.37919e-08 0
-4.41854e-09 -1.79763e-08 0
-1.75205e-08 -1.57808e-08 0
-3.1887e-08 -6.57385e-09 0
-2.94078e-08 -4.33956e-10 0
-1.58322e-08 1.23523e-11 0
-1.0113e-10 8.15665e-11 0
8.91119e-11 7.34507e-11 0
6.91582e-12 -1.69698e-08 0
-2.4601e-08 -3.09129e-08 0
-4.43472e-08 -1.54023e-08 0
-4.80699e-08 7.21263e-09 0
-3.6118e-08 2.2112e-08 0
-2.2234e-08 2.59889e-08 0
-1.76505e-08 2.0052e-08 0
-1.96684e-08 9.17137e-09 0
-2.10991e-08 -8.4289e-10 0
-1.99273e-08 -6.97579e-09 0
-1.80544e-08 -9.33862e-09 0
-1.71724e-08 -9.28637e-09 0
-1.75452e-08 -8.06347e-09 0
-1.86818e-08 -6.46342e-09 0
-2.0044e-08 -4.91073e-09 0
-2.1304e-08 -3.59288e-09 0
-2.2331e-08 -2.55952e-09 0
-2.311e-08 -1.79013e-09 0
-2.3676e-08 -1.23684e-09 0
-2.40764e-08 -8.48019e-10 0
-2.43552e-08 -5.78785e-10 0
-2.45474e-08 -3.94043e-10 0
-2.46792e-08 -2.67933e-10 0
-2.47693e-08 -1.82075e-10 0
-2.48309e-08 -1.23689e-10 0
-2.48731e-08 -8.39929e-11 0
-2.4902e-08 -5.69991e-11 0
-2.49218e-08 -3.86349e-11 0
-2.49354e-08 -2.6135e-11 0
-2.49448e-08 -1.76237e-11 0
-2.49512e-08 -1.18323e-11 0
-2.49555e-08 -7.9054e-12 0
-2.49582e-08 -5.26687e-12 0
-2.49598e-08 -3.53168e-12 0
-2.49604e-08 -2.45438e-12 0
-2.49602e-08 -1.9027e-12 0
-2.49593e-08 -1.84932e-12 0
-2.4958e-08 -2.41303e-12 0
-2.4957e-08 -4.04131e-12 0
-2.49574e-08 -7.07212e-12 0
0.00907219 8.81255e-08 0
0 -4.57926e-07 0
-4.14625e-12 -2.90385e-09 0
-6.22177e-10 -7.9951e-09 0
-6.70449e-09 -1.16025e-08 0
-2.26816e-08 -1.09512e-08 0
-3.95039e-08 -1.79686e-09 0
-4.11359e-08 4.97808e-09 0
-3.52949e-08 -7.3762e-09 0
-2.20558e-08 -9.71046e-09 0
-1.98156e-08 1.09433e-12 0
-2.23921e-08 -4.4069e-09 0
-4.24198e-08 -3.29051e-09 0
-6.05906e-08 9.24899e-09 0
-5.90881e-08 1.78223e-08 0
-3.68851e-08 1.64247e-08 0
-1.3782e-08 9.33212e-09 0
-7.61583e-09 1.82698e-09 0
-1.58818e-08 -3.37037e-09 0
-2.66426e-08 -5.63869e-09 0
-3.36744e-08 -5.78864e-09 0
-3.74165e-08 -5.02147e-09 0
-3.98631e-08 -4.09657e-09 0
-4.2047e-08 -3.2678e-09 0
-4.41212e-08 -2.56263e-09 0
-4.59563e-08 -1.96834e-09 0
-4.74518e-08 -1.47858e-09 0
-4.85955e-08 -1.08838e-09 0
-4.94326e-08 -7.87941e-10 0
-5.00278e-08 -5.63112e-10 0
-5.04433e-08 -3.98484e-10 0
-5.07303e-08 -2.79848e-10 0
-5.09273e-08 -1.95349e-10 0
-5.10621e-08 -1.35687e-10 0
-5.11541e-08 -9.38451e-11 0
-5.1217e-08 -6.46583e-11 0
-5.12599e-08 -4.4389e-11 0
-5.12893e-08 -3.03653e-11 0
-5.13095e-08 -2.06945e-11 0
-5.13233e-08 -1.40468e-11 0
-5.13328e-08 -9.49373e-12 0
-5.13393e-08 -6.39129e-12 0
-5.13436e-08 -4.29568e-12 0
-5.13464e-08 -2.90522e-12 0
-5.13481e-08 -2.02376e-12 0
-5.13489e-08 -1.53778e-12 0
-5.1349e-08 -1.40287e-12 0
-5.13485e-08 -1.65733e-12 0
-5.13479e-08 -2.44117e-12 0
-5.13479e-08 -4.18323e-12 0
-5.135e-08 -7.40214e-12 0
0.00811618 7.58111e-08 0
0 -4.73117e-07 0
-2.10296e-12 -6.0909e-10 0
-1.27835e-10 -2.35547e-09 0
-8.37322e-09 -4.20929e-09 0
-2.56135e-08 -4.40111e-09 0
-4.32073e-08 -2.76941e-09 0
-4.62198e-08 1.50995e-11 0
-4.10525e-08 -3.31251e-09 0
-4.72583e-08 -4.91505e-09 0
-4.4584e-08 2.60847e-09 0
-4.14633e-08 9.07037e-09 0
-4.28217e-08 1.20118e-08 0
-4.24892e-08 1.13635e-08 0
-3.3628e-08 7.99145e-09 0
-1.65218e-08 2.80157e-09 0
-4.80941e-09 -3.28685e-09 0
-8.59398e-09 -7.43902e-09 0
-2.25534e-08 -7.59338e-09 0
-3.58797e-08 -4.94571e-09 0
-4.37391e-08 -2.07321e-09 0
-4.72007e-08 -3.63712e-10 0
-4.86538e-08 2.25976e-10 0
-4.95445e-08 2.31099e-10 0
-5.0362e-08 6.78623e-11 0
-5.1157e-08 -7.4716e-11 0
-5.18743e-08 -1.50698e-10 0
-5.24727e-08 -1.71373e-10 0
-5.29433e-08 -1.59728e-10 0
-5.32982e-08 -1.34172e-10 0
-5.35584e-08 -1.05797e-10 0
-5.37454e-08 -8.00198e-11 0
-5.38778e-08 -5.88036e-11 0
-5.39706e-08 -4.23273e-11 0
-5.40353e-08 -3.00024e-11 0
-5.40801e-08 -2.10157e-11 0
-5.41111e-08 -1.45811e-11 0
-5.41324e-08 -1.0035e-11 0
-5.41471e-08 -6.8563e-12 0
-5.41573e-08 -4.65273e-12 0
-5.41642e-08 -3.13765e-12 0
-5.4169e-08 -2.10642e-12 0
-5.41722e-08 -1.41615e-12 0
-5.41743e-08 -9.69904e-13 0
-5.41755e-08 -7.07151e-13 0
-5.41761e-08 -5.97303e-13 0
-5.41761e-08 -6.36493e-13 0
-5.41757e-08 -8.59728e-13 0
-5.41755e-08 -1.31317e-12 0
-5.41763e-08 -2.07793e-12 0
-5.41794e-08 -3.51129e-12 0
0.00569503 2.97099e-08 0
0 0 0
-1.37136e-13 0 0
-1.23485e-11 0 0
-4.20562e-09 0 0
-1.21197e-08 0 0
-2.03333e-08 0 0
-2.37342e-08 0 0
-2.1588e-08 0 0
-2.52127e-08 0 0
-2.47683e-08 0 0
-1.90648e-08 0 0
-1.19151e-08 0 0
-6.41793e-09 0 0
-2.48597e-09 0 0
6.6917e-10 0 0
4.40646e-10 0 0
-4.67288e-09 0 0
-1.19124e-08 0 0
-1.76044e-08 0 0
-2.05078e-08 0 0
-2.14218e-08 0 0
-2.14876e-08 0 0
-2.13862e-08 0 0
-2.13578e-08 0 0
-2.14254e-08 0 0
-2.15479e-08 0 0
-2.16846e-08 0 0
-2.18107e-08 0 0
-2.19159e-08 0 0
-2.19982e-08 0 0
-2.20601e-08 0 0
-2.21053e-08 0 0
-2.21377e-08 0 0
-2.21606e-08 0 0
-2.21766e-08 0 0
-2.21878e-08 0 0
-2.21955e-08 0 0
-2.22008e-08 0 0
-2.22045e-08 0 0
-2.2207e-08 0 0
-2.22088e-08 0 0
-2.22099e-08 0 0
-2.22107e-08 0 0
-2.22111e-08 0 0
-2.22112e-08 0 0
-2.22112e-08 0 0
-2.2211e-08 0 0
-2.22109e-08 0 0
-2.22113e-08 0 0
-2.22129e-08 0 0
0.00198922 0 0
0 0 5.27784e-07
7.34011e-12 0 -3.59425e-10
5.89636e-09 0 2.78652e-09
1.49813e-08 0 1.71661e-08
-3.20705e-08 0 1.43838e-08
3.43365e-09 0 5.27925e-10
9.40542e-09 0 -1.62947e-09
9.98169e-09 0 -4.49518e-09
1.31231e-08 0 -5.01502e-09
1.57961e-08 0 -4.02765e-09
1.99774e-08 0 -3.01067e-09
2.51282e-08 0 -2.14738e-09
2.56711e-08 0 -1.08526e-09
1.7764e-08 0 -4.21077e-11
4.34339e-09 0 3.20403e-10
-8.51321e-09 0 -7.95806e-12
-1.78189e-08 0 -3.26433e-10
-2.4483e-08 0 -1.83283e-10
-3.03552e-08 0 2.7673e-10
-3.62369e-08 0 7.07151e-10
-4.19093e-08 0 9.13593e-10
-4.68664e-08 0 8.96062e-10
-5.07905e-08 0 7.45517e-10
-5.36435e-08 0 5.5366e-10
-5.55725e-08 0 3.77403e-10
-5.67934e-08 0 2.39771e-10
-5.75152e-08 0 1.42838e-10
-5.79082e-08 0 7.95062e-11
-5.8097e-08 0 4.06005e-11
-5.81669e-08 0 1.80454e-11
-5.81727e-08 0 5.78054e-12
-5.81479e-08 0 -3.39034e-13
-5.8112e-08 0 -2.97661e-12
-5.80751e-08 0 -3.76036e-12
-5.8042e-08 0 -3.64071e-12
-5.80147e-08 0 -3.1455e-12
-5.7993e-08 0 -2.55013e-12
-5.79765e-08 0 -1.98546e-12
-5.79643e-08 0 -1.5036e-12
-5.79553e-08 0 -1.11631e-12
-5.79489e-08 0 -8.16184e-13
-5.79443e-08 0 -5.88263e-13
-5.79409e-08 0 -4.17262e-13
-5.79385e-08 0 -2.88504e-13
-5.79365e-08 0 -1.86137e-13
-5.79348e-08 0 -1.01839e-13
-5.79333e-08 0 -3.12426e-14
-5.79322e-08 0 -3.80837e-15
-5.79321e-08 0 8.57769e-14
-5.79343e-08 0 1.33916e-12
0.00564381 0 -6.888e-09
0.0036 -3.05281e-07 -6.29084e-08
0.00359981 -0.0013781 -1.91616e-05
0.00672114 -0.00389446 0.000106361
0.0136004 -0.00594334 -0.000580655
0.0235634 -0.0144042 -0.00433856
0.0462322 -0.0132085 -0.00488361
0.0497062 -0.00183557 -0.00165467
0.0494504 0.00271028 -0.000177617
0.0444543 0.00503157 0.00054419
0.0388218 0.00519384 0.000508359
0.0336725 0.00452955 0.000225835
0.0293436 0.00364198 -4.49223e-05
0.0259353 0.00273399 -0.000227954
0.0233788 0.00191134 -0.000313113
0.0215016 0.00125853 -0.00031049
0.0201224 0.000807479 -0.000246304
0.0191058 0.000527056 -0.000159393
0.0183614 0.000358487 -8.29133e-05
0.0178263 0.000251548 -3.15309e-05
0.017452 0.000177079 -4.10146e-06
0.0171989 0.000122094 7.05344e-06
0.017034 8.13559e-05 9.48011e-06
0.0169306 5.20681e-05 8.24431e-06
0.0168686 3.18775e-05 6.03793e-06
0.016833 1.85538e-05 4.00365e-06
0.0168139 1.01324e-05 2.47568e-06
0.0168045 5.03978e-06 1.44523e-06
0.0168005 2.10898e-06 7.97647e-07
0.0167995 5.25152e-07 4.12151e-07
0.0167998 -2.54306e-07 1.93579e-07
0.0168008 -5.76134e-07 7.5914e-08
0.0168019 -6.5345e-07 1.66394e-08
0.0168029 -6.12e-07 -1.02882e-08
0.0168037 -5.22489e-07 -2.01817e-08
0.0168044 -4.22219e-07 -2.17069e-08
0.016805 -3.29022e-07 -1.95696e-08
0.0168054 -2.49918e-07 -1.6196e-08
0.0168057 -1.8631e-07 -1.27462e-08
0.0168059 -1.36967e-07 -9.70478e-09
0.0168061 -9.96606e-08 -7.21342e-09
0.0168062 -7.20025e-08 -5.25421e-09
0.0168063 -5.18408e-08 -3.75747e-09
0.0168063 -3.7401e-08 -2.65085e-09
0.0168064 -2.72938e-08 -1.85702e-09
0.0168064 -2.05244e-08 -1.32955e-09
0.0168064 -1.6389e-08 -9.45271e-10
0.0168065 -1.44562e-08 -3.06049e-10
0.0168065 -1.48515e-08 1.9944e-09
0.0168065 -2.27875e-08 5.88447e-09
0.0168066 -7.06171e-08 -9.22694e-09
0.0168067 -1.1136e-07 -2.63853e-08
0.01 -1.38169e-07 -1.43523e-06
0.0100007 -0.00299039 -0.000593995
0.014797 -0.00992847 -0.000777045
0.0241503 -0.0176998 -0.00128442
0.0384265 -0.0323557 -0.00337972
0.0589889 -0.0246031 -0.000811782
0.0562564 -0.00264262 0.00315062
0.055709 0.0051785 0.00334909
0.0499343 0.0102051 0.00293192
0.0444435 0.0103982 0.00199656
0.0399274 0.00933883 0.00103157
0.0362106 0.00788229 0.000292606
0.0332356 0.00631716 -0.000215284
0.0309491 0.00485452 -0.000494825
0.0291978 0.00362235 -0.00055285
0.0278551 0.00264671 -0.000455737
0.0268433 0.00189807 -0.000300141
0.0261043 0.00133551 -0.000159655
0.0255838 0.000920382 -6.42559e-05
0.0252306 0.000619458 -1.2329e-05
0.0250007 0.000405725 9.81791e-06
0.0248578 0.00025767 1.56918e-05
0.0247738 0.000158072 1.44492e-05
0.0247277 9.31829e-05 1.10449e-05
0.0247048 5.23128e-05 7.65822e-06
0.0246953 2.74806e-05 4.9964e-06
0.0246929 1.29891e-05 3.12422e-06
0.0246941 4.93808e-06 1.89068e-06
0.0246966 7.57242e-07 1.11269e-06
0.0246994 -1.18952e-06 6.37742e-07
0.024702 -1.90912e-06 3.55508e-07
0.0247041 -1.99985e-06 1.91898e-07
0.0247059 -1.80312e-06 9.93971e-08
0.0247072 -1.50416e-06 4.85258e-08
0.0247082 -1.19647e-06 2.14692e-08
0.024709 -9.21822e-07 7.70672e-09
0.0247095 -6.9434e-07 1.16051e-09
0.0247099 -5.1442e-07 -1.6022e-09
0.0247102 -3.76498e-07 -2.472e-09
0.0247104 -2.73146e-07 -2.45697e-09
0.0247105 -1.97061e-07 -2.07007e-09
0.0247106 -1.41917e-07 -1.57236e-09
0.0247107 -1.02636e-07 -1.11349e-09
0.0247108 -7.53229e-08 -7.34219e-10
0.0247108 -5.71933e-08 -4.38091e-10
0.0247108 -4.66058e-08 -1.3399e-11
0.0247109 -4.35093e-08 1.39688e-09
0.0247109 -5.4546e-08 4.72449e-09
0.024711 -9.27352e-08 6.81182e-09
0.0247111 -1.80494e-07 -2.46845e-08
0.0247111 -2.40671e-07 -5.60553e-08
0.0148 -9.47306e-07 -1.71974e-06
0.0148023 -0.00528721 -0.00112708
0.0203461 -0.0163683 -0.00243037
0.0274222 -0.0286539 -0.00394816
0.0320146 -0.0459006 -0.00574907
0.0305143 -0.0283471 -0.00138125
0.0267784 -1.20784e-05 0.00328568
0.0262314 0.00711031 0.00348989
0.0298154 0.0145688 0.00336208
0.0301983 0.0140773 0.002365
0.0293975 0.0123322 0.00137806
0.0285564 0.0104882 0.000528603
0.0278904 0.00854079 -7.31503e-05
0.0275432 0.00664105 -0.000401635
0.0274135 0.00497558 -0.000470997
0.0274054 0.00360367 -0.000377708
0.0274588 0.00253028 -0.000231076
0.0275345 0.00173051 -0.000102005
0.0276095 0.00115663 -1.69434e-05
0.0276749 0.000754658 2.5989e-05
0.0277306 0.000478171 3.98518e-05
0.0277783 0.000291978 3.81479e-05
0.0278192 0.0001701 3.04308e-05
0.0278539 9.31091e-05 2.19276e-05
0.0278822 4.64827e-05 1.48009e-05
0.0279047 1.96293e-05 9.54532e-06
0.0279219 5.12779e-06 5.94961e-06
0.0279347 -1.99718e-06 3.60822e-06
0.0279441 -4.93762e-06 2.13691e-06
0.0279508 -5.65474e-06 1.23777e-06
0.0279555 -5.30059e-06 7.01112e-07
0.0279587 -4.51789e-06 3.876e-07
0.027961 -3.64201e-06 2.08247e-07
0.0279625 -2.83089e-06 1.07865e-07
0.0279636 -2.14522e-06 5.3047e-08
0.0279644 -1.59593e-06 2.39916e-08
0.0279649 -1.17113e-06 9.19182e-09
0.0279652 -8.50634e-07 2.08774e-09
0.0279654 -6.132e-07 -9.8589e-10
0.0279656 -4.3978e-07 -2.02903e-09
0.0279657 -3.1463e-07 -2.09936e-09
0.0279658 -2.2538e-07 -1.74791e-09
0.0279659 -1.62689e-07 -1.27998e-09
0.0279659 -1.19819e-07 -7.88166e-10
0.0279659 -9.22307e-08 -1.71064e-10
0.027966 -7.8222e-08 8.22257e-10
0.027966 -7.95935e-08 2.8905e-09
0.027966 -1.0163e-07 4.74009e-09
0.0279661 -1.50342e-07 -2.79983e-09
0.0279661 -2.16921e-07 -4.78247e-08
0.0279661 -2.51873e-07 -8.49033e-08
0.018 -1.91212e-06 -1.67744e-06
0.0180029 -0.00696036 -0.00188332
0.0207296 -0.0188546 -0.00491648
0.0206524 -0.0247536 -0.00632218
0.0160423 -0.0268182 -0.00760076
-1.57027e-06 -0.0139683 -0.00431275
9.61293e-05 2.62966e-05 8.9989e-07
-3.31792e-05 3.45338e-05 0.000641884
0.00664125 0.00417994 0.00139779
0.0136559 0.0095397 0.00134813
0.0171034 0.0104538 0.000928842
0.0188341 0.00948841 0.000374922
0.0204964 0.00782379 -0.000111112
0.0221898 0.00595988 -0.000352494
0.023741 0.00431437 -0.000378629
0.0250686 0.00298284 -0.000291081
0.0261551 0.00197592 -0.0001712
0.0270059 0.00126401 -6.48711e-05
0.0276417 0.000785401 8.20405e-06
0.0280982 0.000471757 4.58473e-05
0.0284174 0.000268776 5.63323e-05
0.0286375 0.000139939 5.11882e-05
0.0287882 6.13147e-05 3.99627e-05
0.0288906 1.63413e-05 2.83721e-05
0.0289596 -6.92633e-06 1.88689e-05
0.0290055 -1.69988e-05 1.19624e-05
0.0290357 -1.96502e-05 7.30665e-06
0.0290552 -1.85543e-05 4.32672e-06
0.0290678 -1.58879e-05 2.49175e-06
0.0290757 -1.28389e-05 1.3965e-06
0.0290807 -9.98744e-06 7.60243e-07
0.0290838 -7.56566e-06 3.99907e-07
0.0290858 -5.62195e-06 2.01063e-07
0.029087 -4.11847e-06 9.44671e-08
0.0290878 -2.98487e-06 3.93274e-08
0.0290883 -2.14579e-06 1.2175e-08
0.0290886 -1.53314e-06 -1.9248e-10
0.0290888 -1.09047e-06 -5.03478e-09
0.0290889 -7.73246e-07 -6.24424e-09
0.029089 -5.47514e-07 -5.84043e-09
0.029089 -3.8798e-07 -4.82122e-09
0.029089 -2.7619e-07 -3.65956e-09
0.0290891 -1.98934e-07 -2.5684e-09
0.0290891 -1.47133e-07 -1.55283e-09
0.0290891 -1.1529e-07 -5.04289e-10
0.0290891 -1.00675e-07 4.48152e-10
0.0290891 -1.01798e-07 1.09644e-09
0.0290891 -1.14981e-07 -6.22846e-10
0.0290891 -1.36347e-07 -1.77344e-08
0.0290891 -1.4992e-07 -6.67005e-08
0.029089 -1.50985e-07 -1.00525e-07
0.0196 -2.75658e-06 -2.53694e-06
0.019601 -0.00584848 -0.00274493
0.0190656 -0.0130481 -0.00646284
0.015983 -0.0160262 -0.00666745
0.0109664 -0.014999 -0.0066812
0.00177446 -0.00617521 -0.00502555
7.16982e-05 -6.58476e-05 -0.00129145
3.26684e-05 -3.26684e-05 -3.93855e-08
-3.25607e-05 3.37977e-05 0.000246235
0.00403126 0.00290274 0.000521027
0.00928466 0.00682986 0.00044856
0.012207 0.0071661 0.000102379
0.0154531 0.00554361 -0.000269637
0.0186072 0.00384709 -0.000411948
0.021306 0.00249243 -0.000392467
0.0234899 0.00146651 -0.000307404
0.0252081 0.000747142 -0.000204655
0.0265173 0.000301173 -0.000105939
0.0274715 6.01072e-05 -2.73766e-05
0.0281351 -5.451e-05 2.13359e-05
0.0285793 -0.000101391 4.16185e-05
0.0288684 -0.000113942 4.27122e-05
0.029053 -0.000109035 3.47959e-05
0.0291688 -9.56298e-05 2.48696e-05
0.0292403 -7.90657e-05 1.6297e-05
0.0292837 -6.25846e-05 1.00271e-05
0.0293094 -4.79332e-05 5.87078e-06
0.0293244 -3.58063e-05 3.29297e-06
0.029333 -2.62493e-05 1.77191e-06
0.0293377 -1.89754e-05 9.10556e-07
0.0293403 -1.35761e-05 4.4089e-07
0.0293416 -9.64041e-06 1.94673e-07
0.0293423 -6.80878e-06 7.15166e-08
0.0293426 -4.79055e-06 1.38225e-08
0.0293427 -3.36165e-06 -1.03725e-08
0.0293427 -2.35482e-06 -1.82559e-08
0.0293427 -1.64779e-06 -1.87673e-08
0.0293426 -1.15257e-06 -1.63741e-08
0.0293426 -8.06444e-07 -1.31891e-08
0.0293426 -5.65096e-07 -1.0122e-08
0.0293425 -3.97365e-07 -7.48345e-09
0.0293425 -2.81497e-07 -5.32757e-09
0.0293425 -2.02527e-07 -3.64146e-09
0.0293425 -1.50321e-07 -2.38445e-09
0.0293425 -1.17812e-07 -1.6421e-09
0.0293425 -9.9081e-08 -1.77975e-09
0.0293425 -8.836e-08 -3.16661e-09
0.0293424 -7.87371e-08 -7.04261e-09
0.0293424 -6.21191e-08 -2.70994e-08
0.0293423 -2.36005e-08 -7.28123e-08
0.0293422 3.85826e-09 -1.01318e-07
0.0196 -1.32086e-06 -3.5226e-06
0.0195999 -0.00365552 -0.00312066
0.0188013 -0.00799437 -0.00649934
0.0175601 -0.00796902 -0.00605002
0.0132733 -0.0041242 -0.00555561
0.00917937 0.00270185 -0.00530337
0.00617548 0.00319721 -0.00306281
7.18487e-05 -5.98465e-05 -0.000647398
2.72858e-05 -2.72858e-05 -1.25237e-07
-3.20001e-05 3.31214e-05 8.6687e-05
0.00286956 0.00215462 0.000346981
0.00729826 0.00343596 0.000264507
0.0126309 0.00175508 -0.000129457
0.0172893 0.000502388 -0.000295303
0.0208789 -0.000206539 -0.000310599
0.023522 -0.000633083 -0.000276307
0.0254379 -0.000855703 -0.000225585
0.0267965 -0.000891664 -0.000160197
0.0277196 -0.000794991 -9.02918e-05
0.0283122 -0.00064226 -3.38848e-05
0.0286717 -0.000489627 -4.22865e-07
0.028879 -0.000361333 1.29858e-05
0.0289929 -0.000261445 1.45535e-05
0.0290523 -0.000186425 1.13841e-05
0.0290813 -0.000131294 7.47308e-06
0.029094 -9.14985e-05 4.36118e-06
0.0290984 -6.3237e-05 2.30647e-06
0.0290989 -4.34475e-05 1.09844e-06
0.0290978 -2.97436e-05 4.49718e-07
0.0290962 -2.03284e-05 1.30833e-07
0.0290946 -1.38916e-05 -9.27469e-09
0.0290933 -9.50151e-06 -5.9695e-08
0.0290922 -6.50901e-06 -6.89749e-08
0.0290914 -4.46756e-06 -6.17967e-08
0.0290907 -3.07268e-06 -4.98044e-08
0.0290903 -2.11767e-06 -3.79542e-08
0.0290899 -1.46249e-06 -2.79857e-08
0.0290897 -1.01218e-06 -2.02141e-08
0.0290895 -7.02272e-07 -1.44015e-08
0.0290894 -4.889e-07 -1.01526e-08
0.0290893 -3.42179e-07 -7.07681e-09
0.0290892 -2.417e-07 -4.87989e-09
0.0290892 -1.73366e-07 -3.42658e-09
0.0290892 -1.27054e-07 -2.67311e-09
0.0290891 -9.4985e-08 -2.70412e-09
0.0290891 -7.05584e-08 -3.65395e-09
0.0290891 -4.75993e-08 -5.53354e-09
0.029089 -1.89077e-08 -9.09953e-09
0.029089 2.77747e-08 -2.60208e-08
0.0290889 1.07395e-07 -6.46567e-08
0.0290888 1.5716e-07 -8.87788e-08
0.018 -8.49374e-07 -3.50593e-06
0.0180009 -0.0019844 -0.00304286
0.0183309 -0.0037962 -0.00614391
0.0184122 -0.0025304 -0.00528836
0.017428 0.00078387 -0.00422564
0.0171732 0.00718901 -0.00396825
0.0179064 0.0126225 -0.00294926
0.0110147 0.00693508 -0.00144346
7.33349e-05 -4.63581e-05 -0.000420374
-2.51687e-05 -5.38848e-05 5.44948e-07
7.7271e-06 -0.000594385 0.000744192
0.00845182 -0.0026285 0.00109361
0.0159182 -0.00426832 0.000495047
0.0209881 -0.00412182 0.000215153
0.0241582 -0.00342959 9.53815e-05
0.0260709 -0.00278744 9.95712e-07
0.0271898 -0.00226363 -8.89205e-05
0.0278074 -0.00178812 -0.000138859
0.0281091 -0.00134237 -0.000134646
0.0282211 -0.000957079 -9.86582e-05
0.028231 -0.000656803 -5.95033e-05
0.0281956 -0.000440398 -3.13391e-05
0.0281472 -0.000291584 -1.52076e-05
0.0281013 -0.000191781 -7.21339e-06
0.0280635 -0.000125743 -3.57053e-06
0.0280347 -8.23957e-05 -1.94137e-06
0.0280138 -5.40786e-05 -1.16882e-06
0.027999 -3.56165e-05 -7.54778e-07
0.0279887 -2.35711e-05 -5.02602e-07
0.0279816 -1.56878e-05 -3.36115e-07
0.0279767 -1.0503e-05 -2.22942e-07
0.0279733 -7.0725e-06 -1.46102e-07
0.0279711 -4.78798e-06 -9.46358e-08
0.0279695 -3.25688e-06 -6.07227e-08
0.0279684 -2.22461e-06 -3.87063e-08
0.0279677 -1.525e-06 -2.45829e-08
0.0279671 -1.04874e-06 -1.56001e-08
0.0279668 -7.23395e-07 -9.9166e-09
0.0279665 -5.00585e-07 -6.32923e-09
0.0279664 -3.47791e-07 -4.06628e-09
0.0279662 -2.42954e-07 -2.64571e-09
0.0279662 -1.70892e-07 -1.80447e-09
0.0279661 -1.20886e-07 -1.4484e-09
0.027966 -8.50806e-08 -1.51401e-09
0.027966 -5.73378e-08 -1.99598e-09
0.027966 -3.22561e-08 -2.88998e-09
0.0279659 -4.2235e-09 -4.08176e-09
0.0279659 3.38376e-08 -6.166e-09
0.0279659 9.632e-08 -1.62496e-08
0.0279659 1.94984e-07 -4.5494e-08
0.0279659 2.53743e-07 -6.60932e-08
0.0148 -4.76921e-07 -3.10557e-06
0.0148015 -0.00101647 -0.00281858
0.0162447 -0.00158103 -0.00541069
0.0178504 8.26043e-05 -0.00430289
0.019242 0.00330709 -0.00311444
0.0210404 0.00743773 -0.00288617
0.0248616 0.0129763 -0.00240753
0.0281457 0.0195433 -0.00147926
0.0231194 0.0113453 -0.000315989
0.0235542 2.67082e-11 0.000631677
0.0267056 -0.00666329 0.00156069
0.0302804 -0.0130372 0.00211266
0.031282 -0.0110585 0.00166152
0.0307695 -0.0078487 0.00120607
0.0297083 -0.00527149 0.000780897
0.0285893 -0.00352662 0.000390103
0.027603 -0.00237474 7.16134e-05
0.0268011 -0.00158368 -0.000119347
0.0261819 -0.00102796 -0.000177431
0.025723 -0.000648482 -0.000153215
0.0253943 -0.00040248 -0.000103834
0.0251655 -0.000249493 -6.09289e-05
0.0250102 -0.000156052 -3.26415e-05
0.0249067 -9.88867e-05 -1.65103e-05
0.0248387 -6.35023e-05 -8.06021e-06
0.0247944 -4.1281e-05 -3.85012e-06
0.0247657 -2.71302e-05 -1.811e-06
0.0247471 -1.80033e-05 -8.37748e-07
0.0247349 -1.20478e-05 -3.76708e-07
0.024727 -8.12045e-06 -1.59756e-07
0.0247217 -5.50615e-06 -5.90025e-08
0.0247182 -3.75173e-06 -1.36328e-08
0.0247159 -2.56635e-06 5.39957e-09
0.0247143 -1.761e-06 1.20731e-08
0.0247132 -1.21143e-06 1.31547e-08
0.0247125 -8.3512e-07 1.19153e-08
0.024712 -5.76792e-07 9.90982e-09
0.0247116 -3.9914e-07 7.84449e-09
0.0247114 -2.76822e-07 6.00583e-09
0.0247112 -1.92492e-07 4.47731e-09
0.0247111 -1.34163e-07 3.2504e-09
0.024711 -9.34178e-08 2.26843e-09
0.024711 -6.41796e-08 1.45046e-09
0.0247109 -4.18367e-08 7.59558e-10
0.0247109 -2.2527e-08 1.46303e-10
0.0247109 -2.53727e-09 -3.95428e-10
0.0247109 2.24334e-08 -6.88774e-10
0.0247109 5.75201e-08 -1.24503e-09
0.0247109 1.12388e-07 -5.09966e-09
0.0247109 1.92096e-07 -2.6363e-08
0.024711 2.37704e-07 -4.42819e-08
0.01 -9.10006e-07 -2.80891e-06
0.0100007 -0.000624219 -0.00229611
0.0113434 -0.000679328 -0.0041403
0.0132652 0.000606911 -0.00293866
0.0157916 0.00258329 -0.00187122
0.019784 0.00561765 -0.00187733
0.0257293 0.00836968 -0.00238872