# vtk DataFile Version 2.0
Tobias Weinzierl: CPU, Manycore and Cluster Computing
ASCII

DATASET STRUCTURED_POINTS
DIMENSIONS  51 11 6

ORIGIN 0 0 0 

SPACING 0.1 0.1 0.1 

POINT_DATA 3366

VECTORS velocity float
0 0 0
-1.65291e-13 0 0
-1.86987e-10 0 0
-3.8364e-10 0 0
-1.16213e-09 0 0
6.122e-10 0 0
9.98913e-10 0 0
9.89154e-10 0 0
1.13725e-09 0 0
1.60721e-09 0 0
2.33886e-09 0 0
3.09888e-09 0 0
3.61107e-09 0 0
3.71588e-09 0 0
3.39444e-09 0 0
2.73229e-09 0 0
1.88235e-09 0 0
1.02504e-09 0 0
2.85916e-10 0 0
-3.19051e-10 0 0
-8.55261e-10 0 0
-1.39737e-09 0 0
-1.97744e-09 0 0
-2.57763e-09 0 0
-3.15293e-09 0 0
-3.65896e-09 0 0
-4.06878e-09 0 0
-4.3762e-09 0 0
-4.59063e-09 0 0
-4.72948e-09 0 0
-4.81195e-09 0 0
-4.85533e-09 0 0
-4.87345e-09 0 0
-4.87645e-09 0 0
-4.87134e-09 0 0
-4.8626e-09 0 0
-4.85295e-09 0 0
-4.84386e-09 0 0
-4.836e-09 0 0
-4.82958e-09 0 0
-4.82456e-09 0 0
-4.82075e-09 0 0
-4.81793e-09 0 0
-4.8159e-09 0 0
-4.81447e-09 0 0
-4.81352e-09 0 0
-4.81292e-09 0 0
-4.81258e-09 0 0
-4.8124e-09 0 0
-4.81247e-09 0 0
0.00188416 0 0
0 3.80306e-07 0
-2.64188e-13 1.78426e-11 0
-2.77175e-10 -1.56064e-10 0
-3.17516e-10 -4.70249e-11 0
-7.21483e-10 -6.26918e-10 0
2.13304e-09 -5.27802e-10 0
2.56873e-09 7.48194e-10 0
2.39604e-09 6.95912e-10 0
3.03792e-09 -1.84798e-10 0
4.65778e-09 -1.27042e-09 0
6.96656e-09 -2.22066e-09 0
9.25254e-09 -2.70775e-09 0
1.07225e-08 -2.50344e-09 0
1.09337e-08 -1.61594e-09 0
1.00014e-08 -3.91737e-10 0
8.39733e-09 6.64016e-10 0
6.56521e-09 1.22082e-09 0
4.74252e-09 1.27602e-09 0
2.9728e-09 1.05649e-09 0
1.19663e-09 8.09329e-10 0
-6.55587e-10 6.63754e-10 0
-2.60386e-09 6.22532e-10 0
-4.59743e-09 6.26273e-10 0
-6.52943e-09 6.17233e-10 0
-8.27713e-09 5.68799e-10 0
-9.74495e-09 4.83976e-10 0
-1.08889e-08 3.80555e-10 0
-1.17165e-08 2.77365e-10 0
-1.22713e-08 1.87249e-10 0
-1.26125e-08 1.15938e-10 0
-1.27997e-08 6.38537e-11 0
-1.28841e-08 2.8491e-11 0
-1.29052e-08 6.26472e-12 0
-1.28909e-08 -6.39715e-12 0
-1.28599e-08 -1.25481e-11 0
-1.28237e-08 -1.4566e-11 0
-1.27885e-08 -1.41778e-11 0
-1.27575e-08 -1.25616e-11 0
-1.27319e-08 -1.04702e-11 0
-1.27116e-08 -8.34746e-12 0
-1.2696e-08 -6.42631e-12 0
-1.26844e-08 -4.80419e-12 0
-1.26759e-08 -3.49728e-12 0
-1.26698e-08 -2.47755e-12 0
-1.26656e-08 -1.69694e-12 0
-1.26627e-08 -1.10124e-12 0
-1.26609e-08 -6.34469e-13 0
-1.26599e-08 -2.27993e-13 0
-1.26594e-08 2.44858e-13 0
-1.26597e-08 1.02866e-12 0
0.00543012 -8.78511e-09 0
0 -1.83065e-08 0
7.76375e-14 -2.45945e-11 0
2.30141e-10 -7.80124e-10 0
1.1829e-09 -2.10889e-09 0
2.47116e-09 -3.67662e-09 0
4.25678e-09 -2.57532e-09 0
3.32137e-09 3.92583e-11 0
2.42321e-09 -1.95942e-10 0
2.7576e-09 -1.8771e-09 0
4.88185e-09 -3.72195e-09 0
8.25443e-09 -5.50745e-09 0
1.16628e-08 -6.90397e-09 0
1.38812e-08 -7.41414e-09 0
1.40453e-08 -6.60598e-09 0
1.24993e-08 -4.54311e-09 0
1.01753e-08 -1.75846e-09 0
7.75432e-09 1.04926e-09 0
5.43736e-09 3.28119e-09 0
3.16878e-09 4.62083e-09 0
8.88699e-10 5.08348e-09 0
-1.39143e-09 4.91019e-09 0
-3.62326e-09 4.38761e-09 0
-5.74673e-09 3.7244e-09 0
-7.68729e-09 3.0326e-09 0
-9.362e-09 2.36641e-09 0
-1.07053e-08 1.75869e-09 0
-1.16935e-08 1.23417e-09 0
-1.23494e-08 8.08009e-10 0
-1.273e-08 4.83085e-10 0
-1.2906e-08 2.51075e-10 0
-1.29452e-08 9.66316e-11 0
-1.29034e-08 1.97402e-12 0
-1.28214e-08 -4.97602e-11 0
-1.27259e-08 -7.27403e-11 0
-1.2633e-08 -7.78723e-11 0
-1.25507e-08 -7.29715e-11 0
-1.24821e-08 -6.32789e-11 0
-1.24274e-08 -5.20681e-11 0
-1.23851e-08 -4.12081e-11 0
-1.23534e-08 -3.16272e-11 0
-1.23301e-08 -2.36647e-11 0
-1.23132e-08 -1.73206e-11 0
-1.23013e-08 -1.24209e-11 0
-1.22929e-08 -8.72128e-12 0
-1.22872e-08 -5.96503e-12 0
-1.22834e-08 -3.91005e-12 0
-1.2281e-08 -2.32666e-12 0
-1.22797e-08 -9.47298e-13 0
-1.22791e-08 5.53619e-13 0
-1.22793e-08 2.50627e-12 0
0.0078628 -2.23946e-08 0
0 -6.28219e-07 0
3.87807e-13 -4.93218e-10 0
6.28387e-10 -1.96501e-09 0
1.93013e-09 -3.93093e-09 0
2.78829e-09 -5.09826e-09 0
2.73599e-09 -2.63971e-09 0
1.75132e-09 -1.18652e-12 0
1.01633e-09 -9.36995e-10 0
6.35632e-12 -2.91457e-09 0
8.69881e-10 -5.21231e-09 0
3.75286e-09 -8.01951e-09 0
6.86927e-09 -1.09717e-08 0
8.99232e-09 -1.26623e-08 0
9.02403e-09 -1.19171e-08 0
7.26168e-09 -8.74016e-09 0
4.56945e-09 -3.83291e-09 0
1.64062e-09 1.62476e-09 0
-1.10551e-09 6.27035e-09 0
-3.38202e-09 9.11071e-09 0
-4.98916e-09 9.9307e-09 0
-5.88738e-09 9.20559e-09 0
-6.22455e-09 7.66468e-09 0
-6.24012e-09 5.90739e-09 0
-6.13237e-09 4.27368e-09 0
-5.99483e-09 2.89914e-09 0
-5.83733e-09 1.81173e-09 0
-5.63999e-09 9.95744e-10 0
-5.39232e-09 4.18488e-10 0
-5.10405e-09 3.93645e-11 0
-4.79807e-09 -1.85267e-10 0
-4.49933e-09 -2.97459e-10 0
-4.22722e-09 -3.33888e-10 0
-3.99298e-09 -3.23824e-10 0
-3.80036e-09 -2.88797e-10 0
-3.64778e-09 -2.43432e-10 0
-3.53061e-09 -1.96836e-10 0
-3.44292e-09 -1.5407e-10 0
-3.37872e-09 -1.17447e-10 0
-3.33258e-09 -8.7566e-11 0
-3.29996e-09 -6.40526e-11 0
-3.27722e-09 -4.60691e-11 0
-3.26156e-09 -3.26251e-11 0
-3.25091e-09 -2.27556e-11 0
-3.24375e-09 -1.56062e-11 0
-3.23903e-09 -1.04592e-11 0
-3.23601e-09 -6.72136e-12 0
-3.2342e-09 -3.89317e-12 0
-3.2332e-09 -1.53137e-12 0
-3.23257e-09 7.28211e-13 0
-3.23237e-09 3.0244e-12 0
0.00897364 -2.47194e-08 0
0 -1.2347e-06 0
-1.21549e-13 -9.57338e-10 0
6.55035e-11 -2.72806e-09 0
4.28171e-10 -3.62533e-09 0
5.44744e-10 -2.92627e-09 0
-1.07386e-13 -1.07187e-09 0
-3.87725e-12 -3.66016e-12 0
3.45195e-12 -3.64136e-12 0
-8.50589e-10 -1.36291e-09 0
-2.38303e-09 -4.77158e-09 0
-2.60505e-09 -9.03964e-09 0
-1.23505e-09 -1.32363e-08 0
-4.08896e-10 -1.56572e-08 0
-9.41508e-10 -1.48042e-08 0
-2.57426e-09 -1.06263e-08 0
-4.80416e-09 -3.96696e-09 0
-7.14756e-09 3.39186e-09 0
-9.12859e-09 9.33621e-09 0
-1.02686e-08 1.246e-08 0
-1.02286e-08 1.26451e-08 0
-9.00195e-09 1.07828e-08 0
-6.93845e-09 8.04129e-09 0
-4.55166e-09 5.30325e-09 0
-2.27672e-09 3.01438e-09 0
-3.46617e-10 1.29772e-09 0
1.18929e-09 1.15942e-10 0
2.38122e-09 -6.23397e-10 0
3.30482e-09 -1.02197e-09 0
4.02433e-09 -1.17498e-09 0
4.58509e-09 -1.16509e-09 0
5.01846e-09 -1.0592e-09 0
5.34816e-09 -9.07275e-10 0
5.59404e-09 -7.4331e-10 0
5.77352e-09 -5.88003e-10 0
5.90181e-09 -4.5205e-10 0
5.9917e-09 -3.39349e-10 0
6.05355e-09 -2.49646e-10 0
6.09539e-09 -1.80485e-10 0
6.12327e-09 -1.28517e-10 0
6.14158e-09 -9.02848e-11 0
6.15344e-09 -6.26504e-11 0
6.16103e-09 -4.29657e-11 0
6.16582e-09 -2.91062e-11 0
6.16879e-09 -1.94239e-11 0
6.17058e-09 -1.26673e-11 0
6.17161e-09 -7.8953e-12 0
6.17218e-09 -4.41157e-12 0
6.17259e-09 -1.73698e-12 0
6.17325e-09 4.19333e-13 0
6.17393e-09 2.14024e-12 0
0.00943779 -1.15682e-08 0
0 -1.11946e-06 0
-5.88177e-13 -8.5681e-10 0
-5.75022e-10 -2.01791e-09 0
-7.63595e-10 -2.71e-09 0
-1.00765e-09 -2.98483e-09 0
-7.13133e-10 -1.43601e-09 0
-3.66487e-12 3.61328e-12 0
-1.77456e-13 1.77456e-13 0
3.86016e-12 -2.98282e-12 0
-1.42176e-09 -1.93899e-09 0
-4.75575e-09 -7.29866e-09 0
-6.95688e-09 -1.31371e-08 0
-8.58709e-09 -1.60604e-08 0
-1.02358e-08 -1.49912e-08 0
-1.17333e-08 -1.00699e-08 0
-1.29072e-08 -2.58055e-09 0
-1.35834e-08 5.1708e-09 0
-1.35675e-08 1.0825e-08 0
-1.26198e-08 1.30896e-08 0
-1.05735e-08 1.21717e-08 0
-7.53708e-09 9.29102e-09 0
-3.94001e-09 5.81645e-09 0
-3.49806e-10 2.68625e-09 0
2.77483e-09 3.07673e-10 0
5.21403e-09 -1.27215e-09 0
6.96513e-09 -2.17022e-09 0
8.14649e-09 -2.5492e-09 0
8.90823e-09 -2.56728e-09 0
9.38258e-09 -2.36074e-09 0
9.66856e-09 -2.03762e-09 0
9.83446e-09 -1.6762e-09 0
9.92549e-09 -1.32713e-09 0
9.97105e-09 -1.01837e-09 0
9.98998e-09 -7.61345e-10 0
9.99417e-09 -5.56838e-10 0
9.99092e-09 -3.99746e-10 0
9.98453e-09 -2.82432e-10 0
9.97737e-09 -1.96815e-10 0
9.97065e-09 -1.35506e-10 0
9.96488e-09 -9.229e-11 0
9.96018e-09 -6.22238e-11 0
9.95648e-09 -4.15285e-11 0
9.95366e-09 -2.7399e-11 0
9.95156e-09 -1.77979e-11 0
9.95003e-09 -1.12707e-11 0
9.94896e-09 -6.80326e-12 0
9.94832e-09 -3.7197e-12 0
9.94819e-09 -1.61162e-12 0
9.94874e-09 -2.78639e-13 0
9.94956e-09 3.90536e-13 0
0.009562 1.00379e-08 0
0 -7.70743e-07 0
-3.48977e-13 -4.74946e-10 0
-5.31738e-10 -1.27363e-09 0
-6.01753e-10 -1.7083e-09 0
-1.19283e-09 -1.95648e-09 0
-1.53408e-09 -1.7935e-09 0
-6.51527e-10 -7.46687e-10 0
-3.49552e-12 3.72627e-12 0
1.45839e-13 -1.45839e-13 0
4.83649e-12 -2.67526e-12 0
-2.0246e-09 -3.50871e-09 0
-7.23283e-09 -1.0285e-08 0
-1.18514e-08 -1.40773e-08 0
-1.5251e-08 -1.27333e-08 0
-1.73094e-08 -7.40649e-09 0
-1.77849e-08 -1.75772e-10 0
-1.66823e-08 6.45142e-09 0
-1.43103e-08 1.04801e-08 0
-1.10446e-08 1.11668e-08 0
-7.21506e-09 9.13118e-09 0
-3.17871e-09 5.73929e-09 0
6.38682e-10 2.28204e-09 0
3.83625e-09 -4.81021e-10 0
6.17329e-09 -2.31839e-09 0
7.6238e-09 -3.3105e-09 0
8.32849e-09 -3.65311e-09 0
8.50192e-09 -3.55257e-09 0
8.35404e-09 -3.18694e-09 0
8.04921e-09 -2.6953e-09 0
7.69709e-09 -2.17655e-09 0
7.36069e-09 -1.69282e-09 0
7.0699e-09 -1.27632e-09 0
6.83391e-09 -9.37673e-10 0
6.65065e-09 -6.74087e-10 0
6.51288e-09 -4.75834e-10 0
6.41185e-09 -3.30752e-10 0
6.3392e-09 -2.26907e-10 0
6.28776e-09 -1.53909e-10 0
6.25178e-09 -1.03346e-10 0
6.22685e-09 -6.87462e-11 0
6.20972e-09 -4.53039e-11 0
6.19801e-09 -2.9548e-11 0
6.19008e-09 -1.90226e-11 0
6.18476e-09 -1.20218e-11 0
6.18126e-09 -7.38489e-12 0
6.17904e-09 -4.34577e-12 0
6.17777e-09 -2.42274e-12 0
6.1773e-09 -1.34173e-12 0
6.17759e-09 -1.02059e-12 0
6.17814e-09 -1.39782e-12 0
0.00943779 2.87282e-08 0
0 -5.39622e-07 0
-2.90211e-14 -2.23731e-10 0
-2.04905e-10 -6.66584e-10 0
-2.23735e-10 -1.1871e-09 0
-5.7803e-10 -1.4791e-09 0
-1.48634e-09 -1.14766e-09 0
-1.8174e-09 -3.73867e-10 0
-1.19253e-09 3.90344e-11 0
-3.77572e-12 3.7339e-12 0
5.30779e-12 2.81307e-12 0
1.44579e-12 -2.07125e-09 0
-3.56301e-09 -7.37418e-09 0
-9.9393e-09 -1.0715e-08 0
-1.62097e-08 -8.4514e-09 0
-2.02557e-08 -2.84293e-09 0
-2.0723e-08 3.14763e-09 0
-1.78185e-08 7.3701e-09 0
-1.29226e-08 8.79569e-09 0
-7.58733e-09 7.54098e-09 0
-2.88069e-09 4.63816e-09 0
7.00494e-10 1.40168e-09 0
3.0437e-09 -1.21596e-09 0
4.24033e-09 -2.85646e-09 0
4.48931e-09 -3.60062e-09 0
4.04531e-09 -3.70549e-09 0
3.17401e-09 -3.4281e-09 0
2.11054e-09 -2.96174e-09 0
1.03219e-09 -2.43412e-09 0
5.08749e-11 -1.92286e-09 0
-7.78614e-10 -1.47006e-09 0
-1.44276e-09 -1.09335e-09 0
-1.95294e-09 -7.94469e-10 0
-2.33239e-09 -5.66067e-10 0
-2.6075e-09 -3.96695e-10 0
-2.80297e-09 -2.74111e-10 0
-2.93962e-09 -1.87121e-10 0
-3.03392e-09 -1.26375e-10 0
-3.09832e-09 -8.45104e-11 0
-3.14193e-09 -5.5975e-11 0
-3.17126e-09 -3.67056e-11 0
-3.19088e-09 -2.37986e-11 0
-3.20393e-09 -1.52165e-11 0
-3.21254e-09 -9.5534e-12 0
-3.21815e-09 -5.85611e-12 0
-3.22174e-09 -3.49163e-12 0
-3.22396e-09 -2.05123e-12 0
-3.22524e-09 -1.28778e-12 0
-3.22585e-09 -1.08279e-12 0
-3.2259e-09 -1.4638e-12 0
-3.2259e-09 -2.42867e-12 0
0.00897365 3.47693e-08 0
0 -4.57151e-07 0
4.35783e-14 -9.87824e-11 0
8.11091e-11 -3.49305e-10 0
7.5363e-11 -6.64314e-10 0
-4.59961e-10 -8.53383e-10 0
-1.69372e-09 -3.83349e-10 0
-2.7313e-09 6.09075e-10 0
-2.84922e-09 8.59648e-11 0
-1.8925e-09 -4.66932e-10 0
-1.32384e-09 3.47467e-14 0
-1.52567e-10 -2.62265e-09 0
-2.34245e-09 -6.19196e-09 0
-9.25953e-09 -6.25526e-09 0
-1.69926e-08 -3.20574e-09 0
-2.13334e-08 1.13685e-09 0
-2.03475e-08 4.60722e-09 0
-1.51449e-08 6.03239e-09 0
-8.52559e-09 5.30536e-09 0
-3.00084e-09 3.10212e-09 0
2.57679e-10 5.04358e-10 0
1.30094e-09 -1.54994e-09 0
7.73349e-10 -2.65732e-09 0
-6.22531e-10 -2.92317e-09 0
-2.36825e-09 -2.67852e-09 0
-4.15288e-09 -2.22963e-09 0
-5.81186e-09 -1.76164e-09 0
-7.26613e-09 -1.35301e-09 0
-8.48546e-09 -1.02199e-09 0
-9.46987e-09 -7.62603e-10 0
-1.02386e-08 -5.62715e-10 0
-1.08217e-08 -4.10528e-10 0
-1.1253e-08 -2.96025e-10 0
-1.15653e-08 -2.10952e-10 0
-1.17876e-08 -1.4856e-10 0
-1.19434e-08 -1.03391e-10 0
-1.20512e-08 -7.11019e-11 0
-1.21251e-08 -4.83021e-11 0
-1.21752e-08 -3.23935e-11 0
-1.2209e-08 -2.14211e-11 0
-1.22315e-08 -1.39396e-11 0
-1.22465e-08 -8.89815e-12 0
-1.22563e-08 -5.54589e-12 0
-1.22627e-08 -3.35613e-12 0
-1.22668e-08 -1.96662e-12 0
-1.22694e-08 -1.13463e-12 0
-1.2271e-08 -7.06947e-13 0
-1.2272e-08 -6.01403e-13 0
-1.22727e-08 -7.91066e-13 0
-1.22731e-08 -1.30261e-12 0
-1.22737e-08 -2.13175e-12 0
0.00786284 2.53268e-08 0
0 -4.70921e-07 0
1.3955e-13 4.0362e-12 0
2.03381e-10 -1.89261e-11 0
1.74399e-10 -6.10346e-11 0
-5.08198e-10 -6.98128e-11 0
-2.01611e-09 -3.00779e-11 0
-3.427e-09 4.61376e-10 0
-3.59525e-09 5.27311e-10 0
-4.15216e-09 -1.70518e-10 0
-3.84869e-09 -9.76995e-10 0
-3.01214e-09 -1.85061e-09 0
-5.04359e-09 -1.61811e-09 0
-8.8827e-09 -2.87018e-10 0
-1.27117e-08 1.02586e-09 0
-1.40154e-08 1.93268e-09 0
-1.17687e-08 2.19243e-09 0
-7.2176e-09 1.73076e-09 0
-2.69577e-09 7.8957e-10 0
4.31193e-11 -1.96349e-10 0
5.66708e-10 -8.73123e-10 0
-5.64127e-10 -1.13086e-09 0
-2.49137e-09 -1.06791e-09 0
-4.54109e-09 -8.54891e-10 0
-6.35983e-09 -6.2549e-10 0
-7.84155e-09 -4.42614e-10 0
-9.00565e-09 -3.16237e-10 0
-9.90963e-09 -2.33237e-10 0
-1.06091e-08 -1.77432e-10 0
-1.11477e-08 -1.37259e-10 0
-1.15586e-08 -1.06296e-10 0
-1.1868e-08 -8.14912e-11 0
-1.20976e-08 -6.14633e-11 0
-1.22653e-08 -4.5476e-11 0
-1.2386e-08 -3.29721e-11 0
-1.24717e-08 -2.34194e-11 0
-1.25316e-08 -1.62926e-11 0
-1.2573e-08 -1.10958e-11 0
-1.26012e-08 -7.38773e-12 0
-1.26202e-08 -4.79638e-12 0
-1.26329e-08 -3.0224e-12 0
-1.26412e-08 -1.83426e-12 0
-1.26466e-08 -1.05897e-12 0
-1.26501e-08 -5.71693e-13 0
-1.26523e-08 -2.85826e-13 0
-1.26537e-08 -1.44687e-13 0
-1.26545e-08 -1.15312e-13 0
-1.26552e-08 -1.79513e-13 0
-1.26557e-08 -3.22503e-13 0
-1.26562e-08 -5.2288e-13 0
-1.26571e-08 -7.99592e-13 0
0.00543016 8.50141e-09 0
0 0 0
1.60573e-13 0 0
1.16638e-10 0 0
9.86425e-11 0 0
-2.28048e-10 0 0
-9.87625e-10 0 0
-1.86159e-09 0 0
-1.93867e-09 0 0
-2.25969e-09 0 0
-2.52451e-09 0 0
-2.8581e-09 0 0
-3.393e-09 0 0
-3.66666e-09 0 0
-3.77555e-09 0 0
-3.41798e-09 0 0
-2.40304e-09 0 0
-1.07551e-09 0 0
-4.67959e-11 0 0
2.86192e-10 0 0
-6.36313e-11 0 0
-8.17271e-10 0 0
-1.66905e-09 0 0
-2.42599e-09 0 0
-3.02088e-09 0 0
-3.46353e-09 0 0
-3.79041e-09 0 0
-4.03624e-09 0 0
-4.22533e-09 0 0
-4.37262e-09 0 0
-4.48731e-09 0 0
-4.57567e-09 0 0
-4.64269e-09 0 0
-4.69258e-09 0 0
-4.72904e-09 0 0
-4.75519e-09 0 0
-4.77361e-09 0 0
-4.78636e-09 0 0
-4.79503e-09 0 0
-4.80084e-09 0 0
-4.80467e-09 0 0
-4.80716e-09 0 0
-4.80875e-09 0 0
-4.80975e-09 0 0
-4.81037e-09 0 0
-4.81075e-09 0 0
-4.81101e-09 0 0
-4.81122e-09 0 0
-4.81143e-09 0 0
-4.81165e-09 0 0
-4.812e-09 0 0
0.00188418 0 0
0 0 5.27466e-07
-2.29064e-13 0 1.69101e-10
-4.93184e-10 0 5.39804e-10
-8.27378e-10 0 1.02267e-09
-3.78828e-09 0 -3.68691e-10
9.50431e-10 0 -1.63326e-09
2.42161e-09 0 -1.12516e-09
2.84202e-09 0 -8.34439e-10
3.31881e-09 0 -4.33611e-10
4.23291e-09 0 6.84763e-11
5.58074e-09 0 7.28715e-10
7.36685e-09 0 1.4353e-09
9.51399e-09 0 1.88616e-09
1.16472e-08 0 1.83222e-09
1.30647e-08 0 1.37495e-09
1.31597e-08 0 8.47741e-10
1.18024e-08 0 4.86183e-10
9.37775e-09 0 3.20239e-10
6.46696e-09 0 2.87472e-10
3.49993e-09 0 3.31733e-10
6.4998e-10 0 4.14428e-10
-2.06094e-09 0 4.99478e-10
-4.62331e-09 0 5.5379e-10
-6.97949e-09 0 5.58048e-10
-9.04229e-09 0 5.12339e-10
-1.07406e-08 0 4.31716e-10
-1.20496e-08 0 3.36594e-10
-1.2993e-08 0 2.44474e-10
-1.36275e-08 0 1.66099e-10
-1.40231e-08 0 1.05536e-10
-1.4247e-08 0 6.22327e-11
-1.43561e-08 0 3.32937e-11
-1.43934e-08 0 1.51643e-11
-1.43897e-08 0 4.58378e-12
-1.43654e-08 0 -1.0474e-12
-1.43333e-08 0 -3.62391e-12
-1.43005e-08 0 -4.43732e-12
-1.42709e-08 0 -4.31917e-12
-1.4246e-08 0 -3.77566e-12
-1.4226e-08 0 -3.09585e-12
-1.42105e-08 0 -2.43121e-12
-1.41988e-08 0 -1.85062e-12
-1.41903e-08 0 -1.37591e-12
-1.41841e-08 0 -1.00422e-12
-1.41798e-08 0 -7.22363e-13
-1.41769e-08 0 -5.15654e-13
-1.4175e-08 0 -3.74148e-13
-1.41739e-08 0 -3.01897e-13
-1.41733e-08 0 -3.02915e-13
-1.41735e-08 0 -2.49798e-13
0.00535475 0 -8.53795e-10
0.0036 -3.01527e-07 -6.11492e-08
0.0035998 -0.00138891 -2.06919e-05
0.0066959 -0.0039383 0.000117298
0.0136089 -0.00587124 -0.000482218
0.0234971 -0.0145062 -0.00426224
0.0464262 -0.0134941 -0.00489275
0.0499724 -0.00196135 -0.00164861
0.0497184 0.00261496 -0.000165942
0.0447472 0.00493529 0.000571198
0.0391619 0.00509224 0.000569715
0.0340838 0.00441358 0.000318353
0.0298298 0.00352253 6.11665e-05
0.0264638 0.00265445 -0.000124148
0.0239073 0.00191262 -0.000224828
0.0219991 0.00133985 -0.000253124
0.020566 0.000931167 -0.000230494
0.0194686 0.000653651 -0.000179919
0.0186125 0.000468972 -0.000121117
0.0179399 0.000344936 -6.79904e-05
0.0174152 0.000258478 -2.77816e-05
0.0170133 0.000194883 -1.98133e-06
0.0167134 0.000145744 1.157e-05
0.0164963 0.000106761 1.64775e-05
0.0163446 7.58662e-05 1.62585e-05
0.0162426 5.19196e-05 1.36157e-05
0.016177 3.39987e-05 1.02884e-05
0.016137 2.11337e-05 7.20668e-06
0.0161143 1.23028e-05 4.74371e-06
0.0161028 6.5219e-06 2.95187e-06
0.0160979 2.93013e-06 1.73553e-06
0.016097 8.3426e-07 9.55331e-07
0.016098 -2.87391e-07 4.7997e-07
0.0160998 -8.05797e-07 2.05296e-07
0.0161018 -9.72191e-07 5.639e-08
0.0161038 -9.49124e-07 -1.72768e-08
0.0161054 -8.36856e-07 -4.81274e-08
0.0161067 -6.93829e-07 -5.60918e-08
0.0161078 -5.51595e-07 -5.29125e-08
0.0161086 -4.25178e-07 -4.51836e-08
0.0161092 -3.19984e-07 -3.63821e-08
0.0161096 -2.36225e-07 -2.81714e-08
0.01611 -1.71625e-07 -2.1206e-08
0.0161102 -1.22988e-07 -1.56166e-08
0.0161103 -8.70611e-08 -1.1296e-08
0.0161105 -6.0937e-08 -8.04951e-09
0.0161105 -4.2195e-08 -5.64305e-09
0.0161106 -2.88994e-08 -3.7781e-09
0.0161106 -1.95974e-08 -1.77644e-09
0.0161107 -1.40195e-08 1.07544e-09
0.0161107 -2.00508e-08 -9.34956e-11
0.0161107 -2.78591e-08 -2.95251e-09
0.01 -1.33721e-07 -1.43381e-06
0.0100007 -0.00298225 -0.000597418
0.0147877 -0.00997127 -0.00079177
0.0242042 -0.0177806 -0.00122305
0.038665 -0.0326946 -0.00332873
0.0593986 -0.0250126 -0.000807287
0.05661 -0.00279214 0.00320023
0.0560417 0.00504175 0.00339651
0.0502764 0.0099922 0.00300406
0.0448422 0.0101088 0.00212623
0.0403835 0.00899018 0.00121243
0.0367196 0.00753938 0.000499999
0.0337927 0.00606653 1.9605e-06
0.0315457 0.00475327 -0.000298742
0.0298228 0.00368365 -0.000426406
0.0284737 0.00284996 -0.000427634
0.0273946 0.00220238 -0.000355447
0.0265249 0.00169189 -0.000254994
0.0258318 0.00128439 -0.000157555
0.0252943 0.000959026 -7.98449e-05
0.0248923 0.000702149 -2.67476e-05
0.0246038 0.000502856 4.23774e-06
0.0244059 0.000351249 1.87723e-05
0.0242768 0.000238329 2.28151e-05
0.0241979 0.000156203 2.12047e-05
0.0241537 9.8113e-05 1.72556e-05
0.0241325 5.83446e-05 1.29069e-05
0.0241254 3.21327e-05 9.09031e-06
0.0241263 1.56084e-05 6.11326e-06
0.0241312 5.74482e-06 3.95894e-06
0.0241376 2.73838e-07 2.48048e-06
0.024144 -2.43061e-06 1.506e-06
0.0241498 -3.48426e-06 8.84737e-07
0.0241547 -3.62001e-06 5.00372e-07
0.0241586 -3.29752e-06 2.6953e-07
0.0241616 -2.79026e-06 1.35303e-07
0.0241639 -2.25018e-06 6.02137e-08
0.0241655 -1.7535e-06 2.02972e-08
0.0241668 -1.33156e-06 6.29598e-10
0.0241676 -9.9082e-07 -7.8376e-09
0.0241683 -7.25267e-07 -1.04347e-08
0.0241687 -5.23721e-07 -1.0194e-08
0.024169 -3.73862e-07 -8.76738e-09
0.0241692 -2.64252e-07 -7.01353e-09
0.0241694 -1.85172e-07 -5.34883e-09
0.0241695 -1.28845e-07 -3.89311e-09
0.0241695 -8.9328e-08 -2.45055e-09
0.0241696 -6.37063e-08 -4.81982e-10
0.0241696 -5.195e-08 2.34988e-09
0.0241697 -6.02985e-08 -2.33684e-09
0.0241697 -7.09761e-08 -8.65203e-09
0.0148 -9.42595e-07 -1.72291e-06
0.0148023 -0.00530177 -0.00112334
0.0204171 -0.0164715 -0.00244975
0.0276426 -0.0289706 -0.00394545
0.0323286 -0.0464322 -0.00578437
0.0307717 -0.0286508 -0.00142385
0.0269463 -1.21914e-05 0.00331711
0.0263793 0.00703755 0.00353099
0.0298566 0.0143224 0.00343393
0.0302113 0.0136726 0.00247514
0.0294469 0.0118245 0.00153778
0.0286518 0.00992818 0.000732532
0.0280647 0.00804737 0.000151876
0.027778 0.00635884 -0.000201242
0.0276628 0.00499203 -0.000351288
0.0276126 0.00391462 -0.000361572
0.0275796 0.00305037 -0.000296715
0.0275536 0.00234117 -0.000205064
0.0275398 0.00175616 -0.00011671
0.0275442 0.00128139 -4.65965e-05
0.027568 0.000907353 1.00368e-06
0.0276076 0.000622402 2.80805e-05
0.0276575 0.000412141 3.94289e-05
0.027712 0.000261536 4.04046e-05
0.0277665 0.000156871 3.56752e-05
0.0278174 8.6597e-05 2.86764e-05
0.0278627 4.13836e-05 2.15519e-05
0.0279013 1.38699e-05 1.53848e-05
0.027933 -1.61137e-06 1.05387e-05
0.0279581 -9.28533e-06 6.9741e-06
0.0279775 -1.2177e-05 4.47684e-06
0.0279921 -1.23544e-05 2.79304e-06
0.0280028 -1.11603e-05 1.69354e-06
0.0280106 -9.41642e-06 9.95861e-07
0.0280161 -7.5894e-06 5.65172e-07
0.02802 -5.91695e-06 3.06719e-07
0.0280226 -4.49752e-06 1.56377e-07
0.0280245 -3.35081e-06 7.20802e-08
0.0280257 -2.45634e-06 2.69957e-08
0.0280266 -1.77679e-06 4.46111e-09
0.0280272 -1.27103e-06 -5.593e-09
0.0280275 -9.00749e-07 -9.07331e-09
0.0280278 -6.33257e-07 -9.32636e-09
0.028028 -4.42176e-07 -8.18284e-09
0.0280281 -3.0702e-07 -6.57572e-09
0.0280282 -2.12591e-07 -4.9055e-09
0.0280282 -1.48151e-07 -3.04364e-09
0.0280283 -1.07413e-07 -1.04323e-09
0.0280283 -8.82191e-08 -5.19365e-10
0.0280283 -8.41254e-08 -9.13718e-09
0.0280283 -8.4319e-08 -1.7317e-08
0.018 -1.90265e-06 -1.66723e-06
0.018003 -0.00702494 -0.00187212
0.0208065 -0.0190935 -0.00492842
0.0207748 -0.0251528 -0.0063576
0.0161204 -0.0271628 -0.00764584
-1.5847e-06 -0.0140881 -0.00434552
9.54655e-05 2.54948e-05 9.16734e-07
-3.24571e-05 3.37769e-05 0.000655487
0.00654423 0.00402279 0.00144644
0.0133212 0.0090722 0.00142065
0.0166998 0.00976257 0.00101962
0.0184995 0.00871296 0.000500117
0.0202241 0.00715933 3.06944e-05
0.0219312 0.00562813 -0.000237687
0.0234499 0.00440801 -0.000322518
0.0247148 0.00345248 -0.000297475
0.025739 0.00266979 -0.0002244
0.0265644 0.00200701 -0.000141849
0.0272332 0.00144854 -6.95256e-05
0.0277769 0.000994933 -1.48826e-05
0.0282174 0.000645116 2.13074e-05
0.0285704 0.000389644 4.13414e-05
0.0288491 0.000212494 4.87589e-05
0.0290659 9.57606e-05 4.74756e-05
0.0292319 2.31921e-05 4.11892e-05
0.0293571 -1.84041e-05 3.28945e-05
0.0294502 -3.91421e-05 2.46267e-05
0.0295182 -4.65338e-05 1.74895e-05
0.0295671 -4.59953e-05 1.1878e-05
0.0296015 -4.1276e-05 7.75509e-06
0.0296254 -3.48274e-05 4.88124e-06
0.0296416 -2.81319e-05 2.96315e-06
0.0296525 -2.19897e-05 1.73072e-06
0.0296596 -1.67527e-05 9.66546e-07
0.0296643 -1.25029e-05 5.09383e-07
0.0296673 -9.17583e-06 2.4635e-07
0.0296692 -6.64156e-06 1.01871e-07
0.0296704 -4.75228e-06 2.72458e-08
0.0296711 -3.36793e-06 -7.82522e-09
0.0296716 -2.36769e-06 -2.15574e-08
0.0296718 -1.65324e-06 -2.45128e-08
0.029672 -1.14776e-06 -2.25667e-08
0.0296721 -7.92959e-07 -1.88108e-08
0.0296722 -5.45652e-07 -1.47683e-08
0.0296722 -3.74479e-07 -1.10707e-08
0.0296722 -2.57209e-07 -7.94559e-09
0.0296723 -1.78566e-07 -5.30692e-09
0.0296723 -1.27289e-07 -3.41004e-09
0.0296723 -9.6462e-08 -5.99733e-09
0.0296723 -6.95907e-08 -1.5834e-08
0.0296722 -5.34728e-08 -2.24285e-08
0.0196 -2.77154e-06 -2.51369e-06
0.019601 -0.00594291 -0.00274337
0.0190496 -0.0132665 -0.00649046
0.0159162 -0.0163306 -0.00670601
0.0108352 -0.0153269 -0.00670034
0.00168846 -0.0063226 -0.00504957
7.10138e-05 -6.51909e-05 -0.00130574
3.27338e-05 -3.27338e-05 -4.17358e-08
-3.18607e-05 3.30535e-05 0.000265379
0.00384191 0.00265843 0.000569518
0.00873222 0.00614526 0.00050426
0.0116082 0.0062958 0.000158418
0.0148406 0.00484513 -0.000224637
0.0179813 0.00354656 -0.000399905
0.0206687 0.00266211 -0.000407771
0.0228411 0.00202582 -0.000333053
0.0245633 0.00150338 -0.000235015
0.0259242 0.00104424 -0.000145049
0.026998 0.000649643 -7.46464e-05
0.0278389 0.000335208 -2.45534e-05
0.0284869 0.000108155 8.26135e-06
0.0289752 -3.84248e-05 2.72038e-05
0.0293343 -0.000120782 3.53772e-05
0.0295918 -0.000157433 3.58289e-05
0.0297722 -0.000164519 3.15596e-05
0.0298958 -0.000154244 2.51817e-05
0.0299786 -0.000135116 1.85828e-05
0.0300328 -0.000112746 1.28396e-05
0.0300674 -9.06063e-05 8.36578e-06
0.0300888 -7.06355e-05 5.15408e-06
0.0301016 -5.37037e-05 2.99525e-06
0.030109 -3.99877e-05 1.62522e-06
0.0301131 -2.92614e-05 8.02284e-07
0.0301151 -2.11041e-05 3.36095e-07
0.0301161 -1.50386e-05 9.01498e-08
0.0301164 -1.06099e-05 -2.69309e-08
0.0301164 -7.42388e-06 -7.29601e-08
0.0301163 -5.15932e-06 -8.26598e-08
0.0301161 -3.56545e-06 -7.58018e-08
0.030116 -2.45255e-06 -6.29731e-08
0.0301158 -1.68054e-06 -4.93977e-08
0.0301157 -1.14785e-06 -3.73269e-08
0.0301156 -7.81929e-07 -2.74556e-08
0.0301156 -5.31582e-07 -1.97672e-08
0.0301155 -3.61051e-07 -1.39659e-08
0.0301155 -2.45362e-07 -9.75616e-09
0.0301154 -1.67016e-07 -6.99641e-09
0.0301154 -1.1198e-07 -5.50785e-09
0.0301154 -6.97876e-08 -9.74428e-09
0.0301154 -2.26492e-08 -1.74222e-08
0.0301153 5.70119e-09 -2.0404e-08
0.0196 -1.33665e-06 -3.51511e-06
0.0195999 -0.00370686 -0.00312898
0.0187441 -0.00815256 -0.00653229
0.0174846 -0.00820914 -0.00606203
0.0131367 -0.00439537 -0.00554684
0.00903288 0.00248474 -0.00534336
0.00612913 0.00311802 -0.00313485
7.11928e-05 -5.91891e-05 -0.000683283
2.73283e-05 -2.73283e-05 -1.25237e-07
-3.13236e-05 3.23978e-05 9.84627e-05
0.0026081 0.0017797 0.00037797
0.00677743 0.00266198 0.000284237
0.0119645 0.00111277 -0.000161756
0.0165495 0.000244839 -0.00037984
0.0201225 -1.04681e-05 -0.00040412
0.0228001 -7.09391e-05 -0.000333635
0.0247987 -0.000136356 -0.000238534
0.0262948 -0.000242277 -0.000154257
0.0274087 -0.000356538 -9.12219e-05
0.0282221 -0.000441011 -4.76954e-05
0.0287964 -0.0004772 -1.8976e-05
0.0291843 -0.000467401 -1.2227e-06
0.0294325 -0.000425247 8.26083e-06
0.0295815 -0.000366193 1.1748e-05
0.0296639 -0.00030239 1.14174e-05
0.0297042 -0.000241543 9.18446e-06
0.0297196 -0.000187707 6.44411e-06
0.0297213 -0.000142482 3.99569e-06
0.0297164 -0.000105967 2.15451e-06
0.0297091 -7.7426e-05 9.36335e-07
0.0297014 -5.57176e-05 2.20476e-07
0.0296946 -3.95828e-05 -1.45252e-07
0.029689 -2.78208e-05 -2.93388e-07
0.0296845 -1.93832e-05 -3.20783e-07
0.0296811 -1.34092e-05 -2.9023e-07
0.0296786 -9.22406e-06 -2.3846e-07
0.0296767 -6.31657e-06 -1.84686e-07
0.0296754 -4.31e-06 -1.37474e-07
0.0296744 -2.93232e-06 -9.95115e-08
0.0296738 -1.99025e-06 -7.05956e-08
0.0296733 -1.34811e-06 -4.9353e-08
0.029673 -9.11552e-07 -3.41298e-08
0.0296728 -6.15393e-07 -2.33955e-08
0.0296726 -4.14784e-07 -1.59243e-08
0.0296725 -2.78824e-07 -1.08376e-08
0.0296724 -1.85843e-07 -7.52947e-09
0.0296724 -1.20224e-07 -5.78265e-09
0.0296723 -6.93822e-08 -4.94441e-09
0.0296723 -2.25394e-08 -8.54015e-09
0.0296722 3.22239e-08 -1.24319e-08
0.0296722 6.33784e-08 -1.23665e-08
0.018 -8.49083e-07 -3.51141e-06
0.0180009 -0.00202045 -0.00305248
0.0183085 -0.00391727 -0.00617069
0.0183531 -0.00274241 -0.00529339
0.0173247 0.000535794 -0.00418909
0.0170334 0.00699556 -0.00396611
0.0177637 0.012537 -0.00302527
0.0109013 0.00692198 -0.00152131
7.26254e-05 -4.57527e-05 -0.000444498
-2.44925e-05 -5.33508e-05 5.48122e-07
7.78859e-06 -0.000786322 0.000763303
0.00816765 -0.00308503 0.00111426
0.0153337 -0.00468091 0.000459124
0.0201921 -0.00423362 0.000107053
0.0232886 -0.00319347 -4.2924e-05
0.0252779 -0.00230309 -9.41902e-05
0.0265879 -0.001717 -0.000101308
0.0274544 -0.00136414 -9.16396e-05
0.0280073 -0.00113749 -7.71232e-05
0.0283293 -0.000961166 -6.18303e-05
0.0284839 -0.000800202 -4.70895e-05
0.0285249 -0.00064783 -3.38804e-05
0.0284968 -0.000509027 -2.31001e-05
0.0284338 -0.000389532 -1.51478e-05
0.0283592 -0.000291719 -9.79156e-06
0.0282869 -0.000214696 -6.41422e-06
0.0282238 -0.000155754 -4.34284e-06
0.0281723 -0.000111618 -3.04865e-06
0.0281323 -7.91425e-05 -2.19352e-06
0.0281022 -5.56036e-05 -1.5908e-06
0.0280802 -3.87633e-05 -1.1467e-06
0.0280644 -2.68504e-05 -8.14452e-07
0.0280532 -1.85023e-05 -5.67634e-07
0.0280454 -1.2697e-05 -3.87761e-07
0.02804 -8.6844e-06 -2.59774e-07
0.0280363 -5.92387e-06 -1.70916e-07
0.0280338 -4.0316e-06 -1.10641e-07
0.028032 -2.73818e-06 -7.06092e-08
0.0280308 -1.85614e-06 -4.4514e-08
0.02803 -1.25586e-06 -2.77753e-08
0.0280295 -8.48068e-07 -1.71828e-08
0.0280291 -5.71504e-07 -1.05515e-08
0.0280289 -3.84112e-07 -6.43501e-09
0.0280287 -2.56923e-07 -3.92027e-09
0.0280286 -1.69755e-07 -2.47184e-09
0.0280285 -1.08215e-07 -1.73051e-09
0.0280284 -6.16429e-08 -1.58576e-09
0.0280284 -2.16997e-08 -1.39853e-09
0.0280283 1.96802e-08 -2.93678e-09
0.0280283 6.6161e-08 -3.89048e-09
0.0280283 9.05152e-08 -3.0287e-09
0.0148 -4.75061e-07 -3.11088e-06
0.0148015 -0.00104405 -0.002834
0.0162273 -0.00167432 -0.0054356
0.0177781 -8.39227e-05 -0.00429486
0.0190749 0.00310282 -0.00305704
0.0207832 0.00729473 -0.00282939
0.0245854 0.0129648 -0.00240856
0.0278757 0.0194937 -0.00153214
0.0229331 0.0112677 -0.000359664
0.0233977 6.24147e-12 0.00061732
0.0265562 -0.00676219 0.00156417
0.0299072 -0.013219 0.00213113
0.0305766 -0.0111289 0.00165627
0.0298653 -0.00772542 0.00113509
0.0288234 -0.00500166 0.000655977
0.0278914 -0.00322195 0.000293334
0.0271593 -0.00214678 6.93968e-05
0.0265885 -0.00149897 -4.25629e-05
0.0261244 -0.00108462 -8.3612e-05
0.025732 -0.000794859 -8.69694e-05
0.0253964 -0.000578507 -7.36588e-05
0.0251132 -0.000414367 -5.55045e-05
0.0248803 -0.000292252 -3.84811e-05
0.0246947 -0.000204157 -2.49802e-05
0.0245509 -0.000142211 -1.53541e-05
0.0244424 -9.92493e-05 -9.00035e-06
0.0243623 -6.95253e-05 -5.04725e-06
0.0243043 -4.88632e-05 -2.70053e-06
0.024263 -3.43992e-05 -1.36152e-06
0.0242339 -2.42137e-05 -6.25591e-07
0.0242137 -1.70167e-05 -2.3783e-07
0.0241997 -1.19271e-05 -4.49986e-08
0.0241902 -8.33187e-06 4.2046e-08
0.0241836 -5.79861e-06 7.38705e-08
0.0241791 -4.01958e-06 7.84973e-08
0.0241761 -2.775e-06 7.10386e-08
0.024174 -1.90788e-06 5.93404e-08
0.0241726 -1.3063e-06 4.72388e-08
0.0241717 -8.90728e-07 3.64138e-08
0.024171 -6.04865e-07 2.74298e-08
0.0241706 -4.09001e-07 2.0308e-08
0.0241703 -2.75206e-07 1.48364e-08
0.0241701 -1.83829e-07 1.07286e-08
0.02417 -1.20981e-07 7.69434e-09
0.0241699 -7.67315e-08 5.47755e-09
0.0241698 -4.3855e-08 3.91431e-09
0.0241698 -1.68805e-08 2.89307e-09
0.0241697 8.06849e-09 2.63948e-09
0.0241697 3.43365e-08 2.60661e-09
0.0241698 6.07703e-08 2.09299e-09
0.0241698 7.32754e-08 1.74891e-09
0.01 -9.10999e-07 -2.81947e-06
0.0100008 -0.000639585 -0.0023082
0.011316 -0.000727894 -0.00414906
0.013161 0.000526768 -0.00290476
0.0155615 0.00248827 -0.00179132
0.0194179 0.005533 -0.00179261
0.0253103 0.00835465 -0.00235038
0.0344324 0.0101194 -0.00209212
0.0460364 0.00480886 -0.000517913