# vtk DataFile Version 2.0
Tobias Weinzierl: CPU, Manycore and Cluster Computing
ASCII

DATASET STRUCTURED_POINTS
DIMENSIONS  51 11 6

ORIGIN 0 0 0 

SPACING 0.1 0.1 0.1 

POINT_DATA 3366

VECTORS velocity float
0 0 0
3.14976e-12 0 0
-7.00003e-08 0 0
-1.99104e-07 0 0
-2.88296e-07 0 0
-1.02612e-07 0 0
-2.76587e-08 0 0
6.82991e-09 0 0
2.03148e-09 0 0
-4.63406e-08 0 0
-1.01816e-07 0 0
-1.3579e-07 0 0
-1.45495e-07 0 0
-1.42024e-07 0 0
-1.35968e-07 0 0
-1.32343e-07 0 0
-1.31658e-07 0 0
-1.3271e-07 0 0
-1.34324e-07 0 0
-1.35835e-07 0 0
-1.36998e-07 0 0
-1.37792e-07 0 0
-1.38288e-07 0 0
-1.38571e-07 0 0
-1.38716e-07 0 0
-1.38779e-07 0 0
-1.38795e-07 0 0
-1.38789e-07 0 0
-1.38773e-07 0 0
-1.38755e-07 0 0
-1.38738e-07 0 0
-1.38724e-07 0 0
-1.38713e-07 0 0
-1.38705e-07 0 0
-1.38699e-07 0 0
-1.38695e-07 0 0
-1.38693e-07 0 0
-1.38692e-07 0 0
-1.38691e-07 0 0
-1.38691e-07 0 0
-1.38692e-07 0 0
-1.38692e-07 0 0
-1.38693e-07 0 0
-1.38694e-07 0 0
-1.38694e-07 0 0
-1.38695e-07 0 0
-1.38696e-07 0 0
-1.38698e-07 0 0
-1.38702e-07 0 0
-1.38715e-07 0 0
0.00248008 0 0
0 4.36096e-07 0
4.37718e-11 2.7211e-08 0
-1.20324e-07 6.63576e-08 0
-3.6663e-07 7.69779e-08 0
-4.9614e-07 5.3215e-08 0
-1.95999e-07 7.01637e-08 0
-1.03334e-07 1.12507e-07 0
-5.86761e-08 9.60072e-08 0
-3.05421e-08 7.98938e-08 0
-7.72124e-08 8.19281e-08 0
-1.59162e-07 6.84728e-08 0
-2.19608e-07 4.10365e-08 0
-2.42965e-07 1.52e-08 0
-2.44822e-07 6.80597e-10 0
-2.43724e-07 -3.08149e-09 0
-2.47489e-07 -1.58871e-09 0
-2.55318e-07 6.11764e-10 0
-2.64161e-07 1.81594e-09 0
-2.71909e-07 2.03458e-09 0
-2.77789e-07 1.72492e-09 0
-2.81845e-07 1.25422e-09 0
-2.84447e-07 8.14619e-10 0
-2.86014e-07 4.75351e-10 0
-2.869e-07 2.42282e-10 0
-2.87363e-07 9.62824e-11 0
-2.87579e-07 1.29069e-11 0
-2.87659e-07 -2.93382e-11 0
-2.87669e-07 -4.66025e-11 0
-2.87648e-07 -4.98991e-11 0
-2.87616e-07 -4.61982e-11 0
-2.87584e-07 -3.96186e-11 0
-2.87556e-07 -3.24158e-11 0
-2.87533e-07 -2.57035e-11 0
-2.87517e-07 -1.9937e-11 0
-2.87505e-07 -1.52182e-11 0
-2.87497e-07 -1.14774e-11 0
-2.87492e-07 -8.5756e-12 0
-2.87489e-07 -6.3578e-12 0
-2.87488e-07 -4.67914e-12 0
-2.87488e-07 -3.41478e-12 0
-2.87489e-07 -2.4618e-12 0
-2.8749e-07 -1.73681e-12 0
-2.87492e-07 -1.17219e-12 0
-2.87493e-07 -7.11326e-13 0
-2.87495e-07 -2.85259e-13 0
-2.87497e-07 2.27621e-13 0
-2.875e-07 9.26999e-13 0
-2.87506e-07 2.15116e-12 0
-2.87517e-07 7.67789e-12 0
-2.87547e-07 2.74605e-11 0
0.00679014 -1.71789e-07 0
0 9.85855e-09 0
9.99718e-11 3.03639e-08 0
-4.39686e-08 2.12621e-08 0
-2.34666e-07 -8.41906e-08 0
-2.59052e-07 -1.24705e-07 0
-4.65748e-08 2.3782e-08 0
-1.14684e-07 1.65061e-07 0
-1.37424e-07 1.1721e-07 0
-1.04545e-07 3.02473e-08 0
-9.65677e-08 6.01193e-09 0
-1.43229e-07 1.01011e-08 0
-1.86231e-07 3.06634e-08 0
-2.03988e-07 5.03599e-08 0
-2.02979e-07 5.55094e-08 0
-2.00322e-07 4.92727e-08 0
-2.04576e-07 3.93236e-08 0
-2.14247e-07 2.95074e-08 0
-2.25116e-07 2.10746e-08 0
-2.34405e-07 1.43763e-08 0
-2.41213e-07 9.38286e-09 0
-2.4572e-07 5.85855e-09 0
-2.48481e-07 3.48845e-09 0
-2.50059e-07 1.96423e-09 0
-2.50896e-07 1.02628e-09 0
-2.51299e-07 4.75612e-10 0
-2.51462e-07 1.69707e-10 0
-2.51501e-07 1.19262e-11 0
-2.51484e-07 -6.0267e-11 0
-2.51446e-07 -8.56382e-11 0
-2.51404e-07 -8.72239e-11 0
-2.51366e-07 -7.81094e-11 0
-2.51335e-07 -6.53369e-11 0
-2.51311e-07 -5.24239e-11 0
-2.51294e-07 -4.09201e-11 0
-2.51282e-07 -3.13339e-11 0
-2.51274e-07 -2.36624e-11 0
-2.5127e-07 -1.76821e-11 0
-2.51267e-07 -1.31004e-11 0
-2.51266e-07 -9.62748e-12 0
-2.51267e-07 -7.0065e-12 0
-2.51268e-07 -5.02063e-12 0
-2.51269e-07 -3.48781e-12 0
-2.51271e-07 -2.24519e-12 0
-2.51273e-07 -1.1305e-12 0
-2.51274e-07 4.14212e-14 0
-2.51277e-07 1.66793e-12 0
-2.51281e-07 4.95917e-12 0
-2.51287e-07 1.1995e-11 0
-2.51295e-07 2.3009e-11 0
-2.51316e-07 3.75136e-11 0
0.00911712 -2.61874e-07 0
0 -6.0648e-07 0
1.16254e-10 -3.71267e-09 0
2.44032e-08 -8.18314e-08 0
-1.35586e-07 -2.51033e-07 0
-1.68053e-07 -3.19281e-07 0
4.68098e-08 -1.46452e-07 0
-3.89839e-08 -1.00417e-10 0
-7.19162e-08 -4.69793e-08 0
-1.60721e-07 -1.27755e-07 0
-1.79982e-07 -1.44323e-07 0
-2.15953e-07 -8.87946e-08 0
-2.48827e-07 -5.35997e-09 0
-2.55135e-07 6.10837e-08 0
-2.35677e-07 8.22571e-08 0
-2.08581e-07 7.46964e-08 0
-1.89396e-07 5.89984e-08 0
-1.81053e-07 4.34554e-08 0
-1.79603e-07 3.02558e-08 0
-1.8082e-07 1.99547e-08 0
-1.82373e-07 1.2481e-08 0
-1.83461e-07 7.39482e-09 0
-1.84011e-07 4.12182e-09 0
-1.84183e-07 2.12148e-09 0
-1.84145e-07 9.61019e-10 0
-1.84017e-07 3.26649e-10 0
-1.83868e-07 6.2871e-12 0
-1.8373e-07 -1.35745e-10 0
-1.83616e-07 -1.8222e-10 0
-1.83527e-07 -1.81417e-10 0
-1.83461e-07 -1.60185e-10 0
-1.83413e-07 -1.32628e-10 0
-1.8338e-07 -1.05573e-10 0
-1.83357e-07 -8.18831e-11 0
-1.83342e-07 -6.23782e-11 0
-1.83332e-07 -4.69124e-11 0
-1.83326e-07 -3.49478e-11 0
-1.83324e-07 -2.58439e-11 0
-1.83323e-07 -1.89919e-11 0
-1.83323e-07 -1.38657e-11 0
-1.83324e-07 -1.00319e-11 0
-1.83326e-07 -7.13882e-12 0
-1.83328e-07 -4.89833e-12 0
-1.8333e-07 -3.05715e-12 0
-1.83332e-07 -1.33217e-12 0
-1.83333e-07 6.75794e-13 0
-1.83335e-07 3.37315e-12 0
-1.83336e-07 6.78642e-12 0
-1.83337e-07 1.08103e-11 0
-1.83335e-07 1.62143e-11 0
-1.83344e-07 2.44344e-11 0
0.00971583 -2.16021e-07 0
0 -1.16507e-06 0
4.42383e-11 -5.13925e-08 0
4.278e-09 -1.5548e-07 0
-1.6416e-07 -2.25543e-07 0
-2.63894e-07 -1.86767e-07 0
-4.00514e-11 -6.53302e-08 0
-7.31023e-11 -1.27695e-10 0
1.25968e-10 -1.28792e-10 0
-8.87467e-08 -9.2835e-08 0
-2.30634e-07 -1.80954e-07 0
-2.66549e-07 -1.21348e-07 0
-2.90494e-07 -1.36785e-08 0
-3.03053e-07 5.86159e-08 0
-2.87368e-07 7.36583e-08 0
-2.5102e-07 6.06471e-08 0
-2.14722e-07 4.51661e-08 0
-1.89805e-07 3.25371e-08 0
-1.75761e-07 2.21889e-08 0
-1.68321e-07 1.39837e-08 0
-1.64173e-07 8.02867e-09 0
-1.6161e-07 4.10537e-09 0
-1.59891e-07 1.74504e-09 0
-1.58697e-07 4.49372e-10 0
-1.57868e-07 -1.85893e-10 0
-1.573e-07 -4.43455e-10 0
-1.56918e-07 -5.02475e-10 0
-1.56665e-07 -4.68155e-10 0
-1.56501e-07 -3.98075e-10 0
-1.56395e-07 -3.21345e-10 0
-1.56328e-07 -2.51089e-10 0
-1.56285e-07 -1.91998e-10 0
-1.56259e-07 -1.44648e-10 0
-1.56244e-07 -1.07842e-10 0
-1.56235e-07 -7.98017e-11 0
-1.56231e-07 -5.87303e-11 0
-1.5623e-07 -4.30452e-11 0
-1.56231e-07 -3.14441e-11 0
-1.56232e-07 -2.28965e-11 0
-1.56235e-07 -1.66053e-11 0
-1.56237e-07 -1.19612e-11 0
-1.5624e-07 -8.49757e-12 0
-1.56242e-07 -5.84745e-12 0
-1.56244e-07 -3.71605e-12 0
-1.56246e-07 -1.90004e-12 0
-1.56247e-07 -3.19498e-13 0
-1.56247e-07 1.05539e-12 0
-1.56247e-07 2.35926e-12 0
-1.56245e-07 3.92311e-12 0
-1.56243e-07 6.54825e-12 0
-1.56251e-07 1.1143e-11 0
0.00983371 -1.13356e-07 0
0 -1.03983e-06 0
-6.17664e-12 -5.96304e-08 0
-2.78586e-08 -1.34993e-07 0
-1.88467e-07 -1.82875e-07 0
-3.24812e-07 -2.04849e-07 0
-1.31371e-07 -9.73525e-08 0
-9.58559e-11 9.88297e-11 0
2.43977e-11 -2.43977e-11 0
1.22832e-10 -1.29941e-10 0
-1.16348e-07 -8.30848e-08 0
-2.27682e-07 -1.2085e-07 0
-2.4369e-07 -6.45959e-09 0
-2.90291e-07 7.99558e-08 0
-3.17022e-07 8.15026e-08 0
-2.94995e-07 4.99571e-08 0
-2.4911e-07 2.58143e-08 0
-2.09508e-07 1.30262e-08 0
-1.84401e-07 5.90201e-09 0
-1.70196e-07 1.52113e-09 0
-1.6222e-07 -9.82863e-10 0
-1.57589e-07 -2.11385e-09 0
-1.54818e-07 -2.37737e-09 0
-1.53141e-07 -2.19167e-09 0
-1.52128e-07 -1.83148e-09 0
-1.51524e-07 -1.44638e-09 0
-1.51169e-07 -1.10335e-09 0
-1.50965e-07 -8.23565e-10 0
-1.5085e-07 -6.06374e-10 0
-1.50787e-07 -4.42694e-10 0
-1.50755e-07 -3.21561e-10 0
-1.5074e-07 -2.32904e-10 0
-1.50734e-07 -1.68444e-10 0
-1.50734e-07 -1.21754e-10 0
-1.50737e-07 -8.79995e-11 0
-1.50741e-07 -6.36151e-11 0
-1.50745e-07 -4.59994e-11 0
-1.5075e-07 -3.3266e-11 0
-1.50755e-07 -2.40505e-11 0
-1.5076e-07 -1.73667e-11 0
-1.50764e-07 -1.25007e-11 0
-1.50767e-07 -8.93799e-12 0
-1.50771e-07 -6.31749e-12 0
-1.50773e-07 -4.39618e-12 0
-1.50775e-07 -3.00265e-12 0
-1.50776e-07 -2.00234e-12 0
-1.50776e-07 -1.32287e-12 0
-1.50777e-07 -1.00125e-12 0
-1.50776e-07 -1.06114e-12 0
-1.50775e-07 -9.94665e-13 0
-1.50783e-07 1.65003e-14 0
0.00984989 3.00847e-09 0
0 -7.32852e-07 0
7.45577e-12 -5.43517e-08 0
-3.22416e-08 -1.2846e-07 0
-1.87021e-07 -1.38412e-07 0
-3.45363e-07 -1.1227e-07 0
-2.93296e-07 -6.98661e-08 0
-8.48137e-08 -2.18926e-08 0
-9.06357e-11 1.09014e-10 0
1.16544e-11 -1.16544e-11 0
8.178e-11 -1.59926e-10 0
-9.12059e-08 -3.20359e-08 0
-1.12221e-07 3.55503e-08 0
-2.04037e-07 1.48642e-07 0
-3.08425e-07 1.21197e-07 0
-3.28544e-07 4.76487e-08 0
-2.8112e-07 2.70687e-09 0
-2.27059e-07 -1.23628e-08 0
-1.91719e-07 -1.4763e-08 0
-1.73095e-07 -1.33677e-08 0
-1.6403e-07 -1.09477e-08 0
-1.59698e-07 -8.41405e-09 0
-1.57635e-07 -6.17652e-09 0
-1.56669e-07 -4.39304e-09 0
-1.56235e-07 -3.06377e-09 0
-1.56061e-07 -2.11455e-09 0
-1.56008e-07 -1.45391e-09 0
-1.5601e-07 -1.00037e-09 0
-1.56033e-07 -6.90725e-10 0
-1.56063e-07 -4.79335e-10 0
-1.56093e-07 -3.3454e-10 0
-1.56119e-07 -2.34834e-10 0
-1.56142e-07 -1.65748e-10 0
-1.5616e-07 -1.17568e-10 0
-1.56176e-07 -8.37567e-11 0
-1.56189e-07 -5.98921e-11 0
-1.562e-07 -4.29606e-11 0
-1.56209e-07 -3.08934e-11 0
-1.56217e-07 -2.2259e-11 0
-1.56223e-07 -1.60607e-11 0
-1.56229e-07 -1.16024e-11 0
-1.56234e-07 -8.39785e-12 0
-1.56238e-07 -6.10576e-12 0
-1.56241e-07 -4.48905e-12 0
-1.56243e-07 -3.39683e-12 0
-1.56245e-07 -2.76091e-12 0
-1.56246e-07 -2.61281e-12 0
-1.56247e-07 -3.16795e-12 0
-1.56248e-07 -4.84551e-12 0
-1.56247e-07 -7.73024e-12 0
-1.56256e-07 -1.10139e-11 0
0.00983369 1.18162e-07 0
0 -5.19844e-07 0
1.12944e-11 -4.97726e-08 0
-4.39753e-08 -1.11874e-07 0
-1.96865e-07 -1.08165e-07 0
-3.33863e-07 -5.9335e-08 0
-3.16853e-07 -2.18623e-08 0
-2.0117e-07 -4.3092e-08 0
-9.83464e-08 -3.45062e-08 0
-1.21799e-10 9.78146e-11 0
7.51927e-11 1.06046e-10 0
-3.36326e-11 -9.94688e-09 0
-3.21986e-08 1.03235e-07 0
-6.89563e-08 2.39098e-07 0
-1.8584e-07 1.78203e-07 0
-2.73063e-07 5.03442e-08 0
-2.72199e-07 -1.99333e-08 0
-2.3406e-07 -3.55916e-08 0
-2.0316e-07 -3.12627e-08 0
-1.87538e-07 -2.34078e-08 0
-1.81671e-07 -1.64147e-08 0
-1.8024e-07 -1.10763e-08 0
-1.80417e-07 -7.29922e-09 0
-1.81012e-07 -4.75417e-09 0
-1.81602e-07 -3.08963e-09 0
-1.82075e-07 -2.01693e-09 0
-1.82425e-07 -1.32813e-09 0
-1.82674e-07 -8.84082e-10 0
-1.82851e-07 -5.95329e-10 0
-1.82976e-07 -4.05451e-10 0
-1.83065e-07 -2.79062e-10 0
-1.83129e-07 -1.93904e-10 0
-1.83175e-07 -1.35859e-10 0
-1.8321e-07 -9.58736e-11 0
-1.83236e-07 -6.80676e-11 0
-1.83256e-07 -4.85715e-11 0
-1.83272e-07 -3.48056e-11 0
-1.83284e-07 -2.5029e-11 0
-1.83294e-07 -1.80539e-11 0
-1.83302e-07 -1.30618e-11 0
-1.83309e-07 -9.4847e-12 0
-1.83315e-07 -6.92773e-12 0
-1.8332e-07 -5.12085e-12 0
-1.83323e-07 -3.89124e-12 0
-1.83326e-07 -3.15252e-12 0
-1.83328e-07 -2.90751e-12 0
-1.8333e-07 -3.25712e-12 0
-1.83332e-07 -4.50512e-12 0
-1.83334e-07 -7.52484e-12 0
-1.83335e-07 -1.37741e-11 0
-1.83346e-07 -2.33662e-11 0
0.00971575 2.1508e-07 0
0 -4.6099e-07 0
2.00435e-11 -3.97867e-08 0
-7.00894e-08 -9.1136e-08 0
-2.28155e-07 -8.61408e-08 0
-3.47935e-07 -4.20234e-08 0
-3.39333e-07 7.99225e-10 0
-2.49686e-07 -1.47757e-08 0
-1.96615e-07 -9.86414e-08 0
-1.03883e-07 -7.58317e-08 0
-1.35694e-07 -2.02178e-12 0
-2.6623e-07 4.01691e-08 0
-2.92529e-07 1.33026e-07 0
-1.2427e-07 2.00019e-07 0
-7.87051e-08 1.61954e-07 0
-1.80316e-07 6.01766e-08 0
-2.49731e-07 -8.59943e-09 0
-2.55716e-07 -2.91052e-08 0
-2.45832e-07 -2.62038e-08 0
-2.41059e-07 -1.82881e-08 0
-2.41338e-07 -1.17088e-08 0
-2.43458e-07 -7.30911e-09 0
-2.45665e-07 -4.56615e-09 0
-2.47405e-07 -2.88889e-09 0
-2.48641e-07 -1.85974e-09 0
-2.49478e-07 -1.21898e-09 0
-2.50037e-07 -8.12404e-10 0
-2.5041e-07 -5.49385e-10 0
-2.5066e-07 -3.76191e-10 0
-2.5083e-07 -2.60356e-10 0
-2.50947e-07 -1.81832e-10 0
-2.5103e-07 -1.27978e-10 0
-2.51088e-07 -9.0669e-11 0
-2.51131e-07 -6.45947e-11 0
-2.51162e-07 -4.6234e-11 0
-2.51186e-07 -3.32215e-11 0
-2.51204e-07 -2.39495e-11 0
-2.51219e-07 -1.7314e-11 0
-2.5123e-07 -1.25498e-11 0
-2.51239e-07 -9.1228e-12 0
-2.51247e-07 -6.65963e-12 0
-2.51253e-07 -4.90134e-12 0
-2.51258e-07 -3.67504e-12 0
-2.51262e-07 -2.87828e-12 0
-2.51266e-07 -2.47677e-12 0
-2.51268e-07 -2.52395e-12 0
-2.51271e-07 -3.1821e-12 0
-2.51273e-07 -4.76624e-12 0
-2.51277e-07 -8.36091e-12 0
-2.51282e-07 -1.73052e-11 0
-2.51299e-07 -3.46664e-11 0
0.00911701 2.47443e-07 0
0 -4.88554e-07 0
2.35515e-11 -2.11931e-08 0
-9.32081e-08 -4.99064e-08 0
-2.4103e-07 -4.60106e-08 0
-3.36943e-07 -2.40711e-08 0
-3.4995e-07 -1.97268e-08 0
-2.95514e-07 -4.30594e-08 0
-2.59944e-07 -9.23471e-08 0
-2.85749e-07 -5.1e-08 0
-2.76835e-07 1.078e-07 0
-3.23988e-07 1.87917e-07 0
-2.76214e-07 9.27302e-08 0
-1.39108e-07 -5.06861e-08 0
-1.13091e-07 -9.89756e-08 0
-2.16654e-07 -6.33248e-08 0
-2.91931e-07 -1.18792e-08 0
-3.02346e-07 1.33601e-08 0
-2.92039e-07 1.49406e-08 0
-2.84532e-07 9.10042e-09 0
-2.82084e-07 4.09446e-09 0
-2.82262e-07 1.32327e-09 0
-2.8328e-07 1.05313e-10 0
-2.84348e-07 -3.16845e-10 0
-2.85221e-07 -3.9736e-10 0
-2.8587e-07 -3.55449e-10 0
-2.86333e-07 -2.83273e-10 0
-2.86658e-07 -2.14433e-10 0
-2.86886e-07 -1.58348e-10 0
-2.87046e-07 -1.1554e-10 0
-2.8716e-07 -8.3845e-11 0
-2.87242e-07 -6.0719e-11 0
-2.87302e-07 -4.39564e-11 0
-2.87345e-07 -3.18372e-11 0
-2.87378e-07 -2.30792e-11 0
-2.87403e-07 -1.67468e-11 0
-2.87422e-07 -1.21638e-11 0
-2.87437e-07 -8.84379e-12 0
-2.87449e-07 -6.43724e-12 0
-2.87459e-07 -4.69376e-12 0
-2.87466e-07 -3.435e-12 0
-2.87473e-07 -2.53636e-12 0
-2.87478e-07 -1.91543e-12 0
-2.87483e-07 -1.52699e-12 0
-2.87486e-07 -1.36462e-12 0
-2.87489e-07 -1.47628e-12 0
-2.87492e-07 -2.00005e-12 0
-2.87496e-07 -3.1901e-12 0
-2.87501e-07 -5.78356e-12 0
-2.87511e-07 -1.28063e-11 0
-2.87539e-07 -2.93397e-11 0
0.00679014 1.48078e-07 0
0 0 0
1.38356e-11 0 0
-4.8941e-08 0 0
-1.15472e-07 0 0
-1.55271e-07 0 0
-1.65508e-07 0 0
-1.62182e-07 0 0
-1.61685e-07 0 0
-1.81879e-07 0 0
-1.41147e-07 0 0
-5.77888e-08 0 0
-3.27242e-09 0 0
-1.56129e-08 0 0
-7.69509e-08 0 0
-1.40846e-07 0 0
-1.67633e-07 0 0
-1.63801e-07 0 0
-1.52225e-07 0 0
-1.4379e-07 0 0
-1.39549e-07 0 0
-1.37913e-07 0 0
-1.37509e-07 0 0
-1.3758e-07 0 0
-1.37786e-07 0 0
-1.37996e-07 0 0
-1.38171e-07 0 0
-1.38305e-07 0 0
-1.38404e-07 0 0
-1.38477e-07 0 0
-1.3853e-07 0 0
-1.38569e-07 0 0
-1.38598e-07 0 0
-1.3862e-07 0 0
-1.38636e-07 0 0
-1.38648e-07 0 0
-1.38658e-07 0 0
-1.38666e-07 0 0
-1.38672e-07 0 0
-1.38677e-07 0 0
-1.38681e-07 0 0
-1.38684e-07 0 0
-1.38687e-07 0 0
-1.38689e-07 0 0
-1.38691e-07 0 0
-1.38692e-07 0 0
-1.38694e-07 0 0
-1.38696e-07 0 0
-1.38699e-07 0 0
-1.38705e-07 0 0
-1.38722e-07 0 0
0.00248013 0 0
0 0 5.43592e-07
7.24967e-11 0 4.28165e-08
-1.143e-07 0 1.32792e-07
-4.03926e-07 0 1.41342e-07
-7.87175e-07 0 -1.49743e-07
-2.58321e-07 0 -3.30883e-07
-1.0933e-08 0 -2.22028e-07
1.20175e-07 0 -1.25748e-07
1.51421e-07 0 -2.67424e-08
8.46151e-08 0 2.19264e-08
-2.28587e-08 0 2.09982e-08
-1.17391e-07 0 2.66222e-09
-1.78909e-07 0 -8.95837e-09
-2.1267e-07 0 -1.02122e-08
-2.31221e-07 0 -6.61102e-09
-2.44473e-07 0 -2.73272e-09
-2.56265e-07 0 -2.54693e-10
-2.66713e-07 0 8.42221e-10
-2.75174e-07 0 1.08519e-09
-2.81433e-07 0 9.44354e-10
-2.85728e-07 0 6.97764e-10
-2.88497e-07 0 4.6952e-10
-2.90185e-07 0 2.97079e-10
-2.91155e-07 0 1.79855e-10
-2.91677e-07 0 1.05261e-10
-2.91931e-07 0 5.99255e-11
-2.92035e-07 0 3.33074e-11
-2.92059e-07 0 1.81077e-11
-2.92047e-07 0 9.63383e-12
-2.92019e-07 0 5.01279e-12
-2.91989e-07 0 2.54719e-12
-2.91962e-07 0 1.26155e-12
-2.9194e-07 0 6.08187e-13
-2.91923e-07 0 2.86079e-13
-2.91911e-07 0 1.33273e-13
-2.91902e-07 0 6.46065e-14
-2.91897e-07 0 3.65745e-14
-2.91894e-07 0 2.79732e-14
-2.91893e-07 0 2.95565e-14
-2.91893e-07 0 3.87639e-14
-2.91894e-07 0 5.74494e-14
-2.91895e-07 0 9.17538e-14
-2.91896e-07 0 1.52562e-13
-2.91898e-07 0 2.55575e-13
-2.91899e-07 0 4.36126e-13
-2.91901e-07 0 7.60826e-13
-2.91904e-07 0 1.15091e-12
-2.91909e-07 0 1.47309e-12
-2.9192e-07 0 4.81974e-12
-2.9195e-07 0 2.13393e-11
0.00677583 0 -1.0551e-07
0.0036 -9.84229e-08 7.36202e-08
0.00359977 -0.00134636 -7.54209e-05
0.00700734 -0.00428864 -0.000594063
0.0144535 -0.00771435 -0.00231497
0.0258278 -0.0138862 -0.00515433
0.0463188 -0.0106383 -0.00439931
0.0491154 -0.000787723 -0.00115734
0.048579 0.00326026 0.000347439
0.0433255 0.00532163 0.000862966
0.037676 0.00520976 0.000508395
0.0326543 0.00425393 -1.53838e-05
0.0284935 0.00313471 -0.000332863
0.0252957 0.00214645 -0.000388575
0.0230252 0.00140142 -0.000293608
0.0215039 0.000897968 -0.000171513
0.0205188 0.000573715 -8.20926e-05
0.0198962 0.000364773 -3.21672e-05
0.0195115 0.000229006 -9.14329e-06
0.0192791 0.000141182 -3.57056e-07
0.019142 8.527e-05 2.0932e-06
0.0190629 5.04087e-05 2.18114e-06
0.0190184 2.91427e-05 1.62095e-06
0.0189942 1.64474e-05 1.0392e-06
0.0189814 9.03031e-06 6.05368e-07
0.018975 4.79258e-06 3.2464e-07
0.018972 2.42978e-06 1.58343e-07
0.0189708 1.14948e-06 6.65858e-08
0.0189705 4.80367e-07 1.95144e-08
0.0189706 1.47851e-07 -2.41208e-09
0.0189708 -4.75352e-09 -1.10115e-08
0.0189711 -6.48696e-08 -1.30266e-08
0.0189713 -8.00431e-08 -1.21134e-08
0.0189715 -7.53318e-08 -1.01476e-08
0.0189717 -6.33943e-08 -8.02382e-09
0.0189718 -5.02327e-08 -6.12005e-09
0.0189719 -3.83948e-08 -4.55744e-09
0.0189719 -2.8719e-08 -3.33962e-09
0.018972 -2.12604e-08 -2.42483e-09
0.018972 -1.5765e-08 -1.76233e-09
0.018972 -1.19032e-08 -1.31157e-09
0.018972 -9.37713e-09 -1.05467e-09
0.0189721 -7.96874e-09 -1.00807e-09
0.0189721 -7.5706e-09 -1.2424e-09
0.0189721 -8.20848e-09 -1.89223e-09
0.0189721 -1.00239e-08 -3.07961e-09
0.0189721 -1.37053e-08 -5.11741e-09
0.0189722 -2.09003e-08 -7.92932e-09
0.0189722 -3.16919e-08 -4.93405e-09
0.0189724 -8.2581e-08 -1.62231e-08
0.0189727 -3.2218e-07 -1.72463e-07
0.0189732 -5.17001e-07 -3.12954e-07
0.01 -6.09084e-08 -1.18269e-06
0.010001 -0.00319731 -0.00053701
0.0150151 -0.0104406 -0.0013175
0.0240353 -0.0183683 -0.00290314
0.0372043 -0.0300321 -0.00427653
0.0567117 -0.0210569 -0.00120438
0.054821 -0.0014809 0.00209146
0.0549501 0.005776 0.00245072
0.0494294 0.0106693 0.00225834
0.0438657 0.0106425 0.00127506
0.0391171 0.00938317 0.000200445
0.0350244 0.00764467 -0.000431855
0.0318048 0.00571554 -0.000589906
0.0295648 0.00395286 -0.000470103
0.0281082 0.00259044 -0.000282582
0.0271936 0.00164282 -0.000138348
0.026635 0.00101782 -5.57225e-05
0.0263037 0.000617714 -1.671e-05
0.0261134 0.000367341 -1.30017e-06
0.0260079 0.000213933 3.34887e-06
0.0259516 0.000121839 3.82081e-06
0.0259231 6.76661e-05 3.02805e-06
0.0259096 3.64599e-05 2.08517e-06
0.0259039 1.8885e-05 1.33056e-06
0.0259022 9.23971e-06 8.08776e-07
0.0259022 4.11197e-06 4.74993e-07
0.025903 1.49965e-06 2.71679e-07
0.0259039 2.5098e-07 1.52012e-07
0.0259047 -2.82895e-07 8.3391e-08
0.0259054 -4.59128e-07 4.48742e-08
0.025906 -4.68919e-07 2.36599e-08
0.0259064 -4.1101e-07 1.21854e-08
0.0259068 -3.33842e-07 6.09563e-09
0.025907 -2.5928e-07 2.93321e-09
0.0259072 -1.95685e-07 1.33518e-09
0.0259073 -1.4494e-07 5.57349e-10
0.0259074 -1.06119e-07 1.99149e-10
0.0259074 -7.73209e-08 4.73419e-11
0.0259075 -5.65376e-08 -1.25041e-11
0.0259075 -4.20204e-08 -4.76574e-11
0.0259076 -3.24162e-08 -1.10944e-10
0.0259076 -2.68049e-08 -2.61642e-10
0.0259076 -2.47331e-08 -5.86037e-10
0.0259076 -2.63925e-08 -1.22828e-09
0.0259076 -3.28401e-08 -2.18107e-09
0.0259077 -4.62344e-08 -2.96426e-09
0.0259077 -7.75857e-08 -3.69171e-09
0.0259078 -1.62955e-07 -3.06084e-10
0.025908 -3.34539e-07 -2.51887e-08
0.0259083 -6.07834e-07 -2.56004e-07
0.0259085 -7.72408e-07 -4.58137e-07
0.0148 -9.49595e-07 -1.50311e-06
0.0148024 -0.00538025 -0.00107158
0.0198933 -0.016281 -0.00277626
0.0260837 -0.0274822 -0.00480337
0.0304686 -0.0427617 -0.00526136
0.02899 -0.0261989 -0.000850843
0.0261966 -1.10231e-05 0.00237132
0.0262256 0.00750572 0.00243933
0.0306906 0.0156087 0.00236756
0.030977 0.0153257 0.00143927
0.0297549 0.0133543 0.000450641
0.0285655 0.0108644 -0.000199098
0.0277649 0.00797729 -0.000405839
0.027476 0.00534631 -0.000347395
0.0274359 0.00340257 -0.000204022
0.0274704 0.00210516 -8.60698e-05
0.0275176 0.00127399 -1.94892e-05
0.0275631 0.000753414 8.3764e-06
0.0276036 0.000434494 1.55412e-05
0.0276378 0.000243793 1.42234e-05
0.0276652 0.0001326 1.05929e-05
0.027686 6.942e-05 7.11807e-06
0.0277012 3.4497e-05 4.49379e-06
0.027712 1.57951e-05 2.71966e-06
0.0277195 6.17368e-06 1.59584e-06
0.0277247 1.49872e-06 9.14012e-07
0.0277281 -5.67746e-07 5.12969e-07
0.0277305 -1.31621e-06 2.82632e-07
0.0277321 -1.43987e-06 1.52899e-07
0.0277331 -1.29874e-06 8.10817e-08
0.0277338 -1.0713e-06 4.19784e-08
0.0277343 -8.39867e-07 2.10558e-08
0.0277346 -6.37575e-07 1.00859e-08
0.0277349 -4.73664e-07 4.48177e-09
0.027735 -3.4671e-07 1.72215e-09
0.0277351 -2.51286e-07 4.39985e-10
0.0277352 -1.81128e-07 -9.5092e-11
0.0277353 -1.30504e-07 -2.67077e-10
0.0277353 -9.46967e-08 -2.75161e-10
0.0277353 -7.00847e-08 -2.24214e-10
0.0277353 -5.40791e-08 -1.77412e-10
0.0277354 -4.50561e-08 -1.86972e-10
0.0277354 -4.23491e-08 -2.94298e-10
0.0277354 -4.64151e-08 -4.90544e-10
0.0277354 -6.03919e-08 -7.20653e-10
0.0277354 -9.32962e-08 -1.2373e-09
0.0277355 -1.55313e-07 -4.20319e-09
0.0277355 -2.49381e-07 -1.05446e-08
0.0277356 -3.78589e-07 -5.80821e-08
0.0277357 -5.43679e-07 -3.08369e-07
0.0277356 -6.34442e-07 -5.14957e-07
0.018 -1.98992e-06 -1.68152e-06
0.0180026 -0.00662922 -0.00190576
0.0202403 -0.017693 -0.00514434
0.0200055 -0.0231213 -0.00674768
0.0158463 -0.0251763 -0.00695348
-1.28535e-06 -0.0131276 -0.00344556
0.0001003 3.17087e-05 7.02281e-07
-3.76098e-05 3.95229e-05 0.000465139
0.00726743 0.00498109 0.000960416
0.0152184 0.0112639 0.000834215
0.0186235 0.0119076 0.000424996
0.0202372 0.00992314 -2.15091e-05
0.0219644 0.00708393 -0.000258658
0.0237277 0.00447429 -0.000256117
0.0251922 0.00269608 -0.000150098
0.0262445 0.00159756 -4.92458e-05
0.0269401 0.000929158 8.75607e-06
0.0273825 0.000523759 2.94961e-05
0.0276596 0.000282732 3.00429e-05
0.0278317 0.00014431 2.33683e-05
0.0279376 6.80945e-05 1.59686e-05
0.0280023 2.81016e-05 1.01039e-05
0.0280414 8.33409e-06 6.07393e-06
0.0280648 -6.15116e-07 3.51839e-06
0.0280788 -4.05009e-06 1.97947e-06
0.0280871 -4.84681e-06 1.08592e-06
0.028092 -4.50286e-06 5.81308e-07
0.0280949 -3.76112e-06 3.02888e-07
0.0280966 -2.96539e-06 1.52544e-07
0.0280976 -2.25655e-06 7.31737e-08
0.0280983 -1.67735e-06 3.2385e-08
0.0280986 -1.22672e-06 1.21687e-08
0.0280989 -8.86834e-07 2.68579e-09
0.028099 -6.3583e-07 -1.34977e-09
0.0280991 -4.5326e-07 -2.72695e-09
0.0280991 -3.22022e-07 -2.88502e-09
0.0280992 -2.28646e-07 -2.54502e-09
0.0280992 -1.62924e-07 -2.05291e-09
0.0280992 -1.17349e-07 -1.56447e-09
0.0280992 -8.65695e-08 -1.14532e-09
0.0280992 -6.69439e-08 -8.24411e-10
0.0280992 -5.62559e-08 -6.24545e-10
0.0280992 -5.37366e-08 -6.11646e-10
0.0280993 -6.03175e-08 -9.67867e-10
0.0280993 -7.76648e-08 -2.08475e-09
0.0280993 -1.05893e-07 -5.43411e-09
0.0280993 -1.43466e-07 -1.43727e-08
0.0280992 -1.87006e-07 -2.78319e-08
0.0280992 -2.3761e-07 -8.36243e-08
0.0280992 -3.00812e-07 -3.31797e-07
0.028099 -3.36073e-07 -5.31293e-07
0.0196 -2.5692e-06 -2.63236e-06
0.0196008 -0.00530476 -0.00273667
0.0191035 -0.0119896 -0.00660079
0.0162099 -0.0145371 -0.00711107
0.0114258 -0.0131761 -0.00658737
0.00225836 -0.00532648 -0.0042645
7.58691e-05 -6.98551e-05 -0.000921527
3.22453e-05 -3.22453e-05 -4.58335e-08
-3.66294e-05 3.85902e-05 0.000136329
0.0049377 0.003757 0.00028109
0.0111949 0.00830826 0.0002242
0.0139737 0.00763818 -3.00003e-05
0.0172963 0.00466281 -0.000284263
0.02062 0.00226536 -0.000321719
0.0233457 0.000967283 -0.000225564
0.0252521 0.000383106 -9.99658e-05
0.0264526 0.000131 -1.37308e-05
0.02717 1.83314e-05 2.27752e-05
0.0275897 -3.01381e-05 2.88278e-05
0.0278327 -4.59625e-05 2.31692e-05
0.027972 -4.57842e-05 1.56193e-05
0.0280512 -3.90686e-05 9.57297e-06
0.0280957 -3.07812e-05 5.52226e-06
0.0281204 -2.31464e-05 3.04879e-06
0.028134 -1.69111e-05 1.62264e-06
0.0281414 -1.21326e-05 8.32874e-07
0.0281454 -8.60384e-06 4.0944e-07
0.0281475 -6.05647e-06 1.89187e-07
0.0281486 -4.24337e-06 7.84242e-08
0.0281492 -2.9643e-06 2.5164e-08
0.0281494 -2.067e-06 1.29605e-09
0.0281495 -1.43975e-06 -8.04625e-09
0.0281496 -1.00228e-06 -1.05527e-08
0.0281496 -6.97665e-07 -1.0098e-08
0.0281496 -4.85875e-07 -8.56613e-09
0.0281496 -3.38881e-07 -6.82364e-09
0.0281495 -2.37151e-07 -5.23136e-09
0.0281495 -1.67123e-07 -3.90939e-09
0.0281495 -1.1944e-07 -2.87295e-09
0.0281495 -8.77155e-08 -2.10422e-09
0.0281495 -6.77156e-08 -1.59781e-09
0.0281495 -5.67772e-08 -1.40149e-09
0.0281495 -5.31987e-08 -1.6891e-09
0.0281495 -5.54504e-08 -2.89518e-09
0.0281495 -6.16989e-08 -5.6353e-09
0.0281495 -6.94657e-08 -1.09827e-08
0.0281494 -7.50021e-08 -2.17117e-08
0.0281494 -7.13067e-08 -3.59936e-08
0.0281493 -5.14154e-08 -9.17175e-08
0.0281493 -1.77989e-08 -3.36579e-07
0.0281491 1.26341e-09 -5.32846e-07
0.0196 -1.27007e-06 -3.5225e-06
0.0196001 -0.00323762 -0.00307732
0.0190201 -0.00683914 -0.00666338
0.0177397 -0.00646377 -0.00665657
0.0139987 -0.0027808 -0.00572151
0.0101515 0.00342541 -0.00440394
0.006498 0.00334524 -0.00214901
7.5926e-05 -6.37843e-05 -0.000399752
2.71548e-05 -2.71548e-05 -1.30274e-07
-3.55114e-05 3.77475e-05 3.80234e-05
0.00374494 0.00283846 0.000339363
0.0083644 0.00389322 0.000379236
0.0138517 0.000626052 -4.83951e-05
0.0188294 -0.00137669 -0.00033476
0.0226539 -0.0017985 -0.000368824
0.0251416 -0.00144594 -0.000236274
0.026558 -0.000975718 -9.69904e-05
0.0273097 -0.000622402 -2.01557e-05
0.0276993 -0.000393555 6.70727e-06
0.0279 -0.000249264 1.08561e-05
0.0280025 -0.00015796 8.30611e-06
0.0280543 -0.000100054 5.12675e-06
0.0280799 -6.34157e-05 2.82994e-06
0.0280922 -4.03056e-05 1.44171e-06
0.0280978 -2.57444e-05 6.78291e-07
0.0281001 -1.6553e-05 2.85493e-07
0.0281009 -1.07249e-05 9.55699e-08
0.0281009 -7.0051e-06 1.06518e-08
0.0281007 -4.61216e-06 -2.25676e-08
0.0281004 -3.05965e-06 -3.17711e-08
0.0281002 -2.04379e-06 -3.07565e-08
0.0280999 -1.37363e-06 -2.61002e-08
0.0280998 -9.28252e-07 -2.07477e-08
0.0280996 -6.30345e-07 -1.58837e-08
0.0280995 -4.30034e-07 -1.18765e-08
0.0280994 -2.94844e-07 -8.74335e-09
0.0280994 -2.03457e-07 -6.37137e-09
0.0280993 -1.41779e-07 -4.6189e-09
0.0280993 -1.0045e-07 -3.36109e-09
0.0280993 -7.32169e-08 -2.51383e-09
0.0280993 -5.58431e-08 -2.05591e-09
0.0280993 -4.5291e-08 -2.05818e-09
0.0280992 -3.91216e-08 -2.71254e-09
0.0280992 -3.49939e-08 -4.34711e-09
0.0280992 -3.01121e-08 -7.35672e-09
0.0280992 -2.06159e-08 -1.26607e-08
0.0280991 -5.97301e-10 -2.31633e-08
0.0280991 4.16678e-08 -3.65812e-08
0.0280991 1.2584e-07 -8.82358e-08
0.028099 2.59603e-07 -3.28918e-07
0.0280989 3.37928e-07 -5.24328e-07
0.018 -7.94352e-07 -3.45512e-06
0.018001 -0.00159013 -0.00302019
0.0184987 -0.00271833 -0.00632574
0.0188793 -0.00113604 -0.00589385
0.0183303 0.00191826 -0.00466562
0.0182928 0.00765805 -0.00355851
0.018825 0.0127042 -0.00211608
0.0116035 0.00697142 -0.000947355
7.76734e-05 -4.98951e-05 -0.000308787
-2.85886e-05 -5.73561e-05 5.35591e-07
7.85031e-06 -0.000197497 0.00085837
0.00940029 -0.00258372 0.00136763
0.0171025 -0.0056758 0.000660731
0.0219892 -0.00627158 2.89708e-05
0.0249084 -0.00509348 -0.000310802
0.0265276 -0.00336583 -0.000317007
0.0273123 -0.00197123 -0.000189935
0.0276399 -0.00110621 -8.57043e-05
0.0277557 -0.000621728 -3.264e-05
0.0277854 -0.000354172 -1.12685e-05
0.0277844 -0.00020426 -3.75379e-06
0.0277749 -0.000119016 -1.32421e-06
0.0277648 -7.00424e-05 -5.70869e-07
0.0277565 -4.16693e-05 -3.27204e-07
0.0277502 -2.50848e-05 -2.28636e-07
0.0277457 -1.52921e-05 -1.71237e-07
0.0277426 -9.44305e-06 -1.28709e-07
0.0277404 -5.90599e-06 -9.52291e-08
0.0277388 -3.73929e-06 -6.92555e-08
0.0277378 -2.39477e-06 -4.96853e-08
0.027737 -1.54986e-06 -3.53136e-08
0.0277365 -1.01256e-06 -2.49557e-08
0.0277362 -6.67118e-07 -1.75834e-08
0.0277359 -4.42869e-07 -1.23762e-08
0.0277358 -2.96099e-07 -8.71448e-09
0.0277356 -1.99432e-07 -6.14704e-09
0.0277356 -1.35511e-07 -4.35419e-09
0.0277355 -9.32089e-08 -3.11609e-09
0.0277355 -6.52891e-08 -2.29052e-09
0.0277354 -4.6946e-08 -1.80139e-09
0.0277354 -3.48492e-08 -1.63577e-09
0.0277354 -2.64819e-08 -1.84659e-09
0.0277354 -1.96171e-08 -2.57564e-09
0.0277353 -1.18254e-08 -4.08925e-09
0.0277353 1.20777e-10 -6.69238e-09
0.0277353 2.10476e-08 -1.11453e-08
0.0277353 5.83159e-08 -2.02963e-08
0.0277353 1.2674e-07 -3.12332e-08
0.0277353 2.62691e-07 -7.34066e-08
0.0277353 4.93758e-07 -3.03288e-07
0.0277353 6.33506e-07 -4.95688e-07
0.0148 -4.74136e-07 -3.00077e-06
0.0148016 -0.000685696 -0.00281657
0.0165209 -0.000655999 -0.0056661
0.0186957 0.00126623 -0.00493292
0.0207414 0.00419169 -0.00363967
0.0228585 0.00761051 -0.00283415
0.0264273 0.0127281 -0.00197033
0.0295189 0.0198632 -0.00107673
0.0240258 0.011791 -0.000140667
0.0244255 7.10936e-11 0.000562228
0.028063 -0.00697845 0.00151805
0.0327824 -0.013825 0.00237508
0.03389 -0.0121547 0.00200248
0.0324024 -0.00904156 0.00103004
0.0302054 -0.0060651 3.53784e-05
0.0284564 -0.00362337 -0.000381264
0.0273611 -0.00196028 -0.000340636
0.0267337 -0.00101007 -0.00019293
0.0263812 -0.000518788 -8.97319e-05
0.0261824 -0.000271556 -3.80876e-05
0.0260691 -0.000145675 -1.55302e-05
0.0260039 -8.00197e-05 -6.25065e-06
0.0259658 -4.4905e-05 -2.52515e-06
0.0259433 -2.56847e-05 -1.03578e-06
0.0259299 -1.49448e-05 -4.34366e-07
0.0259217 -8.83183e-06 -1.86247e-07
0.0259166 -5.29431e-06 -8.08476e-08
0.0259134 -3.21591e-06 -3.46762e-08
0.0259114 -1.97748e-06 -1.39749e-08
0.0259101 -1.22977e-06 -4.64972e-09
0.0259093 -7.72706e-07 -5.68075e-10
0.0259087 -4.9008e-07 1.05799e-09
0.0259084 -3.13472e-07 1.54455e-09
0.0259081 -2.02085e-07 1.5273e-09
0.0259079 -1.31285e-07 1.31294e-09
0.0259078 -8.60209e-08 1.04419e-09
0.0259078 -5.69778e-08 7.80443e-10
0.0259077 -3.83126e-08 5.37708e-10
0.0259077 -2.62833e-08 3.07375e-10
0.0259076 -1.84007e-08 6.26035e-11
0.0259076 -1.28716e-08 -2.44722e-10
0.0259076 -8.19543e-09 -6.94638e-10
0.0259076 -2.81521e-09 -1.42173e-09
0.0259076 5.2463e-09 -2.64927e-09
0.0259076 1.88705e-08 -4.61905e-09
0.0259076 4.28416e-08 -7.85078e-09
0.0259076 8.50102e-08 -1.44853e-08
0.0259076 1.59358e-07 -2.18172e-08
0.0259077 3.12072e-07 -5.23775e-08
0.0259079 5.91519e-07 -2.57722e-07
0.0259081 7.65827e-07 -4.35299e-07
0.01 -9.20189e-07 -2.6751e-06
0.0100007 -0.000423354 -0.00235161
0.0117941 -0.00016431 -0.0044503
0.0145328 0.00119073 -0.00348625