# vtk DataFile Version 2.0
Tobias Weinzierl: CPU, Manycore and Cluster Computing
ASCII

DATASET STRUCTURED_POINTS
DIMENSIONS  51 11 6

ORIGIN 0 0 0 

SPACING 0.1 0.1 0.1 

POINT_DATA 3366

VECTORS velocity float
0 0 0
8.48808e-13 0 0
7.62747e-10 0 0
1.73427e-09 0 0
-3.74183e-09 0 0
4.18341e-09 0 0
5.73972e-09 0 0
5.11514e-09 0 0
4.82747e-09 0 0
4.54939e-09 0 0
3.78266e-09 0 0
2.87154e-09 0 0
1.96385e-09 0 0
5.12382e-10 0 0
-1.73471e-09 0 0
-4.07594e-09 0 0
-5.6762e-09 0 0
-6.42898e-09 0 0
-6.82618e-09 0 0
-7.35867e-09 0 0
-8.19525e-09 0 0
-9.23637e-09 0 0
-1.02948e-08 0 0
-1.12226e-08 0 0
-1.19503e-08 0 0
-1.2473e-08 0 0
-1.2821e-08 0 0
-1.30362e-08 0 0
-1.31585e-08 0 0
-1.32202e-08 0 0
-1.32449e-08 0 0
-1.32487e-08 0 0
-1.3242e-08 0 0
-1.32308e-08 0 0
-1.32188e-08 0 0
-1.32077e-08 0 0
-1.31982e-08 0 0
-1.31906e-08 0 0
-1.31846e-08 0 0
-1.318e-08 0 0
-1.31766e-08 0 0
-1.31741e-08 0 0
-1.31723e-08 0 0
-1.3171e-08 0 0
-1.317e-08 0 0
-1.31694e-08 0 0
-1.31689e-08 0 0
-1.31685e-08 0 0
-1.31682e-08 0 0
-1.31684e-08 0 0
0.00193792 0 0
0 3.79868e-07 0
9.91773e-13 -9.58587e-10 0
1.13226e-09 -2.9229e-09 0
4.23506e-09 -9.3539e-10 0
-1.39609e-09 -4.83749e-09 0
1.25667e-08 -6.54483e-09 0
1.48413e-08 5.69882e-11 0
1.36545e-08 8.58046e-10 0
1.37157e-08 -1.05379e-10 0
1.39454e-08 -5.97866e-10 0
1.29546e-08 -9.87308e-10 0
1.09712e-08 -8.90531e-10 0
8.13771e-09 6.94602e-10 0
4.08049e-09 3.11884e-09 0
-8.70584e-10 4.46234e-09 0
-5.3159e-09 3.90679e-09 0
-8.28022e-09 2.37659e-09 0
-1.01639e-08 1.15229e-09 0
-1.20595e-08 7.3159e-10 0
-1.46828e-08 8.68418e-10 0
-1.80263e-08 1.12911e-09 0
-2.16354e-08 1.25114e-09 0
-2.50017e-08 1.18399e-09 0
-2.77931e-08 9.89758e-10 0
-2.98967e-08 7.50344e-10 0
-3.1358e-08 5.24038e-10 0
-3.23e-08 3.38996e-10 0
-3.28618e-08 2.01755e-10 0
-3.31662e-08 1.07455e-10 0
-3.33077e-08 4.7039e-11 0
-3.33535e-08 1.11694e-11 0
-3.33477e-08 -8.08082e-12 0
-3.33179e-08 -1.67757e-11 0
-3.328e-08 -1.92298e-11 0
-3.32424e-08 -1.83296e-11 0
-3.32093e-08 -1.58924e-11 0
-3.31818e-08 -1.29852e-11 0
-3.316e-08 -1.01786e-11 0
-3.31433e-08 -7.73417e-12 0
-3.31308e-08 -5.73348e-12 0
-3.31215e-08 -4.16268e-12 0
-3.31148e-08 -2.9639e-12 0
-3.31099e-08 -2.06569e-12 0
-3.31064e-08 -1.39914e-12 0
-3.3104e-08 -9.01894e-13 0
-3.31023e-08 -5.19594e-13 0
-3.31011e-08 -1.99435e-13 0
-3.31004e-08 1.36411e-13 0
-3.31003e-08 7.37147e-13 0
-3.31012e-08 2.3425e-12 0
0.0055681 -2.41315e-08 0
0 -2.01423e-08 0
1.09988e-12 -1.03752e-09 0
1.9066e-09 -5.34223e-09 0
8.60662e-09 -9.27296e-09 0
1.17223e-08 -1.70057e-08 0
2.21946e-08 -1.37389e-08 0
1.85754e-08 -1.26087e-09 0
1.81647e-08 -7.13568e-10 0
1.8607e-08 -4.57586e-09 0
1.83746e-08 -9.01431e-09 0
1.46656e-08 -1.21996e-08 0
1.01742e-08 -1.15908e-08 0
6.5306e-09 -6.56885e-09 0
2.33982e-09 -1.42647e-10 0
-2.55129e-09 4.69567e-09 0
-6.84295e-09 7.47399e-09 0
-9.64689e-09 8.93199e-09 0
-1.13608e-08 9.54543e-09 0
-1.30001e-08 9.47143e-09 0
-1.52881e-08 8.8246e-09 0
-1.83106e-08 7.74721e-09 0
-2.168e-08 6.40618e-09 0
-2.48814e-08 4.98419e-09 0
-2.75387e-08 3.64753e-09 0
-2.95033e-08 2.50977e-09 0
-3.08097e-08 1.61894e-09 0
-3.15882e-08 9.69852e-10 0
-3.19915e-08 5.26624e-10 0
-3.21535e-08 2.42624e-10 0
-3.21753e-08 7.30237e-11 0
-3.21253e-08 -1.93868e-11 0
-3.20461e-08 -6.27798e-11 0
-3.19618e-08 -7.70723e-11 0
-3.18845e-08 -7.55357e-11 0
-3.18192e-08 -6.65132e-11 0
-3.17668e-08 -5.49174e-11 0
-3.17261e-08 -4.34035e-11 0
-3.16954e-08 -3.32233e-11 0
-3.16727e-08 -2.48108e-11 0
-3.16561e-08 -1.81624e-11 0
-3.16441e-08 -1.30701e-11 0
-3.16356e-08 -9.2544e-12 0
-3.16296e-08 -6.4345e-12 0
-3.16253e-08 -4.36162e-12 0
-3.16224e-08 -2.82367e-12 0
-3.16204e-08 -1.6305e-12 0
-3.16193e-08 -5.6857e-13 0
-3.16187e-08 7.19888e-13 0
-3.16189e-08 2.64676e-12 0
-3.16199e-08 5.51324e-12 0
0.00799547 -5.60533e-08 0
0 -6.29328e-07 0
3.06659e-12 -2.66757e-09 0
3.44811e-09 -9.44228e-09 0
1.16666e-08 -1.7932e-08 0
1.33948e-08 -2.49196e-08 0
1.38114e-08 -1.37721e-08 0
9.48172e-09 -1.03243e-11 0
9.62518e-09 -1.52013e-09 0
6.47676e-09 -8.0793e-09 0
2.75992e-09 -1.68205e-08 0
-6.31913e-10 -2.24418e-08 0
-3.69031e-09 -2.38171e-08 0
-5.55465e-09 -1.9725e-08 0
-9.39337e-09 -1.08689e-08 0
-1.50365e-08 1.5211e-10 0
-2.02169e-08 1.02962e-08 0
-2.29822e-08 1.6772e-08 0
-2.28599e-08 1.86894e-08 0
-2.07414e-08 1.7256e-08 0
-1.80862e-08 1.43106e-08 0
-1.60203e-08 1.11193e-08 0
-1.4915e-08 8.22407e-09 0
-1.45584e-08 5.77923e-09 0
-1.45534e-08 3.81339e-09 0
-1.45949e-08 2.31544e-09 0
-1.45431e-08 1.24357e-09 0
-1.43803e-08 5.2952e-10 0
-1.41443e-08 9.22236e-11 0
-1.38822e-08 -1.47186e-10 0
-1.36303e-08 -2.55545e-10 0
-1.3409e-08 -2.83981e-10 0
-1.32265e-08 -2.68503e-10 0
-1.30825e-08 -2.32628e-10 0
-1.29726e-08 -1.90541e-10 0
-1.28909e-08 -1.49997e-10 0
-1.28313e-08 -1.1462e-10 0
-1.27884e-08 -8.5582e-11 0
-1.2758e-08 -6.27247e-11 0
-1.27365e-08 -4.52742e-11 0
-1.27215e-08 -3.22544e-11 0
-1.2711e-08 -2.27065e-11 0
-1.27038e-08 -1.57897e-11 0
-1.26987e-08 -1.08112e-11 0
-1.26953e-08 -7.21894e-12 0
-1.2693e-08 -4.57154e-12 0
-1.26914e-08 -2.48233e-12 0
-1.26905e-08 -5.75059e-13 0
-1.26899e-08 1.47411e-12 0
-1.26893e-08 3.78044e-12 0
-1.2689e-08 6.00911e-12 0
0.00901837 -6.00997e-08 0
0 -1.2323e-06 0
1.5197e-12 -5.20855e-09 0
1.31949e-09 -1.44738e-08 0
4.42911e-09 -1.91299e-08 0
3.00348e-09 -1.55117e-08 0
-3.7437e-12 -5.65668e-09 0
-2.76517e-10 -3.08451e-10 0
2.97227e-10 -3.03176e-10 0
-3.24208e-09 -6.1206e-09 0
-1.50915e-08 -1.99209e-08 0
-2.06931e-08 -3.19078e-08 0
-1.97143e-08 -3.62358e-08 0
-2.06026e-08 -3.04088e-08 0
-2.45889e-08 -1.5824e-08 0
-2.96121e-08 1.44798e-09 0
-3.35752e-08 1.55656e-08 0
-3.49342e-08 2.26465e-08 0
-3.27499e-08 2.26028e-08 0
-2.732e-08 1.83161e-08 0
-2.02708e-08 1.29602e-08 0
-1.35124e-08 8.31571e-09 0
-8.18326e-09 4.83985e-09 0
-4.46395e-09 2.39675e-09 0
-2.0004e-09 7.51285e-10 0
-3.49202e-10 -2.85902e-10 0
8.13995e-10 -8.64318e-10 0
1.67416e-09 -1.11372e-09 0
2.32546e-09 -1.14693e-09 0
2.81813e-09 -1.05482e-09 0
3.18508e-09 -9.03567e-10 0
3.45275e-09 -7.36437e-10 0
3.64386e-09 -5.78375e-10 0
3.77772e-09 -4.41383e-10 0
3.86996e-09 -3.29249e-10 0
3.9327e-09 -2.41127e-10 0
3.97498e-09 -1.73955e-10 0
4.00328e-09 -1.23949e-10 0
4.02216e-09 -8.74056e-11 0
4.03474e-09 -6.10911e-11 0
4.04313e-09 -4.23593e-11 0
4.04875e-09 -2.91389e-11 0
4.05252e-09 -1.98562e-11 0
4.05508e-09 -1.33395e-11 0
4.05682e-09 -8.72175e-12 0
4.05802e-09 -5.34914e-12 0
4.05891e-09 -2.7356e-12 0
4.05974e-09 -5.70845e-13 0
4.06087e-09 1.24638e-12 0
4.06255e-09 2.68307e-12 0
4.06399e-09 3.67529e-12 0
0.00939816 -3.35439e-08 0
0 -1.11588e-06 0
-2.42621e-12 -5.56361e-09 0
-2.13142e-09 -1.2421e-08 0
-2.33398e-09 -1.48245e-08 0
-4.86191e-09 -1.4624e-08 0
-3.83622e-09 -6.65896e-09 0
-2.86368e-10 2.82494e-10 0
1.49297e-11 -1.49297e-11 0
2.9272e-10 -3.01757e-10 0
-8.87283e-09 -1.08259e-08 0
-2.70852e-08 -3.21857e-08 0
-3.02853e-08 -4.23087e-08 0
-3.24496e-08 -3.44658e-08 0
-3.44161e-08 -1.69299e-08 0
-3.5122e-08 2.5324e-09 0
-3.49584e-08 1.7502e-08 0
-3.41392e-08 2.39139e-08 0
-3.14814e-08 2.2025e-08 0
-2.58841e-08 1.55485e-08 0
-1.80268e-08 8.48642e-09 0
-9.8522e-09 2.99591e-09 0
-3.00495e-09 -5.3328e-10 0
1.91882e-09 -2.49513e-09 0
5.12631e-09 -3.38382e-09 0
7.10815e-09 -3.5826e-09 0
8.31127e-09 -3.36586e-09 0
9.0432e-09 -2.93142e-09 0
9.49102e-09 -2.41763e-09 0
9.76453e-09 -1.91269e-09 0
9.92932e-09 -1.46466e-09 0
1.00261e-08 -1.09285e-09 0
1.00807e-08 -7.98668e-10 0
1.01099e-08 -5.7401e-10 0
1.01243e-08 -4.07036e-10 0
1.01304e-08 -2.85519e-10 0
1.01322e-08 -1.98528e-10 0
1.01319e-08 -1.37053e-10 0
1.01309e-08 -9.40496e-11 0
1.01297e-08 -6.4203e-11 0
1.01286e-08 -4.36083e-11 0
1.01278e-08 -2.94508e-11 0
1.01272e-08 -1.97285e-11 0
1.01268e-08 -1.30274e-11 0
1.01266e-08 -8.35661e-12 0
1.01267e-08 -5.04627e-12 0
1.0127e-08 -2.68663e-12 0
1.01278e-08 -1.05987e-12 0
1.01292e-08 -5.64983e-14 0
1.01311e-08 3.31635e-13 0
1.01326e-08 2.38094e-13 0
0.00949015 8.19016e-09 0
0 -7.69556e-07 0
-1.13836e-12 -3.29914e-09 0
-2.2121e-09 -8.39432e-09 0
-1.96443e-09 -1.10333e-08 0
-6.75383e-09 -1.12461e-08 0
-9.56031e-09 -7.43667e-09 0
-4.37317e-09 -2.12746e-09 0
-2.83607e-10 2.81402e-10 0
1.15142e-11 -1.15142e-11 0
2.86911e-10 -2.98585e-10 0
-1.25176e-08 -1.87599e-08 0
-2.55795e-08 -3.87409e-08 0
-3.27089e-08 -3.21838e-08 0
-3.49628e-08 -1.44367e-08 0
-3.30225e-08 4.03941e-09 0
-2.86878e-08 1.72264e-08 0
-2.45706e-08 2.19196e-08 0
-2.11127e-08 1.86709e-08 0
-1.68652e-08 1.12004e-08 0
-1.12039e-08 3.59186e-09 0
-5.15164e-09 -1.92631e-09 0
-1.07333e-10 -5.02296e-09 0
3.25541e-09 -6.25099e-09 0
5.05231e-09 -6.28617e-09 0
5.75618e-09 -5.66216e-09 0
5.84003e-09 -4.7483e-09 0
5.63787e-09 -3.78075e-09 0
5.343e-09 -2.89372e-09 0
5.05069e-09 -2.14796e-09 0
4.79949e-09 -1.55685e-09 0
4.59907e-09 -1.10778e-09 0
4.44619e-09 -7.77115e-10 0
4.333e-09 -5.39244e-10 0
4.25095e-09 -3.71079e-10 0
4.19239e-09 -2.53727e-10 0
4.15112e-09 -1.72624e-10 0
4.12233e-09 -1.16975e-10 0
4.10243e-09 -7.89938e-11 0
4.08878e-09 -5.31704e-11 0
4.0795e-09 -3.56576e-11 0
4.07326e-09 -2.37935e-11 0
4.06913e-09 -1.57499e-11 0
4.06648e-09 -1.02863e-11 0
4.06488e-09 -6.57898e-12 0
4.06409e-09 -4.09773e-12 0
4.06396e-09 -2.50954e-12 0
4.06437e-09 -1.6171e-12 0
4.06534e-09 -1.34084e-12 0
4.06678e-09 -1.80823e-12 0
4.06784e-09 -3.0374e-12 0
0.00939814 4.68111e-08 0
0 -5.39485e-07 0
1.27516e-12 -2.24287e-09 0
-8.36416e-10 -5.92485e-09 0
-1.45614e-09 -8.34262e-09 0
-5.92806e-09 -8.06783e-09 0
-1.20939e-08 -4.10944e-09 0
-1.25253e-08 -3.53705e-10 0
-7.37993e-09 3.47909e-10 0
-2.85439e-10 2.77457e-10 0
2.86781e-10 2.67444e-10 0
5.68193e-12 -1.04171e-08 0
-1.57059e-08 -2.34315e-08 0
-3.0443e-08 -1.92223e-08 0
-3.73441e-08 -4.34253e-09 0
-3.48104e-08 8.83538e-09 0
-2.5397e-08 1.55037e-08 0
-1.5503e-08 1.55455e-08 0
-9.46561e-09 1.08103e-08 0
-6.86436e-09 4.26417e-09 0
-5.53663e-09 -1.38958e-09 0
-4.49756e-09 -4.91353e-09 0
-3.94249e-09 -6.40812e-09 0
-4.16711e-09 -6.51479e-09 0
-5.09321e-09 -5.85871e-09 0
-6.40243e-09 -4.88132e-09 0
-7.77616e-09 -3.85342e-09 0
-9.01049e-09 -2.92146e-09 0
-1.00193e-08 -2.14778e-09 0
-1.07945e-08 -1.54266e-09 0
-1.13658e-08 -1.089e-09 0
-1.17752e-08 -7.59034e-10 0
-1.20629e-08 -5.24182e-10 0
-1.22625e-08 -3.59561e-10 0
-1.23996e-08 -2.45398e-10 0
-1.24933e-08 -1.66821e-10 0
-1.2557e-08 -1.13025e-10 0
-1.26001e-08 -7.63411e-11 0
-1.26291e-08 -5.14025e-11 0
-1.26486e-08 -3.44897e-11 0
-1.26616e-08 -2.30417e-11 0
-1.26703e-08 -1.53057e-11 0
-1.26759e-08 -1.00925e-11 0
-1.26795e-08 -6.60243e-12 0
-1.26817e-08 -4.30206e-12 0
-1.2683e-08 -2.84248e-12 0
-1.26835e-08 -2.01171e-12 0
-1.26836e-08 -1.71369e-12 0
-1.26832e-08 -1.98406e-12 0
-1.26825e-08 -3.09605e-12 0
-1.26823e-08 -5.23705e-12 0
0.00901834 6.5224e-08 0
0 -4.57536e-07 0
1.28953e-12 -1.17052e-09 0
1.38371e-11 -3.2952e-09 0
-1.71079e-09 -5.02257e-09 0
-7.72073e-09 -5.22405e-09 0
-1.56957e-08 -1.29534e-09 0
-1.84585e-08 2.86657e-09 0
-1.6898e-08 -2.38807e-09 0
-1.08673e-08 -4.2234e-09 0
-8.93571e-09 3.29831e-13 0
-8.6905e-09 -4.95868e-09 0
-2.17716e-08 -9.08329e-09 0
-3.78122e-08 -3.2398e-09 0
-4.35987e-08 6.19354e-09 0
-3.58346e-08 1.15857e-08 0
-2.05558e-08 1.07173e-08 0
-7.93338e-09 5.92895e-09 0
-3.68762e-09 4.10087e-10 0
-6.17449e-09 -3.51695e-09 0
-1.09361e-08 -5.10407e-09 0
-1.5203e-08 -4.9677e-09 0
-1.84414e-08 -4.11272e-09 0
-2.10063e-08 -3.20034e-09 0
-2.32078e-08 -2.45917e-09 0
-2.51326e-08 -1.8938e-09 0
-2.6761e-08 -1.45626e-09 0
-2.80734e-08 -1.10976e-09 0
-2.90845e-08 -8.34166e-10 0
-2.98355e-08 -6.17638e-10 0
-3.03784e-08 -4.50797e-10 0
-3.07632e-08 -3.2482e-10 0
-3.10322e-08 -2.31423e-10 0
-3.12185e-08 -1.63256e-10 0
-3.13466e-08 -1.14157e-10 0
-3.14341e-08 -7.91915e-11 0
-3.14937e-08 -5.45324e-11 0
-3.15341e-08 -3.7291e-11 0
-3.15614e-08 -2.53281e-11 0
-3.15797e-08 -1.70853e-11 0
-3.15918e-08 -1.14436e-11 0
-3.15999e-08 -7.6099e-12 0
-3.16051e-08 -5.0291e-12 0
-3.16084e-08 -3.31815e-12 0
-3.16105e-08 -2.21909e-12 0
-3.16117e-08 -1.57048e-12 0
-3.16124e-08 -1.28989e-12 0
-3.16128e-08 -1.36802e-12 0
-3.16129e-08 -1.87598e-12 0
-3.16131e-08 -3.03253e-12 0
-3.16142e-08 -5.04137e-12 0
0.00799547 5.28112e-08 0
0 -4.71793e-07 0
2.58597e-12 -1.68245e-10 0
4.94258e-10 -7.22549e-10 0
-1.99039e-09 -1.42027e-09 0
-8.95588e-09 -1.64899e-09 0
-1.79158e-08 -1.14683e-09 0
-2.16312e-08 6.25774e-10 0
-2.01986e-08 -4.80743e-10 0
-2.34114e-08 -2.16395e-09 0
-2.16705e-08 -3.54343e-10 0
-1.96356e-08 1.65564e-09 0
-2.39663e-08 4.0595e-09 0
-2.86553e-08 5.74182e-09 0
-2.7389e-08 5.44712e-09 0
-1.8619e-08 3.7907e-09 0
-7.63591e-09 1.1558e-09 0
-1.78196e-09 -1.72172e-09 0
-3.73463e-09 -3.57837e-09 0
-1.0424e-08 -3.75368e-09 0
-1.74437e-08 -2.75451e-09 0
-2.25441e-08 -1.53024e-09 0
-2.56575e-08 -6.63038e-10 0
-2.75172e-08 -2.38419e-10 0
-2.87557e-08 -1.05259e-10 0
-2.97023e-08 -9.98764e-11 0
-3.04788e-08 -1.24141e-10 0
-3.11187e-08 -1.38743e-10 0
-3.16331e-08 -1.36417e-10 0
-3.20336e-08 -1.21825e-10 0
-3.23369e-08 -1.01523e-10 0
-3.2561e-08 -8.04409e-11 0
-3.27235e-08 -6.13745e-11 0
-3.28395e-08 -4.54874e-11 0
-3.29214e-08 -3.29486e-11 0
-3.29784e-08 -2.34261e-11 0
-3.30178e-08 -1.63984e-11 0
-3.30448e-08 -1.13259e-11 0
-3.3063e-08 -7.72928e-12 0
-3.30753e-08 -5.21705e-12 0
-3.30834e-08 -3.48537e-12 0
-3.30887e-08 -2.30734e-12 0
-3.30921e-08 -1.51915e-12 0
-3.30942e-08 -1.00644e-12 0
-3.30955e-08 -6.93397e-13 0
-3.30963e-08 -5.36799e-13 0
-3.30968e-08 -5.19203e-13 0
-3.30971e-08 -6.48461e-13 0
-3.30975e-08 -9.40251e-13 0
-3.30981e-08 -1.40125e-12 0
-3.30999e-08 -2.166e-12 0
0.00556813 1.93921e-08 0
0 0 0
1.87374e-12 0 0
3.16213e-10 0 0
-9.73621e-10 0 0
-4.25656e-09 0 0
-8.58617e-09 0 0
-1.13268e-08 0 0
-1.06793e-08 0 0
-1.25482e-08 0 0
-1.2735e-08 0 0
-1.09394e-08 0 0
-8.65694e-09 0 0
-6.33569e-09 0 0
-4.16389e-09 0 0
-1.70324e-09 0 0
2.13546e-10 0 0
7.47506e-11 0 0
-2.36539e-09 0 0
-5.78743e-09 0 0
-8.7185e-09 0 0
-1.05676e-08 0 0
-1.1507e-08 0 0
-1.19345e-08 0 0
-1.21519e-08 0 0
-1.2309e-08 0 0
-1.24552e-08 0 0
-1.25958e-08 0 0
-1.27238e-08 0 0
-1.28333e-08 0 0
-1.29221e-08 0 0
-1.2991e-08 0 0
-1.30429e-08 0 0
-1.3081e-08 0 0
-1.31083e-08 0 0
-1.31277e-08 0 0
-1.31411e-08 0 0
-1.31503e-08 0 0
-1.31565e-08 0 0
-1.31607e-08 0 0
-1.31634e-08 0 0
-1.31651e-08 0 0
-1.31662e-08 0 0
-1.31669e-08 0 0
-1.31672e-08 0 0
-1.31675e-08 0 0
-1.31676e-08 0 0
-1.31677e-08 0 0
-1.31679e-08 0 0
-1.31682e-08 0 0
-1.3169e-08 0 0
0.00193794 0 0
0 0 5.27295e-07
9.93504e-13 0 1.97452e-10
3.17685e-10 0 1.19127e-09
4.0555e-09 0 5.44181e-09
-1.32439e-08 0 2.38982e-09
6.69451e-09 0 -2.93606e-09
1.24761e-08 0 -9.88954e-10
1.23395e-08 0 5.32883e-11
1.21078e-08 0 6.69665e-10
1.29271e-08 0 1.64058e-09
1.48662e-08 0 2.66232e-09
1.7798e-08 0 2.70586e-09
2.03586e-08 0 1.66071e-09
2.00766e-08 0 5.75847e-10
1.56168e-08 0 1.22412e-10
8.48852e-09 0 3.17003e-11
1.32527e-09 0 -2.58514e-11
-4.54762e-09 0 -3.93121e-12
-9.42178e-09 0 1.96978e-10
-1.40215e-08 0 4.99769e-10
-1.86318e-08 0 7.4773e-10
-2.30583e-08 0 8.47417e-10
-2.69573e-08 0 8.01126e-10
-3.00962e-08 0 6.64655e-10
-3.24253e-08 0 4.9896e-10
-3.40328e-08 0 3.45502e-10
-3.50697e-08 0 2.23143e-10
-3.56933e-08 0 1.34922e-10
-3.60378e-08 0 7.59628e-11
-3.62053e-08 0 3.89928e-11
-3.62674e-08 0 1.71743e-11
-3.62718e-08 0 5.13761e-12
-3.62479e-08 0 -9.24063e-13
-3.62133e-08 0 -3.53264e-12
-3.61774e-08 0 -4.27147e-12
-3.61449e-08 0 -4.08701e-12
-3.61176e-08 0 -3.51633e-12
-3.60957e-08 0 -2.84509e-12
-3.60788e-08 0 -2.21147e-12
-3.6066e-08 0 -1.67143e-12
-3.60565e-08 0 -1.23783e-12
-3.60496e-08 0 -9.02437e-13
-3.60446e-08 0 -6.48921e-13
-3.6041e-08 0 -4.60887e-13
-3.60385e-08 0 -3.22681e-13
-3.60367e-08 0 -2.22193e-13
-3.60354e-08 0 -1.56414e-13
-3.60346e-08 0 -1.45259e-13
-3.60343e-08 0 -1.55758e-13
-3.60351e-08 0 3.598e-13
0.00550697 0 -2.21496e-09
0.0036 -3.02899e-07 -6.16683e-08
0.0035998 -0.00138888 -2.30468e-05
0.00670967 -0.00392722 0.000108141
0.0136109 -0.00589458 -0.000519234
0.0235155 -0.0144479 -0.00428411
0.0463312 -0.0133665 -0.00488095
0.0498444 -0.00190689 -0.00164365
0.0495815 0.00265491 -0.000163618
0.0445919 0.00498129 0.000567885
0.0389844 0.00514907 0.000550443
0.0338775 0.00448179 0.000275092
0.02958 0.00359789 -3.48964e-06
0.0261684 0.00272047 -0.000197059
0.0235837 0.00194498 -0.000290339
0.0216724 0.00132502 -0.000299722
0.0202574 0.000877918 -0.000252429
0.0191971 0.000583697 -0.00017853
0.0183974 0.000400504 -0.000104699
0.0177985 0.000285244 -4.75988e-05
0.0173587 0.000207042 -1.19057e-05
0.0170451 0.000149242 5.85447e-06
0.016829 0.000104749 1.1947e-05
0.0166858 7.07991e-05 1.19516e-05
0.0165949 4.58133e-05 9.57648e-06
0.0165398 2.82449e-05 6.80239e-06
0.0165082 1.64582e-05 4.45511e-06
0.0164913 8.91028e-06 2.73899e-06
0.0164833 4.30412e-06 1.59105e-06
0.0164802 1.64325e-06 8.7058e-07
0.0164799 2.12024e-07 4.41504e-07
0.0164807 -4.76928e-07 1.98446e-07
0.016482 -7.40912e-07 6.83675e-08
0.0164834 -7.78044e-07 3.93833e-09
0.0164846 -7.06714e-07 -2.40612e-08
0.0164857 -5.94086e-07 -3.29503e-08
0.0164865 -4.75688e-07 -3.25969e-08
0.0164871 -3.68332e-07 -2.83795e-08
0.0164876 -2.78321e-07 -2.30655e-08
0.0164879 -2.06459e-07 -1.79583e-08
0.0164882 -1.50986e-07 -1.3576e-08
0.0164884 -1.09208e-07 -1.00369e-08
0.0164885 -7.83412e-08 -7.27968e-09
0.0164886 -5.59144e-08 -5.19164e-09
0.0164887 -3.98962e-08 -3.65011e-09
0.0164887 -2.87105e-08 -2.53348e-09
0.0164888 -2.11861e-08 -1.68514e-09
0.0164888 -1.64954e-08 -7.64454e-10
0.0164888 -1.43172e-08 1.31114e-09
0.0164888 -1.73244e-08 5.06282e-09
0.0164889 -4.57813e-08 -1.44546e-09
0.016489 -7.07771e-08 -1.017e-08
0.01 -1.36221e-07 -1.43319e-06
0.0100007 -0.00298828 -0.0005999
0.014786 -0.00995579 -0.000792578
0.0241704 -0.0177278 -0.00124593
0.0385467 -0.0325254 -0.00335056
0.0592161 -0.0248307 -0.000820288
0.0564573 -0.00272632 0.00317432
0.0558932 0.00510193 0.00338687
0.0501091 0.0100857 0.00300379
0.0446326 0.0102406 0.0021041
0.0401298 0.00917008 0.00114667
0.0364192 0.0077567 0.000395922
0.0334485 0.00627321 -0.000122618
0.0311724 0.00489167 -0.000421123
0.0294324 0.00372027 -0.000519903
0.0280801 0.00278427 -0.000471511
0.0270253 0.00205637 -0.0003475
0.0262176 0.00149737 -0.000212102
0.0256189 0.00107244 -0.000103773
0.0251917 0.000753127 -3.39532e-05
0.0248985 0.000516541 2.68e-06
0.0247059 0.000344462 1.71349e-05
0.0245856 0.000222311 1.95015e-05
0.024515 0.000138144 1.6671e-05
0.0244769 8.20751e-05 1.24692e-05
0.0244589 4.60712e-05 8.61057e-06
0.0244526 2.38575e-05 5.63368e-06
0.0244525 1.07627e-05 3.54193e-06
0.0244552 3.46878e-06 2.15621e-06
0.024459 -2.80421e-07 1.27531e-06
0.0244627 -1.95945e-06 7.32905e-07
0.024466 -2.49586e-06 4.07972e-07
0.0244687 -2.45058e-06 2.18374e-07
0.0244709 -2.14792e-06 1.10781e-07
0.0244725 -1.76502e-06 5.16669e-08
0.0244737 -1.39102e-06 2.05021e-08
0.0244746 -1.0647e-06 5.00808e-09
0.0244753 -7.97651e-07 -1.98794e-09
0.0244757 -5.87988e-07 -4.57212e-09
0.024476 -4.28102e-07 -5.00545e-09
0.0244763 -3.0879e-07 -4.48905e-09
0.0244764 -2.21269e-07 -3.6289e-09
0.0244766 -1.58035e-07 -2.73756e-09
0.0244767 -1.13082e-07 -1.96213e-09
0.0244767 -8.18248e-08 -1.3239e-09
0.0244768 -6.10325e-08 -6.72976e-10
0.0244768 -4.89503e-08 6.01904e-10
0.0244768 -4.84976e-08 3.40942e-09
0.0244769 -6.74977e-08 6.50352e-09
0.0244769 -1.23362e-07 -9.79691e-09
0.024477 -1.63767e-07 -2.7299e-08
0.0148 -9.45964e-07 -1.72122e-06
0.0148023 -0.00529477 -0.00112753
0.0203833 -0.0164235 -0.00244578
0.0275451 -0.0288213 -0.00394025
0.0321922 -0.0461916 -0.00576838
0.0306626 -0.0285184 -0.00141758
0.0268787 -1.21387e-05 0.00329654
0.02632 0.00706733 0.00352236
0.0298288 0.0144331 0.00343359
0.0301776 0.0138758 0.00246127
0.0293736 0.0121087 0.00148599
0.0285429 0.0102712 0.000641658
0.0279148 0.00838417 3.70275e-05
0.0275988 0.00660456 -0.00031774
0.0274721 0.00508231 -0.000439463
0.0274364 0.00382502 -0.000399612
0.0274486 0.00280486 -0.000283607
0.0274901 0.00200064 -0.00015787
0.0275478 0.00138991 -5.84552e-05
0.0276109 0.000941727 4.20424e-06
0.0276724 0.000621224 3.46784e-05
0.0277296 0.00039681 4.31897e-05
0.0277812 0.00024324 3.97663e-05
0.0278267 0.00014119 3.16719e-05
0.0278657 7.5858e-05 2.30795e-05
0.027898 3.5912e-05 1.58285e-05
0.0279239 1.28557e-05 1.03865e-05
0.0279439 5.50816e-07 6.58662e-06
0.027959 -5.24249e-06 4.06066e-06
0.02797 -7.31865e-06 2.44126e-06
0.027978 -7.43357e-06 1.43266e-06
0.0279837 -6.63612e-06 8.19968e-07
0.0279877 -5.51668e-06 4.56344e-07
0.0279904 -4.38225e-06 2.45508e-07
0.0279923 -3.37322e-06 1.26279e-07
0.0279936 -2.53764e-06 6.07637e-08
0.0279945 -1.87636e-06 2.60288e-08
0.0279951 -1.36912e-06 8.49464e-09
0.0279956 -9.88793e-07 2.93917e-10
0.0279958 -7.08512e-07 -3.02649e-09
0.027996 -5.04768e-07 -3.91636e-09
0.0279962 -3.58369e-07 -3.67559e-09
0.0279963 -2.54352e-07 -2.9972e-09
0.0279963 -1.81482e-07 -2.2283e-09
0.0279964 -1.31644e-07 -1.41208e-09
0.0279964 -9.98496e-08 -3.95361e-10
0.0279964 -8.42998e-08 1.4477e-09
0.0279965 -8.71285e-08 3.68008e-09
0.0279965 -1.13146e-07 5.55558e-10
0.0279965 -1.56713e-07 -2.573e-08
0.0279965 -1.80857e-07 -4.79229e-08
0.018 -1.90625e-06 -1.6718e-06
0.0180029 -0.0069971 -0.0018774
0.0207761 -0.0189909 -0.00492326
0.0207275 -0.0249788 -0.00633706
0.0160916 -0.0270075 -0.0076233
-1.57922e-06 -0.014032 -0.00433309
9.57937e-05 2.58441e-05 9.08368e-07
-3.27773e-05 3.41055e-05 0.000654014
0.00657918 0.00409327 0.0014376
0.0134597 0.00929749 0.00140418
0.0168799 0.0101257 0.000992175
0.0186519 0.00916299 0.000449585
0.0203426 0.00760449 -3.9278e-05
0.0220333 0.00593754 -0.000305875
0.0235601 0.00449208 -0.000367673
0.0248573 0.00328988 -0.000310759
0.0259279 0.00231318 -0.000209309
0.0267939 0.00155623 -0.00010787
0.0274772 0.00100365 -2.76261e-05
0.0280002 0.000620985 2.4435e-05
0.028389 0.000365503 4.99922e-05
0.0286717 0.000199334 5.57484e-05
0.0288743 9.44244e-05 4.99052e-05
0.0290178 3.12547e-05 3.93598e-05
0.0291185 -3.91638e-06 2.84994e-05
0.0291883 -2.09963e-05 1.93923e-05
0.029236 -2.70781e-05 1.25827e-05
0.0292681 -2.70398e-05 7.85718e-06
0.0292894 -2.40368e-05 4.74755e-06
0.0293034 -1.9963e-05 2.78282e-06
0.0293124 -1.58523e-05 1.58239e-06
0.0293182 -1.21952e-05 8.70435e-07
0.0293218 -9.16521e-06 4.60061e-07
0.0293241 -6.76733e-06 2.30424e-07
0.0293256 -4.9293e-06 1.06166e-07
0.0293265 -3.5527e-06 4.16915e-08
0.029327 -2.53945e-06 1.01502e-08
0.0293274 -1.8035e-06 -3.85969e-09
0.0293276 -1.2745e-06 -8.94084e-09
0.0293278 -8.97416e-07 -9.75747e-09
0.0293278 -6.30514e-07 -8.74067e-09
0.0293279 -4.42859e-07 -7.08769e-09
0.0293279 -3.11956e-07 -5.36622e-09
0.029328 -2.21807e-07 -3.80828e-09
0.029328 -1.61529e-07 -2.3592e-09
0.029328 -1.24306e-07 -1.01747e-09
0.029328 -1.06187e-07 2.6951e-10
0.029328 -1.03001e-07 4.19305e-10
0.029328 -1.11511e-07 -9.91468e-09
0.029328 -1.15177e-07 -3.99624e-08
0.0293279 -1.11795e-07 -6.01994e-08
0.0196 -2.76525e-06 -2.52272e-06
0.019601 -0.00590554 -0.00274457
0.0190583 -0.0131767 -0.00647814
0.0159479 -0.0161984 -0.00668486
0.0108991 -0.0151787 -0.00668753
0.00173214 -0.00625419 -0.00504185
7.13335e-05 -6.54989e-05 -0.00130318
3.27216e-05 -3.27216e-05 -4.05429e-08
-3.21809e-05 3.33737e-05 0.00025918
0.0039255 0.0027734 0.000552726
0.00899582 0.0064955 0.000482626
0.0119143 0.00679563 0.000132135
0.015162 0.005319 -0.000249817
0.0183157 0.00384947 -0.000409153
0.0210165 0.00270752 -0.000399309
0.0232023 0.00180602 -0.00031662
0.0249311 0.00109262 -0.000218886
0.026278 0.000564967 -0.000129234
0.0273039 0.00021641 -5.55114e-05
0.0280604 1.40356e-05 -2.15187e-06
0.0285987 -8.80446e-05 2.90808e-05
0.0289697 -0.000129867 4.10203e-05
0.0292187 -0.000138362 3.99611e-05
0.0293824 -0.00012946 3.25763e-05
0.0294878 -0.000112384 2.37082e-05
0.0295544 -9.26152e-05 1.59076e-05
0.0295957 -7.33768e-05 1.00243e-05
0.0296206 -5.63704e-05 5.99601e-06
0.0296353 -4.22655e-05 3.42087e-06
0.0296438 -3.10896e-05 1.86054e-06
0.0296485 -2.25298e-05 9.575e-07
0.0296511 -1.61388e-05 4.57197e-07
0.0296523 -1.14586e-05 1.9271e-07
0.029653 -8.08087e-06 6.07469e-08
0.0296532 -5.66994e-06 2.31196e-10
0.0296533 -3.9633e-06 -2.3551e-08
0.0296533 -2.76269e-06 -2.95933e-08
0.0296532 -1.92203e-06 -2.78705e-08
0.0296532 -1.33551e-06 -2.33654e-08
0.0296531 -9.27513e-07 -1.83982e-08
0.0296531 -6.44506e-07 -1.39159e-08
0.029653 -4.48867e-07 -1.01902e-08
0.029653 -3.14391e-07 -7.22757e-09
0.029653 -2.23028e-07 -4.96661e-09
0.029653 -1.62424e-07 -3.32303e-09
0.029653 -1.23546e-07 -2.42403e-09
0.0296529 -9.89813e-08 -2.52555e-09
0.0296529 -8.06778e-08 -4.1126e-09
0.0296529 -6.06846e-08 -1.72956e-08
0.0296528 -2.26219e-08 -4.46637e-08
0.0296527 4.1955e-09 -6.01195e-08
0.0196 -1.33098e-06 -3.51781e-06
0.0195999 -0.00368675 -0.00312614
0.0187695 -0.00809012 -0.00651793
0.0175201 -0.00811395 -0.00605147
0.0132002 -0.00428026 -0.00554465
0.00910261 0.00259099 -0.00532897
0.00615111 0.003162 -0.00310958
7.14995e-05 -5.94983e-05 -0.000669257
2.73174e-05 -2.73174e-05 -1.24975e-07
-3.16531e-05 3.27087e-05 9.38269e-05
0.00273178 0.00196835 0.000358121
0.00705416 0.00309183 0.000260648
0.0123361 0.00154316 -0.000158724
0.0169773 0.000509546 -0.000340394
0.0205792 4.71103e-06 -0.000344902
0.0232565 -0.000303415 -0.000281752
0.0252205 -0.00053206 -0.000211476
0.026644 -0.00067255 -0.000149722
0.0276496 -0.000707663 -9.49722e-05
0.0283311 -0.000656011 -4.82842e-05
0.02877 -0.000557396 -1.42464e-05
0.0290379 -0.000447042 5.15323e-06
0.0291927 -0.000345134 1.25216e-05
0.029277 -0.000259427 1.26542e-05
0.0293195 -0.000191004 9.78242e-06
0.0293385 -0.000138221 6.46719e-06
0.0293451 -9.85788e-05 3.79637e-06
0.0293456 -6.94687e-05 1.99118e-06
0.0293436 -4.84963e-05 9.08569e-07
0.0293407 -3.36195e-05 3.22338e-07
0.0293379 -2.31932e-05 3.81655e-08
0.0293354 -1.59507e-05 -7.89695e-08
0.0293335 -1.09506e-05 -1.12051e-07
0.029332 -7.51211e-06 -1.0763e-07
0.0293309 -5.15286e-06 -8.97152e-08
0.02933 -3.53578e-06 -6.95465e-08
0.0293295 -2.42767e-06 -5.16638e-08
0.029329 -1.66819e-06 -3.73691e-08
0.0293287 -1.14749e-06 -2.65656e-08
0.0293285 -7.90439e-07 -1.8666e-08
0.0293284 -5.45699e-07 -1.29937e-08
0.0293283 -3.78198e-07 -8.94894e-09
0.0293282 -2.63927e-07 -6.11671e-09
0.0293281 -1.8621e-07 -4.27302e-09
0.0293281 -1.33021e-07 -3.31237e-09
0.029328 -9.50087e-08 -3.24686e-09
0.029328 -6.42925e-08 -4.13696e-09
0.029328 -3.28957e-08 -5.86065e-09
0.0293279 9.74624e-09 -1.67649e-08
0.0293279 7.70346e-08 -3.77708e-08
0.0293278 1.18634e-07 -4.8912e-08
0.018 -8.49156e-07 -3.50904e-06
0.0180009 -0.00200845 -0.0030487
0.0183184 -0.00387376 -0.0061585
0.0183772 -0.00265861 -0.0052866
0.0173637 0.000642777 -0.00419894
0.0170889 0.00709044 -0.00396621
0.0178249 0.0125872 -0.00299561
0.0109505 0.00693195 -0.00148901
7.29541e-05 -4.60425e-05 -0.000433721
-2.48247e-05 -5.36034e-05 5.46596e-07
7.75016e-06 -0.00069316 0.000744682
0.00830254 -0.00282634 0.00108279
0.015638 -0.00438528 0.00045534
0.0206358 -0.00407254 0.000148465
0.0238077 -0.00323976 3.22438e-05
0.0257913 -0.00253201 -1.83402e-05
0.0270208 -0.00203706 -5.74468e-05
0.0277543 -0.00166329 -8.87162e-05
0.0281517 -0.00133326 -9.96093e-05
0.0283267 -0.00102827 -8.80272e-05
0.0283667 -0.000761571 -6.44476e-05
0.028336 -0.000546013 -4.08389e-05
0.028277 -0.000382691 -2.33678e-05
0.0282139 -0.000264209 -1.26354e-05
0.0281579 -0.00018056 -6.78653e-06
0.0281129 -0.000122525 -3.79308e-06
0.0280788 -8.27528e-05 -2.26432e-06
0.0280539 -5.5743e-05 -1.43766e-06
0.0280362 -3.75177e-05 -9.48219e-07
0.0280238 -2.52676e-05 -6.33921e-07
0.0280152 -1.70467e-05 -4.22585e-07
0.0280093 -1.15277e-05 -2.78608e-07
0.0280053 -7.81594e-06 -1.81165e-07
0.0280025 -5.31314e-06 -1.16208e-07
0.0280006 -3.62045e-06 -7.36506e-08
0.0279993 -2.47225e-06 -4.62246e-08
0.0279984 -1.69127e-06 -2.88011e-08
0.0279978 -1.15887e-06 -1.78597e-08
0.0279974 -7.95307e-07 -1.10485e-08
0.0279971 -5.4679e-07 -6.83367e-09
0.0279969 -3.76854e-07 -4.23375e-09
0.0279968 -2.60604e-07 -2.64064e-09
0.0279967 -1.80794e-07 -1.73732e-09
0.0279966 -1.25178e-07 -1.37757e-09
0.0279965 -8.47275e-08 -1.46269e-09
0.0279965 -5.23053e-08 -1.91908e-09
0.0279965 -2.15734e-08 -2.66625e-09
0.0279964 1.4097e-08 -3.48229e-09
0.0279964 6.56016e-08 -9.14142e-09
0.0279964 1.40406e-07 -2.28878e-08
0.0279964 1.83669e-07 -3.13613e-08
0.0148 -4.76736e-07 -3.10887e-06
0.0148015 -0.00103453 -0.00282774
0.016232 -0.00164011 -0.0054234
0.0178012 -1.82309e-05 -0.00429191
0.0191349 0.00319087 -0.00307442
0.0208828 0.00736673 -0.00285325
0.0247001 0.0129802 -0.00241206
0.0279925 0.0195176 -0.00151087
0.023014 0.0113012 -0.000339737
0.023463 2.49437e-11 0.000626219
0.0266066 -0.00669807 0.00155827
0.0300497 -0.0130834 0.00210765
0.0309103 -0.0110264 0.00164106
0.03036 -0.00772714 0.00115415
0.0293631 -0.00511888 0.000714616
0.0283568 -0.0034072 0.000362467
0.0274832 -0.00232553 0.000108596
0.0267634 -0.0016081 -4.87273e-05
0.0261828 -0.00110044 -0.000118881
0.0257232 -0.000734753 -0.000125566
0.0253684 -0.000479405 -0.000100173
0.0251023 -0.000309211 -6.77997e-05
0.0249084 -0.0001997 -4.11039e-05
0.0247707 -0.000130227 -2.30914e-05
0.024675 -8.59828e-05 -1.23035e-05
0.0246097 -5.74235e-05 -6.31421e-06
0.0245657 -3.87012e-05 -3.14728e-06
0.0245362 -2.62616e-05 -1.5245e-06
0.0245166 -1.791e-05 -7.10696e-07
0.0245036 -1.2259e-05 -3.10135e-07
0.0244948 -8.41298e-06 -1.17536e-07
0.024489 -5.78389e-06 -2.84678e-08
0.0244851 -3.98092e-06 9.71493e-09
0.0244825 -2.74168e-06 2.34345e-08
0.0244807 -1.88868e-06 2.58857e-08
0.0244795 -1.30105e-06 2.35875e-08
0.0244786 -8.96126e-07 1.96855e-08
0.0244781 -6.17153e-07 1.56258e-08
0.0244777 -4.25055e-07 1.2006e-08
0.0244774 -2.92855e-07 9.01036e-09
0.0244772 -2.01849e-07 6.63521e-09
0.0244771 -1.38968e-07 4.79914e-09
0.024477 -9.49405e-08 3.37855e-09
0.0244769 -6.3025e-08 2.26561e-09
0.0244769 -3.80613e-08 1.40739e-09
0.0244769 -1.57258e-08 7.85404e-10
0.0244769 8.16067e-09 5.13709e-10
0.0244768 3.76918e-08 6.33203e-10
0.0244768 7.89399e-08 -6.41762e-10
0.0244769 1.32981e-07 -9.71795e-09
0.0244769 1.62448e-07 -1.73834e-08
0.01 -9.1042e-07 -2.81598e-06
0.0100007 -0.000633995 -0.00230274
0.0113246 -0.000709721 -0.00414262
0.0131968 0.000558431 -0.00291377
0.0156469 0.00252954 -0.00182204
0.0195647 0.00557569 -0.0018327
0.0254909 0.0083667 -0.00237524
0.0345978 0.0101217 -0.00209632
0.0462225 0.00482927 -0.000511086