# vtk DataFile Version 2.0
Tobias Weinzierl: CPU, Manycore and Cluster Computing
ASCII

DATASET STRUCTURED_POINTS
DIMENSIONS  51 11 6

ORIGIN 0 0 0 

SPACING 0.1 0.1 0.1 

POINT_DATA 3366

VECTORS velocity float
0 0 0
6.38404e-13 0 0
8.49347e-11 0 0
4.82359e-10 0 0
-2.57803e-09 0 0
2.81032e-09 0 0
4.08154e-09 0 0
4.04012e-09 0 0
4.10785e-09 0 0
4.40632e-09 0 0
4.4902e-09 0 0
4.15444e-09 0 0
3.48699e-09 0 0
2.44636e-09 0 0
8.95244e-10 0 0
-9.14999e-10 0 0
-2.44244e-09 0 0
-3.39659e-09 0 0
-3.94389e-09 0 0
-4.43764e-09 0 0
-5.1057e-09 0 0
-5.96358e-09 0 0
-6.89727e-09 0 0
-7.7742e-09 0 0
-8.50649e-09 0 0
-9.06277e-09 0 0
-9.45283e-09 0 0
-9.70688e-09 0 0
-9.86002e-09 0 0
-9.94379e-09 0 0
-9.983e-09 0 0
-9.99554e-09 0 0
-9.99349e-09 0 0
-9.98451e-09 0 0
-9.97312e-09 0 0
-9.96181e-09 0 0
-9.95173e-09 0 0
-9.94332e-09 0 0
-9.93657e-09 0 0
-9.93135e-09 0 0
-9.92742e-09 0 0
-9.92457e-09 0 0
-9.92257e-09 0 0
-9.92119e-09 0 0
-9.92024e-09 0 0
-9.91957e-09 0 0
-9.91914e-09 0 0
-9.91893e-09 0 0
-9.91883e-09 0 0
-9.91876e-09 0 0
0.00191823 0 0
0 3.80016e-07 0
1.07678e-12 -3.64181e-10 0
9.80635e-11 -1.45993e-09 0
1.72099e-09 -4.49637e-10 0
-8.3551e-10 -2.56649e-09 0
8.46129e-09 -3.28061e-09 0
1.0064e-08 5.40951e-10 0
1.00523e-08 4.99158e-10 0
1.1253e-08 -9.39629e-10 0
1.29157e-08 -2.00561e-09 0
1.37327e-08 -2.46318e-09 0
1.33011e-08 -2.26607e-09 0
1.15755e-08 -1.01643e-09 0
8.63869e-09 1.04994e-09 0
4.86311e-09 2.74641e-09 0
1.08564e-09 3.13214e-09 0
-1.91225e-09 2.40575e-09 0
-4.05156e-09 1.43307e-09 0
-5.89737e-09 8.55115e-10 0
-8.05703e-09 7.57638e-10 0
-1.07466e-08 9.00333e-10 0
-1.37804e-08 1.03445e-09 0
-1.67927e-08 1.044e-09 0
-1.94554e-08 9.3074e-10 0
-2.15863e-08 7.48295e-10 0
-2.31511e-08 5.51611e-10 0
-2.42144e-08 3.76194e-10 0
-2.48838e-08 2.37265e-10 0
-2.52701e-08 1.36385e-10 0
-2.54677e-08 6.82873e-11 0
-2.55483e-08 2.54901e-11 0
-2.55618e-08 7.584e-13 0
-2.55409e-08 -1.1893e-11 0
-2.55056e-08 -1.69813e-11 0
-2.54672e-08 -1.76911e-11 0
-2.54316e-08 -1.61355e-11 0
-2.54012e-08 -1.36319e-11 0
-2.53765e-08 -1.09416e-11 0
-2.53571e-08 -8.45968e-12 0
-2.53424e-08 -6.35414e-12 0
-2.53314e-08 -4.66198e-12 0
-2.53235e-08 -3.35178e-12 0
-2.5318e-08 -2.36239e-12 0
-2.53142e-08 -1.62616e-12 0
-2.53115e-08 -1.07903e-12 0
-2.53097e-08 -6.63405e-13 0
-2.53086e-08 -3.24216e-13 0
-2.53081e-08 1.27784e-14 0
-2.53081e-08 5.46898e-13 0
-2.53084e-08 1.82154e-12 0
0.00551827 -1.87703e-08 0
0 -1.94343e-08 0
1.67304e-12 -4.85235e-10 0
9.52569e-10 -3.22133e-09 0
5.04957e-09 -6.27825e-09 0
8.24371e-09 -1.11472e-08 0
1.50085e-08 -8.38602e-09 0
1.18985e-08 -3.87576e-10 0
1.12308e-08 -7.75798e-10 0
1.32495e-08 -4.09082e-09 0
1.65557e-08 -7.42954e-09 0
1.72635e-08 -1.0343e-08 0
1.54429e-08 -1.14909e-08 0
1.25141e-08 -9.18868e-09 0
8.69194e-09 -4.22812e-09 0
4.40724e-09 9.21902e-10 0
4.13536e-10 4.7027e-09 0
-2.71355e-09 6.94246e-09 0
-5.00431e-09 7.96807e-09 0
-6.95422e-09 8.12002e-09 0
-9.08208e-09 7.68632e-09 0
-1.16205e-08 6.88345e-09 0
-1.44624e-08 5.85796e-09 0
-1.7296e-08 4.72716e-09 0
-1.97996e-08 3.60473e-09 0
-2.17746e-08 2.59009e-09 0
-2.31751e-08 1.74755e-09 0
-2.40668e-08 1.09922e-09 0
-2.45667e-08 6.33607e-10 0
-2.47967e-08 3.20449e-10 0
-2.48586e-08 1.2372e-10 0
-2.48274e-08 9.79275e-12 0
-2.47529e-08 -4.88898e-11 0
-2.4665e-08 -7.30356e-11 0
-2.45803e-08 -7.71843e-11 0
-2.45065e-08 -7.09441e-11 0
-2.44458e-08 -6.02821e-11 0
-2.4398e-08 -4.86414e-11 0
-2.43614e-08 -3.78132e-11 0
-2.4334e-08 -2.85708e-11 0
-2.43138e-08 -2.11033e-11 0
-2.42993e-08 -1.52966e-11 0
-2.4289e-08 -1.09042e-11 0
-2.42818e-08 -7.64394e-12 0
-2.4277e-08 -5.24871e-12 0
-2.42737e-08 -3.48533e-12 0
-2.42715e-08 -2.14855e-12 0
-2.42702e-08 -1.0263e-12 0
-2.42697e-08 1.97552e-13 0
-2.42699e-08 1.89933e-12 0
-2.42704e-08 4.40069e-12 0
0.00794777 -4.48455e-08 0
0 -6.28891e-07 0
3.13098e-12 -1.7597e-09 0
2.11943e-09 -6.31821e-09 0
7.34541e-09 -1.21173e-08 0
9.50141e-09 -1.68932e-08 0
9.35765e-09 -9.33995e-09 0
5.91028e-09 -1.03908e-11 0
5.21863e-09 -1.26026e-09 0
4.46396e-09 -6.00266e-09 0
5.02382e-09 -1.2768e-08 0
5.44455e-09 -1.83313e-08 0
3.9794e-09 -2.08987e-08 0
2.09056e-09 -1.87945e-08 0
-1.15468e-09 -1.23972e-08 0
-5.61926e-09 -3.68386e-09 0
-1.02734e-08 5.24479e-09 0
-1.38622e-08 1.21201e-08 0
-1.55945e-08 1.54794e-08 0
-1.54805e-08 1.55115e-08 0
-1.4222e-08 1.35194e-08 0
-1.27308e-08 1.08154e-08 0
-1.16247e-08 8.16597e-09 0
-1.10536e-08 5.86392e-09 0
-1.08543e-08 3.97773e-09 0
-1.07919e-08 2.50406e-09 0
-1.07064e-08 1.41364e-09 0
-1.05395e-08 6.57536e-10 0
-1.03011e-08 1.72554e-10 0
-1.00278e-08 -1.08706e-10 0
-9.75526e-09 -2.48156e-10 0
-9.5081e-09 -2.96481e-10 0
-9.29854e-09 -2.91541e-10 0
-9.12949e-09 -2.5944e-10 0
-8.99817e-09 -2.16823e-10 0
-8.89911e-09 -1.73396e-10 0
-8.82606e-09 -1.3416e-10 0
-8.77312e-09 -1.01149e-10 0
-8.73524e-09 -7.46823e-11 0
-8.70841e-09 -5.41958e-11 0
-8.68957e-09 -3.8758e-11 0
-8.67648e-09 -2.7364e-11 0
-8.66752e-09 -1.90862e-11 0
-8.66152e-09 -1.31349e-11 0
-8.65755e-09 -8.86936e-12 0
-8.65493e-09 -5.7773e-12 0
-8.65324e-09 -3.42892e-12 0
-8.65228e-09 -1.43237e-12 0
-8.65186e-09 5.66847e-13 0
-8.65153e-09 2.77003e-12 0
-8.65099e-09 4.96639e-12 0
0.00900022 -4.89379e-08 0
0 -1.23335e-06 0
2.18818e-12 -3.43199e-09 0
6.90918e-10 -9.61844e-09 0
2.69053e-09 -1.2751e-08 0
2.2978e-09 -1.03162e-08 0
-3.05427e-12 -3.76112e-09 0
-9.77319e-11 -1.02083e-10 0
9.25096e-11 -9.59533e-11 0
-1.64021e-09 -4.00753e-09 0
-8.48683e-09 -1.38521e-08 0
-1.22168e-08 -2.37625e-08 0
-1.1638e-08 -2.91139e-08 0
-1.2162e-08 -2.71695e-08 0
-1.48251e-08 -1.78024e-08 0
-1.86388e-08 -4.53506e-09 0
-2.23299e-08 8.44969e-09 0
-2.4741e-08 1.72479e-08 0
-2.48897e-08 2.01316e-08 0
-2.237e-08 1.81977e-08 0
-1.77823e-08 1.39441e-08 0
-1.2438e-08 9.46885e-09 0
-7.55748e-09 5.77626e-09 0
-3.74696e-09 3.05961e-09 0
-1.0293e-09 1.18558e-09 0
8.52381e-10 -3.04327e-11 0
2.17929e-09 -7.47667e-10 0
3.15151e-09 -1.09977e-09 0
3.88539e-09 -1.20136e-09 0
4.44449e-09 -1.14741e-09 0
4.86699e-09 -1.01074e-09 0
5.18071e-09 -8.4212e-10 0
5.40881e-09 -6.73234e-10 0
5.57125e-09 -5.21232e-10 0
5.68477e-09 -3.93335e-10 0
5.76284e-09 -2.90678e-10 0
5.81583e-09 -2.11126e-10 0
5.85148e-09 -1.51138e-10 0
5.87532e-09 -1.06875e-10 0
5.89124e-09 -7.47836e-11 0
5.90184e-09 -5.18464e-11 0
5.90886e-09 -3.5638e-11 0
5.91342e-09 -2.42797e-11 0
5.91631e-09 -1.63534e-11 0
5.9181e-09 -1.08046e-11 0
5.91924e-09 -6.84633e-12 0
5.92002e-09 -3.89272e-12 0
5.9206e-09 -1.53892e-12 0
5.92123e-09 4.1534e-13 0
5.92234e-09 2.0102e-12 0
5.92389e-09 3.14717e-12 0
0.00940688 -2.70009e-08 0
0 -1.11758e-06 0
1.33508e-13 -3.52522e-09 0
-1.58492e-09 -8.01167e-09 0
-1.81671e-09 -9.85e-09 0
-3.24416e-09 -9.81753e-09 0
-2.38207e-09 -4.45608e-09 0
-9.36752e-11 9.0488e-11 0
2.04723e-12 -2.04723e-12 0
9.20843e-11 -9.30932e-11 0
-5.46416e-09 -7.20578e-09 0
-1.79012e-08 -2.29398e-08 0
-2.13053e-08 -3.28889e-08 0
-2.35661e-08 -3.01707e-08 0
-2.56408e-08 -1.8828e-08 0
-2.67787e-08 -3.74501e-09 0
-2.69207e-08 1.01612e-08 0
-2.62995e-08 1.87079e-08 0
-2.45516e-08 2.03545e-08 0
-2.09078e-08 1.67182e-08 0
-1.53136e-08 1.09019e-08 0
-8.78448e-09 5.40332e-09 0
-2.65943e-09 1.31885e-09 0
2.20794e-09 -1.27263e-09 0
5.64014e-09 -2.68557e-09 0
7.87827e-09 -3.27206e-09 0
9.27607e-09 -3.31905e-09 0
1.01336e-08 -3.04526e-09 0
1.06571e-08 -2.6123e-09 0
1.0975e-08 -2.13217e-09 0
1.11658e-08 -1.67432e-09 0
1.12774e-08 -1.27493e-09 0
1.13402e-08 -9.46953e-10 0
1.13734e-08 -6.89241e-10 0
1.13893e-08 -4.93407e-10 0
1.13955e-08 -3.48423e-10 0
1.13966e-08 -2.43275e-10 0
1.13955e-08 -1.68263e-10 0
1.13936e-08 -1.15455e-10 0
1.13917e-08 -7.86751e-11 0
1.139e-08 -5.32774e-11 0
1.13887e-08 -3.58542e-11 0
1.13875e-08 -2.39516e-11 0
1.13866e-08 -1.58242e-11 0
1.13859e-08 -1.02413e-11 0
1.13855e-08 -6.353e-12 0
1.13854e-08 -3.60941e-12 0
1.13857e-08 -1.69538e-12 0
1.13864e-08 -4.52943e-13 0
1.13878e-08 1.5489e-13 0
1.13895e-08 2.15202e-13 0
0.00950877 8.40316e-09 0
0 -7.70127e-07 0
1.2312e-12 -2.07009e-09 0
-1.60375e-09 -5.26718e-09 0
-1.49268e-09 -6.92368e-09 0
-4.19219e-09 -7.29639e-09 0
-5.73684e-09 -5.33146e-09 0
-2.65032e-09 -1.75969e-09 0
-9.1604e-11 8.94482e-11 0
2.62071e-12 -2.62071e-12 0
9.19488e-11 -9.22256e-11 0
-8.26089e-09 -1.30724e-08 0
-1.92213e-08 -2.91036e-08 0
-2.6074e-08 -2.77094e-08 0
-2.9077e-08 -1.60787e-08 0
-2.87513e-08 -1.55148e-09 0
-2.57353e-08 1.06858e-08 0
-2.15749e-08 1.72331e-08 0
-1.74046e-08 1.72662e-08 0
-1.30848e-08 1.26317e-08 0
-8.19647e-09 6.39206e-09 0
-3.05432e-09 9.3759e-10 0
1.50316e-09 -2.75563e-09 0
4.83458e-09 -4.73355e-09 0
6.82186e-09 -5.43058e-09 0
7.73072e-09 -5.30345e-09 0
7.94395e-09 -4.71703e-09 0
7.78907e-09 -3.93363e-09 0
7.48509e-09 -3.12552e-09 0
7.15502e-09 -2.39158e-09 0
6.85693e-09 -1.77625e-09 0
6.61138e-09 -1.2884e-09 0
6.41995e-09 -9.17169e-10 0
6.27604e-09 -6.43264e-10 0
6.17057e-09 -4.4587e-10 0
6.09474e-09 -3.06157e-10 0
6.04101e-09 -2.08633e-10 0
6.00341e-09 -1.41284e-10 0
5.9774e-09 -9.51613e-11 0
5.9596e-09 -6.37822e-11 0
5.94752e-09 -4.25434e-11 0
5.93935e-09 -2.82219e-11 0
5.93381e-09 -1.85848e-11 0
5.93004e-09 -1.21012e-11 0
5.92754e-09 -7.74105e-12 0
5.92605e-09 -4.83158e-12 0
5.92538e-09 -2.94825e-12 0
5.92531e-09 -1.8379e-12 0
5.92572e-09 -1.37774e-12 0
5.92669e-09 -1.63633e-12 0
5.928e-09 -2.61956e-12 0
0.00940686 4.07449e-08 0
0 -5.39639e-07 0
2.98766e-12 -1.30145e-09 0
-5.87063e-10 -3.53351e-09 0
-8.2175e-10 -5.23337e-09 0
-3.20766e-09 -5.37775e-09 0
-6.98953e-09 -3.08627e-09 0
-7.66241e-09 -4.3979e-10 0
-4.67838e-09 2.68883e-10 0
-9.31311e-11 8.5575e-11 0
9.12145e-11 7.86937e-11 0
4.66898e-12 -7.25468e-09 0
-1.14838e-08 -1.8262e-08 0
-2.40669e-08 -1.80282e-08 0
-3.14033e-08 -7.49062e-09 0
-3.16523e-08 4.12846e-09 0
-2.5614e-08 1.15018e-08 0
-1.69774e-08 1.33899e-08 0
-9.60018e-09 1.07521e-08 0
-4.88511e-09 5.74307e-09 0
-2.18855e-09 6.92961e-10 0
-6.22317e-10 -2.96088e-09 0
1.33067e-10 -4.9171e-09 0
9.57784e-11 -5.5334e-09 0
-6.34482e-10 -5.3104e-09 0
-1.80812e-09 -4.65273e-09 0
-3.13978e-09 -3.83182e-09 0
-4.41122e-09 -3.01277e-09 0
-5.50254e-09 -2.28449e-09 0
-6.37473e-09 -1.68341e-09 0
-7.03801e-09 -1.21296e-09 0
-7.52493e-09 -8.58878e-10 0
-7.87348e-09 -6.00028e-10 0
-8.11848e-09 -4.14851e-10 0
-8.28847e-09 -2.84487e-10 0
-8.40528e-09 -1.938e-10 0
-8.48497e-09 -1.31277e-10 0
-8.539e-09 -8.84698e-11 0
-8.57541e-09 -5.93258e-11 0
-8.59979e-09 -3.95787e-11 0
-8.61603e-09 -2.62551e-11 0
-8.6268e-09 -1.73002e-11 0
-8.63397e-09 -1.13074e-11 0
-8.63872e-09 -7.32479e-12 0
-8.64182e-09 -4.7156e-12 0
-8.64369e-09 -3.06045e-12 0
-8.64468e-09 -2.096e-12 0
-8.6451e-09 -1.68386e-12 0
-8.64516e-09 -1.81344e-12 0
-8.64485e-09 -2.67861e-12 0
-8.64433e-09 -4.39797e-12 0
0.00900021 5.49399e-08 0
0 -4.574e-07 0
3.13506e-12 -6.78922e-10 0
9.30801e-11 -1.95072e-09 0
-6.80791e-10 -3.06489e-09 0
-4.03424e-09 -3.34713e-09 0
-9.08835e-09 -9.97852e-10 0
-1.14792e-08 1.97585e-09 0
-1.08636e-08 -1.12296e-09 0
-7.13496e-09 -2.54171e-09 0
-5.70811e-09 4.8873e-13 0
-4.58451e-09 -4.44624e-09 0
-1.35249e-08 -9.06313e-09 0
-2.76996e-08 -5.82878e-09 0
-3.58387e-08 1.72184e-09 0
-3.31312e-08 7.96474e-09 0
-2.24039e-08 9.65855e-09 0
-1.06414e-08 7.23117e-09 0
-3.48813e-09 2.79673e-09 0
-2.04059e-09 -1.37019e-09 0
-4.13908e-09 -3.85904e-09 0
-7.34186e-09 -4.55023e-09 0
-1.03949e-08 -4.13118e-09 0
-1.3021e-08 -3.33428e-09 0
-1.52853e-08 -2.5691e-09 0
-1.72518e-08 -1.95874e-09 0
-1.89273e-08 -1.4942e-09 0
-2.03034e-08 -1.13794e-09 0
-2.1389e-08 -8.60387e-10 0
-2.22147e-08 -6.43216e-10 0
-2.28244e-08 -4.74619e-10 0
-2.32642e-08 -3.45618e-10 0
-2.35761e-08 -2.48539e-10 0
-2.37943e-08 -1.76654e-10 0
-2.39455e-08 -1.2421e-10 0
-2.40494e-08 -8.64565e-11 0
-2.41204e-08 -5.96029e-11 0
-2.41686e-08 -4.07095e-11 0
-2.42011e-08 -2.75499e-11 0
-2.42229e-08 -1.8471e-11 0
-2.42373e-08 -1.22658e-11 0
-2.42468e-08 -8.06671e-12 0
-2.42531e-08 -5.25925e-12 0
-2.42573e-08 -3.41474e-12 0
-2.426e-08 -2.23993e-12 0
-2.42617e-08 -1.54425e-12 0
-2.42627e-08 -1.22083e-12 0
-2.42633e-08 -1.23569e-12 0
-2.42638e-08 -1.62642e-12 0
-2.42642e-08 -2.53744e-12 0
-2.42648e-08 -4.07506e-12 0
0.00794778 4.31832e-08 0
0 -4.71397e-07 0
3.8216e-12 -7.9122e-11 0
4.51414e-10 -3.57067e-10 0
-7.08767e-10 -7.25848e-10 0
-4.71143e-09 -8.73784e-10 0
-1.05575e-08 -6.27982e-10 0
-1.37316e-08 6.75611e-10 0
-1.31972e-08 1.81064e-10 0
-1.53796e-08 -1.20134e-09 0
-1.42269e-08 -8.41423e-10 0
-1.2358e-08 -4.25547e-10 0
-1.62366e-08 1.16329e-09 0
-2.18661e-08 3.28679e-09 0
-2.36541e-08 4.14572e-09 0
-1.87263e-08 3.68994e-09 0
-9.8949e-09 2.1401e-09 0
-2.73404e-09 1.84301e-12 0
-8.16931e-10 -1.83487e-09 0
-3.67597e-09 -2.65332e-09 0
-8.58254e-09 -2.44135e-09 0
-1.32054e-08 -1.71543e-09 0
-1.66294e-08 -9.93487e-10 0
-1.89303e-08 -5.1207e-10 0
-2.04859e-08 -2.70344e-10 0
-2.16092e-08 -1.77927e-10 0
-2.24751e-08 -1.51534e-10 0
-2.31632e-08 -1.43028e-10 0
-2.37094e-08 -1.3304e-10 0
-2.41359e-08 -1.17642e-10 0
-2.44615e-08 -9.87345e-11 0
-2.47049e-08 -7.92162e-11 0
-2.48835e-08 -6.12363e-11 0
-2.50123e-08 -4.59108e-11 0
-2.5104e-08 -3.35541e-11 0
-2.51684e-08 -2.39964e-11 0
-2.52131e-08 -1.6838e-11 0
-2.52439e-08 -1.16141e-11 0
-2.52647e-08 -7.88382e-12 0
-2.52786e-08 -5.27072e-12 0
-2.52878e-08 -3.47262e-12 0
-2.52938e-08 -2.25759e-12 0
-2.52978e-08 -1.45402e-12 0
-2.53004e-08 -9.39487e-13 0
-2.53021e-08 -6.30467e-13 0
-2.53032e-08 -4.75825e-13 0
-2.53039e-08 -4.50656e-13 0
-2.53044e-08 -5.51796e-13 0
-2.5305e-08 -7.81929e-13 0
-2.53058e-08 -1.13091e-12 0
-2.53068e-08 -1.6746e-12 0
0.0055183 1.54029e-08 0
0 0 0
2.28464e-12 0 0
2.7917e-10 0 0
-3.29826e-10 0 0
-2.23441e-09 0 0
-5.10074e-09 0 0
-7.26622e-09 0 0
-7.01076e-09 0 0
-8.24845e-09 0 0
-8.51936e-09 0 0
-7.76878e-09 0 0
-6.95832e-09 0 0
-5.89866e-09 0 0
-4.61171e-09 0 0
-2.69468e-09 0 0
-6.46719e-10 0 0
3.27895e-10 0 0
-4.31429e-10 0 0
-2.45328e-09 0 0
-4.72613e-09 0 0
-6.52923e-09 0 0
-7.68571e-09 0 0
-8.34624e-09 0 0
-8.7234e-09 0 0
-8.96752e-09 0 0
-9.15435e-09 0 0
-9.31213e-09 0 0
-9.4477e-09 0 0
-9.56154e-09 0 0
-9.65387e-09 0 0
-9.72628e-09 0 0
-9.78138e-09 0 0
-9.82227e-09 0 0
-9.85196e-09 0 0
-9.87312e-09 0 0
-9.88796e-09 0 0
-9.89818e-09 0 0
-9.9051e-09 0 0
-9.90969e-09 0 0
-9.91267e-09 0 0
-9.91459e-09 0 0
-9.91583e-09 0 0
-9.91665e-09 0 0
-9.91719e-09 0 0
-9.91753e-09 0 0
-9.91773e-09 0 0
-9.91792e-09 0 0
-9.9182e-09 0 0
-9.91858e-09 0 0
-9.91901e-09 0 0
0.00191825 0 0
0 0 5.27312e-07
1.10483e-12 0 2.80061e-10
-5.43457e-10 0 9.79487e-10
1.08651e-09 0 3.11592e-09
-9.16786e-09 0 2.45089e-10
4.5678e-09 0 -3.37216e-09
8.93377e-09 0 -1.76661e-09
9.91637e-09 0 -5.2293e-10
1.02113e-08 0 5.75504e-10
1.08053e-08 0 1.62484e-09
1.22862e-08 0 2.71609e-09
1.47961e-08 0 3.27005e-09
1.74659e-08 0 2.72565e-09
1.86533e-08 0 1.54358e-09
1.69364e-08 0 6.1707e-10
1.25257e-08 0 2.07613e-10
7.01604e-09 0 7.77727e-11
1.85222e-09 0 7.02867e-11
-2.58616e-09 0 1.87919e-10
-6.63214e-09 0 4.06256e-10
-1.06088e-08 0 6.27731e-10
-1.45133e-08 0 7.59204e-10
-1.81175e-08 0 7.68545e-10
-2.11813e-08 0 6.80086e-10
-2.35806e-08 0 5.41485e-10
-2.53229e-08 0 3.95569e-10
-2.65027e-08 0 2.68512e-10
-2.72483e-08 0 1.70447e-10
-2.76845e-08 0 1.01104e-10
-2.79147e-08 0 5.53922e-11
-2.80162e-08 0 2.70832e-11
-2.80429e-08 0 1.06271e-11
-2.80302e-08 0 1.76351e-12
-2.79997e-08 0 -2.50117e-12
-2.7964e-08 0 -4.14088e-12
-2.79298e-08 0 -4.38992e-12
-2.78999e-08 0 -3.98188e-12
-2.78754e-08 0 -3.32865e-12
-2.78559e-08 0 -2.64486e-12
-2.7841e-08 0 -2.02993e-12
-2.78299e-08 0 -1.51967e-12
-2.78218e-08 0 -1.11676e-12
-2.78161e-08 0 -8.08424e-13
-2.78122e-08 0 -5.77821e-13
-2.78094e-08 0 -4.08807e-13
-2.78076e-08 0 -2.88211e-13
-2.78064e-08 0 -2.1101e-13
-2.78058e-08 0 -1.92521e-13
-2.78057e-08 0 -2.19095e-13
-2.78059e-08 0 8.23475e-14
0.00545247 0 -1.14492e-09
0.0036 -3.0208e-07 -6.12633e-08
0.0035998 -0.00138992 -2.27098e-05
0.00670454 -0.00393442 0.000110443
0.0136124 -0.00588377 -0.000503349
0.0235067 -0.0144687 -0.00427338
0.0463701 -0.0134192 -0.00488551
0.0498978 -0.00193039 -0.00164489
0.0496379 0.00263755 -0.000162639
0.0446524 0.00496242 0.00057243
0.0390488 0.00512782 0.000562856
0.0339515 0.00445844 0.000296692
0.0296712 0.0035742 2.27431e-05
0.0262735 0.00270345 -0.000173127
0.0236912 0.00194358 -0.00027288
0.0217721 0.00134114 -0.000289983
0.0203439 0.000904083 -0.000250697
0.0192664 0.000610309 -0.00018355
0.0184449 0.000422618 -0.00011306
0.0178197 0.000302937 -5.54132e-05
0.0173512 0.00022216 -1.68318e-05
0.0170089 0.000162949 4.15856e-06
0.0167668 0.000117102 1.2601e-05
0.0166017 8.13557e-05 1.37878e-05
0.0164936 5.42288e-05 1.16837e-05
0.0164261 3.45002e-05 8.66825e-06
0.016386 2.08106e-05 5.88998e-06
0.0163638 1.17509e-05 3.74284e-06
0.0163525 6.03677e-06 2.24456e-06
0.0163478 2.61637e-06 1.27058e-06
0.0163467 6.95202e-07 6.71914e-07
0.0163473 -2.90432e-07 3.22085e-07
0.0163486 -7.20739e-07 1.28283e-07
0.0163502 -8.4102e-07 2.78907e-08
0.0163516 -8.02829e-07 -1.90453e-08
0.0163529 -6.95406e-07 -3.69137e-08
0.0163539 -5.68231e-07 -4.00179e-08
0.0163547 -4.46442e-07 -3.64024e-08
0.0163553 -3.4096e-07 -3.03683e-08
0.0163557 -2.54893e-07 -2.40561e-08
0.0163561 -1.8741e-07 -1.84097e-08
0.0163563 -1.35994e-07 -1.37403e-08
0.0163565 -9.76598e-08 -1.005e-08
0.0163566 -6.95814e-08 -7.22272e-09
0.0163567 -4.93489e-08 -5.11302e-09
0.0163567 -3.50329e-08 -3.56943e-09
0.0163568 -2.51531e-08 -2.41026e-09
0.0163568 -1.86204e-08 -1.31538e-09
0.0163568 -1.48419e-08 6.58553e-10
0.0163569 -1.5497e-08 4.16704e-09
0.0163569 -3.62676e-08 1.79744e-10
0.016357 -5.51509e-08 -5.92788e-09
0.01 -1.35238e-07 -1.43293e-06
0.0100007 -0.00298645 -0.000599563
0.0147855 -0.00996398 -0.000794323
0.0241819 -0.0177467 -0.00123631
0.038593 -0.0325909 -0.00334135
0.0592931 -0.0249056 -0.000817569
0.0565232 -0.00275427 0.00318138
0.0559586 0.00507675 0.00338845
0.0501789 0.0100488 0.00300901
0.0447135 0.0101886 0.00212624
0.0402216 0.00909955 0.00118655
0.0365221 0.00767903 0.000442997
0.0335595 0.00621376 -7.7086e-05
0.0312872 0.00486921 -0.000382791
0.0295496 0.00373671 -0.000495572
0.0281959 0.00283044 -0.000466334
0.0271287 0.00212042 -0.00035945
0.0262955 0.00156868 -0.000232664
0.0256629 0.00114304 -0.000123772
0.0251998 0.000817989 -4.80084e-05
0.024874 0.000572932 -4.37758e-06
0.0246543 0.000391106 1.55227e-05
0.024513 0.000258965 2.10491e-05
0.0244273 0.000165436 1.94729e-05
0.0243791 0.00010129 1.53485e-05
0.0243552 5.88352e-05 1.10258e-05
0.0243457 3.18172e-05 7.4454e-06
0.0243443 1.53651e-05 4.80628e-06
0.024347 5.86219e-06 2.99433e-06
0.0243512 7.46837e-07 1.80911e-06
0.0243556 -1.71821e-06 1.06137e-06
0.0243597 -2.66383e-06 6.03492e-07
0.0243631 -2.79709e-06 3.30675e-07
0.0243658 -2.54123e-06 1.7258e-07
0.0243679 -2.13678e-06 8.37757e-08
0.0243695 -1.71125e-06 3.57686e-08
0.0243706 -1.32516e-06 1.11355e-08
0.0243715 -1.00127e-06 -5.24667e-10
0.0243721 -7.42588e-07 -5.26804e-09
0.0243725 -5.42842e-07 -6.52378e-09
0.0243728 -3.92375e-07 -6.16582e-09
0.024373 -2.81168e-07 -5.1676e-09
0.0243732 -2.00265e-07 -4.02202e-09
0.0243733 -1.42275e-07 -2.97266e-09
0.0243734 -1.01412e-07 -2.09693e-09
0.0243734 -7.34068e-08 -1.28695e-09
0.0243735 -5.55003e-08 -4.46388e-11
0.0243735 -4.89109e-08 2.46996e-09
0.0243735 -5.90829e-08 5.66302e-09
0.0243736 -1.00387e-07 -5.68233e-09
0.0243737 -1.31615e-07 -1.85342e-08
0.0148 -9.45046e-07 -1.72183e-06
0.0148023 -0.00529775 -0.00112612
0.0203968 -0.0164432 -0.00244859
0.0275863 -0.028882 -0.00394129
0.0322516 -0.0462931 -0.00577382
0.0307103 -0.028576 -0.00142149
0.0269096 -1.21598e-05 0.00330237
0.0263484 0.00705545 0.00352427
0.0298414 0.014387 0.00343971
0.0301881 0.0137935 0.0024806
0.0293921 0.0120034 0.00152072
0.0285661 0.0101579 0.000685056
0.027947 0.00828777 8.20636e-05
0.0276393 0.0065513 -0.000277948
0.0275159 0.00508828 -0.000414623
0.0274733 0.00389034 -0.000395465
0.0274677 0.00291242 -0.000297108
0.0274871 0.00212454 -0.00018002
0.0275262 0.00150807 -8.01171e-05
0.0275783 0.00104228 -1.13186e-05
0.0276361 0.00070107 2.68835e-05
0.0276944 0.000457293 4.18563e-05
0.02775 0.000287109 4.24559e-05
0.0278008 0.00017143 3.60775e-05
0.0278456 9.5402e-05 2.76303e-05
0.0278838 4.7509e-05 1.97286e-05
0.027915 1.89141e-05 1.33889e-05
0.0279398 3.01906e-06 8.7401e-06
0.0279589 -4.90961e-06 5.52848e-06
0.0279732 -8.11473e-06 3.40278e-06
0.0279836 -8.71325e-06 2.0417e-06
0.0279911 -8.01882e-06 1.19403e-06
0.0279965 -6.80148e-06 6.79144e-07
0.0280002 -5.48141e-06 3.73902e-07
0.0280028 -4.26481e-06 1.97472e-07
0.0280046 -3.2342e-06 9.83388e-08
0.0280058 -2.40548e-06 4.44985e-08
0.0280066 -1.76239e-06 1.65312e-08
0.0280072 -1.27602e-06 2.92319e-09
0.0280075 -9.15285e-07 -2.99207e-09
0.0280078 -6.51769e-07 -4.97187e-09
0.028008 -4.61655e-07 -5.06002e-09
0.0280081 -3.25999e-07 -4.34412e-09
0.0280082 -2.3032e-07 -3.39289e-09
0.0280082 -1.63916e-07 -2.39837e-09
0.0280083 -1.19621e-07 -1.29767e-09
0.0280083 -9.35651e-08 4.41955e-10
0.0280084 -8.58646e-08 2.63755e-09
0.0280084 -9.98985e-08 1.01266e-09
0.0280084 -1.30919e-07 -1.84861e-08
0.0280084 -1.48983e-07 -3.53133e-08
0.018 -1.90455e-06 -1.66999e-06
0.0180029 -0.00700918 -0.00187514
0.0207901 -0.0190355 -0.00492531
0.0207504 -0.0250544 -0.0063445
0.0161069 -0.0270734 -0.00763205
-1.58158e-06 -0.0140549 -0.0043387
9.56707e-05 2.57004e-05 9.11549e-07
-3.26467e-05 3.39712e-05 0.000655666
0.0065632 0.00406343 0.00144538
0.0133973 0.00920668 0.00141799
0.0168005 0.00998897 0.00101097
0.018584 0.00900792 0.000475468
0.0202879 0.0074701 -1.0006e-05
0.0219833 0.00586978 -0.000281762
0.0235046 0.00451274 -0.000355281
0.0247887 0.0033906 -0.000311092
0.0258446 0.0024607 -0.000219374
0.026703 0.00171 -0.000123364
0.0273918 0.00113454 -4.4036e-05
0.0279331 0.000718103 1.1162e-05
0.0283483 0.000431072 4.22989e-05
0.0286596 0.000240476 5.38141e-05
0.0288888 0.00011811 5.21936e-05
0.0290554 4.28763e-05 4.37954e-05
0.029175 -3.48828e-07 3.33842e-05
0.0292599 -2.24476e-05 2.3732e-05
0.0293192 -3.12749e-05 1.59914e-05
0.02936 -3.23738e-05 1.03228e-05
0.0293877 -2.94723e-05 6.426e-06
0.0294061 -2.49161e-05 3.87136e-06
0.0294182 -2.00605e-05 2.25935e-06
0.0294261 -1.56004e-05 1.27511e-06
0.0294311 -1.1823e-05 6.92292e-07
0.0294344 -8.78506e-06 3.5764e-07
0.0294364 -6.42807e-06 1.71827e-07
0.0294377 -4.64672e-06 7.27099e-08
0.0294385 -3.3268e-06 2.25843e-08
0.0294389 -2.3636e-06 -7.82332e-10
0.0294393 -1.66908e-06 -1.01315e-08
0.0294395 -1.17307e-06 -1.25482e-08
0.0294396 -8.21599e-07 -1.18323e-08
0.0294397 -5.74255e-07 -9.91822e-09
0.0294397 -4.01377e-07 -7.73569e-09
0.0294397 -2.81635e-07 -5.70619e-09
0.0294398 -2.00139e-07 -3.88605e-09
0.0294398 -1.47022e-07 -2.27011e-09
0.0294398 -1.16173e-07 -7.35818e-10
0.0294398 -1.02351e-07 -1.38312e-13
0.0294398 -1.02101e-07 -7.58198e-09
0.0294398 -9.92746e-08 -3.03816e-08
0.0294397 -9.33113e-08 -4.56602e-08
0.0196 -2.7679e-06 -2.5185e-06
0.019601 -0.00592276 -0.00274417
0.0190552 -0.0132173 -0.00648348
0.0159352 -0.016256 -0.00669305
0.010873 -0.0152407 -0.00669207
0.00171537 -0.00628201 -0.00504579
7.12087e-05 -6.53795e-05 -0.00130504
3.27328e-05 -3.27328e-05 -4.11382e-08
-3.2053e-05 3.32403e-05 0.000262725
0.00388941 0.00272595 0.000562225
0.00888813 0.00636013 0.000494058
0.011797 0.00662044 0.000143713
0.0150426 0.0051766 -0.00024055
0.0181937 0.00378788 -0.000406747
0.0208923 0.00274384 -0.000402547
0.0230772 0.001925 -0.000321215
0.0248086 0.00125319 -0.000223121
0.026166 0.000719685 -0.000134854
0.0272146 0.000333143 -6.39096e-05
0.0280052 8.41479e-05 -1.17765e-05
0.0285835 -5.66992e-05 2.13298e-05
0.0289936 -0.000124298 3.71445e-05
0.0292766 -0.000147423 3.9895e-05
0.0294673 -0.000145605 3.49552e-05
0.0295932 -0.000130973 2.70063e-05
0.0296746 -0.000110907 1.90723e-05
0.0297261 -8.9852e-05 1.25657e-05
0.029758 -7.03306e-05 7.81734e-06
0.0297772 -5.35601e-05 4.62102e-06
0.0297885 -3.99008e-05 2.59805e-06
0.0297949 -2.92061e-05 1.38188e-06
0.0297984 -2.10805e-05 6.8451e-07
0.0298002 -1.50481e-05 3.03591e-07
0.0298011 -1.06491e-05 1.07035e-07
0.0298014 -7.4853e-06 1.32174e-08
0.0298016 -5.2341e-06 -2.6053e-08
0.0298015 -3.64535e-06 -3.80545e-08
0.0298015 -2.5312e-06 -3.75751e-08
0.0298014 -1.75369e-06 -3.22415e-08
0.0298013 -1.21321e-06 -2.5737e-08
0.0298013 -8.38731e-07 -1.96594e-08
0.0298012 -5.80113e-07 -1.45472e-08
0.0298012 -4.02246e-07 -1.04627e-08
0.0298012 -2.80787e-07 -7.3258e-09
0.0298012 -1.99009e-07 -4.99887e-09
0.0298011 -1.45052e-07 -3.48688e-09
0.0298011 -1.09892e-07 -2.95955e-09
0.0298011 -8.45556e-08 -3.64874e-09
0.0298011 -6.08862e-08 -1.38513e-08
0.029801 -2.21386e-08 -3.42437e-08
0.0298009 4.40685e-09 -4.51251e-08
0.0196 -1.33397e-06 -3.51648e-06
0.0195999 -0.00369603 -0.00312758
0.0187586 -0.00811862 -0.00652431
0.0175056 -0.00815753 -0.00605498
0.0131741 -0.00433109 -0.00554408
0.00907489 0.00254836 -0.00533551
0.00614241 0.00314585 -0.00312169
7.13804e-05 -5.93786e-05 -0.000675684
2.73256e-05 -2.73256e-05 -1.25004e-07
-3.15284e-05 3.25776e-05 9.61723e-05
0.00268085 0.0018937 0.00036446
0.0069509 0.00293585 0.00026466
0.0122046 0.00141187 -0.00016557
0.016832 0.000456669 -0.000358321
0.0204307 4.47795e-05 -0.000365506
0.0231161 -0.00018791 -0.000294957
0.0250996 -0.000383101 -0.000213608
0.0265533 -0.000538189 -0.000145646
0.0275978 -0.000619779 -9.19633e-05
0.0283221 -0.000620694 -4.9463e-05
0.0288015 -0.00056242 -1.80595e-05
0.0291025 -0.000475164 1.51403e-06
0.0292812 -0.000382475 1.05659e-05
0.0293807 -0.000297444 1.23542e-05
0.029432 -0.000225333 1.04256e-05
0.0294552 -0.000167093 7.37563e-06
0.0294633 -0.000121684 4.58437e-06
0.0294638 -8.72701e-05 2.53094e-06
0.0294609 -6.18032e-05 1.21509e-06
0.0294571 -4.33289e-05 4.60919e-07
0.0294532 -3.0143e-05 7.51305e-08
0.0294499 -2.08508e-05 -9.40267e-08
0.0294473 -1.43656e-05 -1.47913e-07
0.0294452 -9.87113e-06 -1.47252e-07
0.0294437 -6.77155e-06 -1.25223e-07
0.0294426 -4.64086e-06 -9.82752e-08
0.0294418 -3.17918e-06 -7.35426e-08
0.0294412 -2.17765e-06 -5.3392e-08
0.0294408 -1.49189e-06 -3.79965e-08
0.0294405 -1.02258e-06 -2.66793e-08
0.0294403 -7.01604e-07 -1.85535e-08
0.0294401 -4.82322e-07 -1.27857e-08
0.02944 -3.32826e-07 -8.72998e-09
0.0294399 -2.31129e-07 -5.98203e-09
0.0294399 -1.6173e-07 -4.30976e-09
0.0294399 -1.13056e-07 -3.61212e-09
0.0294398 -7.58439e-08 -3.94815e-09
0.0294398 -4.13194e-08 -4.96279e-09
0.0294397 6.5855e-10 -1.33805e-08
0.0294397 6.27478e-08 -2.80241e-08
0.0294396 1.00605e-07 -3.48239e-08
0.018 -8.48999e-07 -3.51011e-06
0.0180009 -0.00201461 -0.00305046
0.0183143 -0.00389518 -0.00616371
0.0183669 -0.00269743 -0.00528854
0.0173456 0.000596026 -0.0041933
0.0170636 0.0070526 -0.00396573
0.0177984 0.0125697 -0.00300884
0.0109292 0.00692917 -0.00150307
7.28248e-05 -4.59324e-05 -0.000438195
-2.46997e-05 -5.35077e-05 5.47031e-07
7.76318e-06 -0.000731053 0.000748914
0.00824604 -0.00291927 0.00108719
0.0155218 -0.00447164 0.000447614
0.0204795 -0.00409565 0.000125897
0.023638 -0.00318986 2.30595e-06
0.0256367 -0.00243283 -4.15392e-05
0.026904 -0.00192726 -6.32491e-05
0.0276881 -0.00157949 -7.87851e-05
0.0281373 -0.00129485 -8.45681e-05
0.028355 -0.00103297 -7.71055e-05
0.0284228 -0.000794067 -6.0212e-05
0.0284048 -0.000589915 -4.12255e-05
0.028347 -0.000426817 -2.55338e-05
0.028278 -0.00030301 -1.48527e-05
0.0282131 -0.00021221 -8.467e-06
0.0281587 -0.000147122 -4.92977e-06
0.0281162 -0.000101214 -3.01164e-06
0.0280844 -6.92346e-05 -1.93599e-06
0.0280614 -4.71746e-05 -1.28876e-06
0.028045 -3.20703e-05 -8.70143e-07
0.0280336 -2.17816e-05 -5.86505e-07
0.0280257 -1.47947e-05 -3.91118e-07
0.0280202 -1.00561e-05 -2.57072e-07
0.0280165 -6.84242e-06 -1.66429e-07
0.0280139 -4.66103e-06 -1.06233e-07
0.0280122 -3.17848e-06 -6.69766e-08
0.028011 -2.16951e-06 -4.17983e-08
0.0280102 -1.48198e-06 -2.58794e-08
0.0280096 -1.01305e-06 -1.59323e-08
0.0280092 -6.93055e-07 -9.77296e-09
0.0280089 -4.74675e-07 -5.98331e-09
0.0280088 -3.2565e-07 -3.66017e-09
0.0280086 -2.23769e-07 -2.27668e-09
0.0280085 -1.53461e-07 -1.56801e-09
0.0280085 -1.03481e-07 -1.38326e-09
0.0280084 -6.52781e-08 -1.5983e-09
0.0280084 -3.17477e-08 -2.1574e-09
0.0280084 3.83892e-09 -2.61638e-09
0.0280083 5.10697e-08 -6.66453e-09
0.0280083 1.15784e-07 -1.52361e-08
0.0280083 1.52434e-07 -1.98547e-08
0.0148 -4.7631e-07 -3.10976e-06
0.0148015 -0.00103934 -0.00283061
0.0162293 -0.00165666 -0.0054285
0.017789 -4.84713e-05 -0.0042917
0.0191053 0.00315254 -0.00306488
0.0208359 0.00733849 -0.00284243
0.0246487 0.0129768 -0.00241119
0.0279418 0.0195082 -0.00152013
0.0229789 0.0112866 -0.000348006
0.0234337 1.74918e-11 0.000623161
0.0265799 -0.00671771 0.00155991
0.0299809 -0.0131214 0.00211253
0.0307732 -0.011045 0.00163942
0.0301806 -0.00770488 0.00113883
0.0291896 -0.00506163 0.000688037
0.0282246 -0.00334076 0.0003392
0.0274032 -0.00227729 0.000103452
0.026728 -0.0015932 -3.50602e-05
0.026176 -0.00111693 -9.81147e-05
0.0257278 -0.00076921 -0.000109164
0.0253702 -0.0005175 -9.20572e-05
0.0250921 -0.000342404 -6.608e-05
0.0248821 -0.000225431 -4.24563e-05
0.0247279 -0.000149177 -2.51799e-05
0.0246174 -9.97333e-05 -1.40844e-05
0.0245398 -6.74035e-05 -7.54086e-06
0.0244862 -4.59595e-05 -3.89717e-06
0.0244496 -3.15344e-05 -1.94626e-06
0.0244248 -2.1723e-05 -9.30965e-07
0.0244082 -1.49984e-05 -4.15401e-07
0.0243969 -1.03669e-05 -1.60907e-07
0.0243894 -7.16742e-06 -4.05307e-08
0.0243843 -4.95378e-06 1.21677e-08
0.0243808 -3.42128e-06 3.15978e-08
0.0243785 -2.36045e-06 3.5401e-08
0.0243769 -1.6266e-06 3.24847e-08
0.0243759 -1.11947e-06 2.72268e-08
0.0243751 -7.6949e-07 2.16735e-08
0.0243746 -5.28343e-07 1.66885e-08
0.0243743 -3.62451e-07 1.25517e-08
0.024374 -2.48446e-07 9.27159e-09
0.0243739 -1.69993e-07 6.74671e-09
0.0243738 -1.15561e-07 4.82743e-09
0.0243737 -7.68623e-08 3.3627e-09
0.0243736 -4.77374e-08 2.25727e-09
0.0243736 -2.33088e-08 1.47611e-09
0.0243736 7.4853e-10 1.07988e-09
0.0243736 2.82298e-08 1.25209e-09
0.0243736 6.39863e-08 7.18187e-10
0.0243736 1.0796e-07 -4.59145e-09
0.0243736 1.31202e-07 -9.11164e-09
0.01 -9.10653e-07 -2.81778e-06
0.0100007 -0.000636683 -0.00230511
0.01132 -0.000718306 -0.00414483
0.0131788 0.00054393 -0.00290837
0.0156059 0.00251167 -0.00180754
0.0194975 0.00555896 -0.00181617
0.0254122 0.00836327 -0.00236677
0.0345273 0.0101206 -0.00209624
0.0461427 0.00482072 -0.000514657