# vtk DataFile Version 2.0
Tobias Weinzierl: CPU, Manycore and Cluster Computing
ASCII

DATASET STRUCTURED_POINTS
DIMENSIONS  51 11 6

ORIGIN 0 0 0 

SPACING 0.1 0.1 0.1 

POINT_DATA 3366

VECTORS velocity float
0 0 0
2.18044e-13 0 0
-1.99367e-10 0 0
-3.79929e-10 0 0
-1.29314e-09 0 0
7.85473e-10 0 0
1.22708e-09 0 0
1.22367e-09 0 0
1.41571e-09 0 0
1.95062e-09 0 0
2.71234e-09 0 0
3.4341e-09 0 0
3.84394e-09 0 0
3.81298e-09 0 0
3.3458e-09 0 0
2.54302e-09 0 0
1.58207e-09 0 0
6.6671e-10 0 0
-8.11739e-11 0 0
-6.7497e-10 0 0
-1.20992e-09 0 0
-1.77231e-09 0 0
-2.38788e-09 0 0
-3.02557e-09 0 0
-3.63005e-09 0 0
-4.1531e-09 0 0
-4.56911e-09 0 0
-4.87547e-09 0 0
-5.08521e-09 0 0
-5.21834e-09 0 0
-5.29558e-09 0 0
-5.33483e-09 0 0
-5.35002e-09 0 0
-5.35117e-09 0 0
-5.345e-09 0 0
-5.33579e-09 0 0
-5.326e-09 0 0
-5.31697e-09 0 0
-5.30925e-09 0 0
-5.303e-09 0 0
-5.29811e-09 0 0
-5.29441e-09 0 0
-5.29168e-09 0 0
-5.28973e-09 0 0
-5.28838e-09 0 0
-5.28751e-09 0 0
-5.28699e-09 0 0
-5.28672e-09 0 0
-5.28664e-09 0 0
-5.2868e-09 0 0
0.00188751 0 0
0 3.80284e-07 0
4.46353e-13 9.02304e-12 0
-2.9804e-10 -2.17091e-10 0
-2.62437e-10 -6.5258e-11 0
-7.45845e-10 -7.35442e-10 0
2.64208e-09 -6.341e-10 0
3.14099e-09 8.44044e-10 0
2.95561e-09 7.37577e-10 0
3.75222e-09 -2.98565e-10 0
5.62336e-09 -1.48707e-09 0
8.05817e-09 -2.43846e-09 0
1.0243e-08 -2.84559e-09 0
1.14231e-08 -2.50601e-09 0
1.12597e-08 -1.46066e-09 0
9.96406e-09 -1.19779e-10 0
8.05905e-09 9.52933e-10 0
6.01001e-09 1.43014e-09 0
4.05886e-09 1.37179e-09 0
2.22674e-09 1.07107e-09 0
4.09875e-10 7.99425e-10 0
-1.50105e-09 6.69032e-10 0
-3.53912e-09 6.52456e-10 0
-5.63955e-09 6.70208e-10 0
-7.67041e-09 6.60161e-10 0
-9.48992e-09 6.00986e-10 0
-1.09968e-08 5.02856e-10 0
-1.21522e-08 3.88303e-10 0
-1.29739e-08 2.77826e-10 0
-1.35146e-08 1.83952e-10 0
-1.38404e-08 1.11353e-10 0
-1.40143e-08 5.94005e-11 0
-1.4089e-08 2.48225e-11 0
-1.41037e-08 3.56461e-12 0
-1.4086e-08 -8.19239e-12 0
-1.40535e-08 -1.3608e-11 0
-1.4017e-08 -1.50854e-11 0
-1.39823e-08 -1.43352e-11 0
-1.39522e-08 -1.25017e-11 0
-1.39275e-08 -1.02999e-11 0
-1.3908e-08 -8.13859e-12 0
-1.38931e-08 -6.22215e-12 0
-1.3882e-08 -4.62648e-12 0
-1.38739e-08 -3.35312e-12 0
-1.38682e-08 -2.36547e-12 0
-1.38642e-08 -1.61165e-12 0
-1.38616e-08 -1.03682e-12 0
-1.386e-08 -5.85694e-13 0
-1.38592e-08 -1.89819e-13 0
-1.38589e-08 2.83461e-13 0
-1.38594e-08 1.10658e-12 0
0.0054389 -9.84203e-09 0
0 -1.84014e-08 0
7.34411e-13 -4.5689e-11 0
2.71396e-10 -9.45944e-10 0
1.44136e-09 -2.44926e-09 0
2.96424e-09 -4.28678e-09 0
5.13855e-09 -3.01613e-09 0
3.99985e-09 6.33761e-11 0
2.95537e-09 -2.13406e-10 0
3.44493e-09 -2.14596e-09 0
6.01897e-09 -4.1958e-09 0
9.69433e-09 -6.08943e-09 0
1.29797e-08 -7.51354e-09 0
1.47178e-08 -7.89923e-09 0
1.42765e-08 -6.76836e-09 0
1.22286e-08 -4.29813e-09 0
9.57664e-09 -1.19964e-09 0
6.96208e-09 1.73181e-09 0
4.53682e-09 3.91539e-09 0
2.21855e-09 5.11693e-09 0
-7.52334e-11 5.4349e-09 0
-2.36321e-09 5.1544e-09 0
-4.62185e-09 4.5636e-09 0
-6.79482e-09 3.85319e-09 0
-8.79218e-09 3.12089e-09 0
-1.0512e-08 2.4176e-09 0
-1.18787e-08 1.77928e-09 0
-1.28698e-08 1.23369e-09 0
-1.35158e-08 7.96223e-10 0
-1.38818e-08 4.67614e-10 0
-1.40442e-08 2.36647e-10 0
-1.40736e-08 8.54565e-11 0
-1.40265e-08 -5.43926e-12 0
-1.39427e-08 -5.38292e-11 0
-1.38481e-08 -7.42532e-11 0
-1.37575e-08 -7.76589e-11 0
-1.36781e-08 -7.1743e-11 0
-1.36126e-08 -6.15734e-11 0
-1.35606e-08 -5.02526e-11 0
-1.35207e-08 -3.95065e-11 0
-1.34908e-08 -3.01548e-11 0
-1.34689e-08 -2.2462e-11 0
-1.3453e-08 -1.63805e-11 0
-1.34418e-08 -1.17108e-11 0
-1.3434e-08 -8.19768e-12 0
-1.34287e-08 -5.5845e-12 0
-1.34252e-08 -3.63438e-12 0
-1.34231e-08 -2.12319e-12 0
-1.3422e-08 -7.8241e-13 0
-1.34217e-08 7.16327e-13 0
-1.34222e-08 2.70365e-12 0
0.00787132 -2.48786e-08 0
0 -6.28277e-07 0
1.06778e-12 -5.95636e-10 0
7.3968e-10 -2.3301e-09 0
2.33393e-09 -4.62192e-09 0
3.36892e-09 -6.06812e-09 0
3.28192e-09 -3.18163e-09 0
2.08469e-09 -2.25513e-12 0
1.22341e-09 -1.01175e-09 0
2.07314e-10 -3.21992e-09 0
1.33817e-09 -5.88594e-09 0
4.50125e-09 -9.09279e-09 0
7.5023e-09 -1.22526e-08 0
9.18344e-09 -1.37332e-08 0
8.65496e-09 -1.24067e-08 0
6.42611e-09 -8.53316e-09 0
3.41301e-09 -3.03284e-09 0
2.8874e-10 2.76816e-09 0
-2.52454e-09 7.44367e-09 0
-4.72224e-09 1.00574e-08 0
-6.12461e-09 1.0544e-08 0
-6.76404e-09 9.52178e-09 0
-6.87182e-09 7.78381e-09 0
-6.73435e-09 5.92144e-09 0
-6.54908e-09 4.24031e-09 0
-6.38246e-09 2.84794e-09 0
-6.21696e-09 1.75773e-09 0
-6.01714e-09 9.47502e-10 0
-5.76775e-09 3.80839e-10 0
-5.47898e-09 1.40749e-11 0
-5.17497e-09 -1.98884e-10 0
-4.88101e-09 -3.01596e-10 0
-4.61588e-09 -3.31296e-10 0
-4.38975e-09 -3.17128e-10 0
-4.20537e-09 -2.80129e-10 0
-4.06043e-09 -2.34322e-10 0
-3.94986e-09 -1.88254e-10 0
-3.86758e-09 -1.4654e-10 0
-3.80761e-09 -1.11175e-10 0
-3.76466e-09 -8.25514e-11 0
-3.73434e-09 -6.0179e-11 0
-3.7132e-09 -4.31642e-11 0
-3.69863e-09 -3.05019e-11 0
-3.6887e-09 -2.12368e-11 0
-3.68204e-09 -1.45369e-11 0
-3.67769e-09 -9.71226e-12 0
-3.67497e-09 -6.19629e-12 0
-3.67341e-09 -3.51135e-12 0
-3.67261e-09 -1.23098e-12 0
-3.67221e-09 9.88991e-13 0
-3.67221e-09 3.24326e-12 0
0.00897592 -2.75528e-08 0
0 -1.23461e-06 0
4.89257e-13 -1.15469e-09 0
9.77623e-11 -3.28133e-09 0
5.79372e-10 -4.36176e-09 0
6.98719e-10 -3.52739e-09 0
-4.33027e-13 -1.29313e-09 0
-5.89717e-12 -4.74621e-12 0
3.87205e-12 -4.24013e-12 0
-9.01117e-10 -1.55603e-09 0
-2.687e-09 -5.52035e-09 0
-3.0799e-09 -1.04233e-08 0
-1.76245e-09 -1.49534e-08 0
-1.1507e-09 -1.7179e-08 0
-1.98622e-09 -1.56185e-08 0
-3.89724e-09 -1.04931e-08 0
-6.33281e-09 -2.96218e-09 0
-8.7807e-09 4.8945e-09 0
-1.07241e-08 1.08263e-08 0
-1.16497e-08 1.35378e-08 0
-1.12387e-08 1.31757e-08 0
-9.57461e-09 1.08637e-08 0
-7.12021e-09 7.86265e-09 0
-4.46014e-09 5.03012e-09 0
-2.03666e-09 2.74526e-09 0
-4.86175e-11 1.0757e-09 0
1.49607e-09 -4.72701e-11 0
2.67682e-09 -7.30497e-10 0
3.58378e-09 -1.0817e-09 0
4.28638e-09 -1.19834e-09 0
4.83123e-09 -1.16323e-09 0
5.24997e-09 -1.042e-09 0
5.56656e-09 -8.82493e-10 0
5.80112e-09 -7.16446e-10 0
5.97123e-09 -5.62487e-10 0
6.09205e-09 -4.29697e-10 0
6.17623e-09 -3.20842e-10 0
6.23386e-09 -2.34966e-10 0
6.27269e-09 -1.69235e-10 0
6.29851e-09 -1.2014e-10 0
6.31549e-09 -8.42029e-11 0
6.32653e-09 -5.83335e-11 0
6.33365e-09 -3.99631e-11 0
6.33818e-09 -2.70535e-11 0
6.34101e-09 -1.80378e-11 0
6.34268e-09 -1.17345e-11 0
6.34358e-09 -7.26006e-12 0
6.34403e-09 -3.9655e-12 0
6.34435e-09 -1.41392e-12 0
6.34486e-09 6.49141e-13 0
6.34542e-09 2.2673e-12 0
0.00943364 -1.3505e-08 0
0 -1.11935e-06 0
-9.33004e-14 -1.0558e-09 0
-6.6862e-10 -2.4759e-09 0
-8.72136e-10 -3.28566e-09 0
-1.19242e-09 -3.55978e-09 0
-8.42651e-10 -1.69441e-09 0
-4.89475e-12 4.48639e-12 0
-5.55336e-13 5.55336e-13 0
4.59884e-12 -3.16101e-12 0
-1.67895e-09 -2.34632e-09 0
-5.73279e-09 -8.6732e-09 0
-8.14529e-09 -1.51484e-08 0
-9.93399e-09 -1.78323e-08 0
-1.17101e-08 -1.59162e-08 0
-1.32476e-08 -9.91789e-09 0
-1.43593e-08 -1.51442e-09 0
-1.48885e-08 6.67589e-09 0
-1.46623e-08 1.2205e-08 0
-1.34378e-08 1.39521e-08 0
-1.10483e-08 1.24252e-08 0
-7.64573e-09 9.08271e-09 0
-3.73361e-09 5.37364e-09 0
6.59432e-11 2.19474e-09 0
3.28826e-09 -1.26266e-10 0
5.74449e-09 -1.60621e-09 0
7.47171e-09 -2.399e-09 0
8.61772e-09 -2.68506e-09 0
9.34764e-09 -2.63003e-09 0
9.79844e-09 -2.37184e-09 0
1.00689e-08 -2.01665e-09 0
1.02254e-08 -1.63884e-09 0
1.03112e-08 -1.28449e-09 0
1.03543e-08 -9.77342e-10 0
1.03724e-08 -7.25526e-10 0
1.03767e-08 -5.27543e-10 0
1.03739e-08 -3.76909e-10 0
1.03683e-08 -2.65282e-10 0
1.03618e-08 -1.84322e-10 0
1.03558e-08 -1.26639e-10 0
1.03507e-08 -8.61399e-11 0
1.03466e-08 -5.80473e-11 0
1.03434e-08 -3.87472e-11 0
1.0341e-08 -2.55783e-11 0
1.03392e-08 -1.66205e-11 0
1.03378e-08 -1.05119e-11 0
1.03368e-08 -6.31111e-12 0
1.03362e-08 -3.40059e-12 0
1.03361e-08 -1.41657e-12 0
1.03365e-08 -1.88784e-13 0
1.03372e-08 3.78918e-13 0
0.00955528 9.67732e-09 0
0 -7.70716e-07 0
2.05196e-13 -5.95703e-10 0
-6.28223e-10 -1.57527e-09 0
-6.94276e-10 -2.09621e-09 0
-1.41872e-09 -2.37223e-09 0
-1.83612e-09 -2.11913e-09 0
-7.95868e-10 -8.63437e-10 0
-4.42551e-12 4.54929e-12 0
1.01691e-13 -1.01691e-13 0
6.47005e-12 -2.72558e-12 0
-2.50015e-09 -4.33382e-09 0
-8.36654e-09 -1.20995e-08 0
-1.33759e-08 -1.57224e-08 0
-1.68729e-08 -1.35196e-08 0
-1.87766e-08 -7.18591e-09 0
-1.89098e-08 7.8762e-10 0
-1.73866e-08 7.66512e-09 0
-1.46319e-08 1.14606e-08 0
-1.10762e-08 1.16364e-08 0
-7.04126e-09 9.08115e-09 0
-2.86426e-09 5.34133e-09 0
1.03139e-09 1.74534e-09 0
4.24158e-09 -1.00349e-09 0
6.53639e-09 -2.74864e-09 0
7.91509e-09 -3.62439e-09 0
8.5453e-09 -3.85568e-09 0
8.65946e-09 -3.66241e-09 0
8.47397e-09 -3.22773e-09 0
8.15154e-09 -2.69058e-09 0
7.79646e-09 -2.14636e-09 0
7.46599e-09 -1.6521e-09 0
7.18532e-09 -1.23473e-09 0
6.96052e-09 -9.00522e-10 0
6.7877e-09 -6.43548e-10 0
6.65879e-09 -4.52156e-10 0
6.56483e-09 -3.13186e-10 0
6.49755e-09 -2.14324e-10 0
6.45007e-09 -1.45153e-10 0
6.41695e-09 -9.74084e-11 0
6.39409e-09 -6.48151e-11 0
6.37846e-09 -4.27631e-11 0
6.36784e-09 -2.7946e-11 0
6.36069e-09 -1.80377e-11 0
6.35591e-09 -1.14308e-11 0
6.35272e-09 -7.03955e-12 0
6.35067e-09 -4.15363e-12 0
6.34947e-09 -2.33188e-12 0
6.349e-09 -1.32767e-12 0
6.3492e-09 -1.08037e-12 0
6.3496e-09 -1.53705e-12 0
0.00943364 2.99416e-08 0
0 -5.3964e-07 0
6.68734e-13 -2.95164e-10 0
-2.4088e-10 -8.6324e-10 0
-2.65627e-10 -1.48605e-09 0
-7.33889e-10 -1.79821e-09 0
-1.84922e-09 -1.34429e-09 0
-2.23969e-09 -4.07913e-10 0
-1.45451e-09 5.62686e-11 0
-4.70273e-12 4.44221e-12 0
7.04481e-12 2.83644e-12 0
2.03413e-12 -2.51784e-09 0
-4.28166e-09 -8.46332e-09 0
-1.14321e-08 -1.17126e-08 0
-1.8056e-08 -8.7149e-09 0
-2.18959e-08 -2.34486e-09 0
-2.17317e-08 4.03687e-09 0
-1.80862e-08 8.19587e-09 0
-1.26363e-08 9.23748e-09 0
-7.06222e-09 7.51149e-09 0
-2.38584e-09 4.2588e-09 0
1.01995e-09 8.80617e-10 0
3.14822e-09 -1.70781e-09 0
4.14517e-09 -3.23605e-09 0
4.22823e-09 -3.85579e-09 0
3.65643e-09 -3.8574e-09 0
2.69579e-09 -3.50492e-09 0
1.57886e-09 -2.98819e-09 0
4.76953e-10 -2.42957e-09 0
-5.06277e-10 -1.90174e-09 0
-1.32449e-09 -1.44248e-09 0
-1.97119e-09 -1.06569e-09 0
-2.46264e-09 -7.70142e-10 0
-2.8249e-09 -5.46399e-10 0
-3.08566e-09 -3.81729e-10 0
-3.26989e-09 -2.63245e-10 0
-3.39815e-09 -1.79528e-10 0
-3.48642e-09 -1.21239e-10 0
-3.5466e-09 -8.11412e-11 0
-3.5873e-09 -5.38339e-11 0
-3.61463e-09 -3.53951e-11 0
-3.63285e-09 -2.30357e-11 0
-3.64492e-09 -1.48041e-11 0
-3.65283e-09 -9.35736e-12 0
-3.65799e-09 -5.7881e-12 0
-3.66132e-09 -3.49615e-12 0
-3.66344e-09 -2.09641e-12 0
-3.66472e-09 -1.35907e-12 0
-3.66539e-09 -1.18041e-12 0
-3.66559e-09 -1.60681e-12 0
-3.66578e-09 -2.64552e-12 0
0.00897593 3.68705e-08 0
0 -4.57179e-07 0
8.2554e-13 -1.38435e-10 0
8.68532e-11 -4.61329e-10 0
4.77859e-11 -8.3753e-10 0
-6.5872e-10 -1.04583e-09 0
-2.1773e-09 -4.48734e-10 0
-3.37238e-09 7.18467e-10 0
-3.46457e-09 2.13915e-11 0
-2.30632e-09 -6.1462e-10 0
-1.6679e-09 1.84463e-13 0
-4.47959e-10 -2.86313e-09 0
-3.17316e-09 -6.64556e-09 0
-1.09484e-08 -6.45406e-09 0
-1.91198e-08 -2.92642e-09 0
-2.30873e-08 1.769e-09 0
-2.11467e-08 5.26357e-09 0
-1.49919e-08 6.41735e-09 0
-7.88318e-09 5.28748e-09 0
-2.42319e-09 2.74316e-09 0
4.16592e-10 -4.35046e-12 0
9.56738e-10 -2.01232e-09 0
1.83219e-11 -2.96766e-09 0
-1.6441e-09 -3.07594e-09 0
-3.53593e-09 -2.72153e-09 0
-5.38957e-09 -2.21627e-09 0
-7.07443e-09 -1.72858e-09 0
-8.53137e-09 -1.3188e-09 0
-9.7409e-09 -9.93456e-10 0
-1.07093e-08 -7.4093e-10 0
-1.14598e-08 -5.47049e-10 0
-1.20253e-08 -3.99557e-10 0
-1.24412e-08 -2.88537e-10 0
-1.27408e-08 -2.05968e-10 0
-1.29532e-08 -1.45334e-10 0
-1.31017e-08 -1.0137e-10 0
-1.32044e-08 -6.98893e-11 0
-1.32746e-08 -4.76192e-11 0
-1.33223e-08 -3.205e-11 0
-1.33544e-08 -2.12904e-11 0
-1.33759e-08 -1.39383e-11 0
-1.33901e-08 -8.9718e-12 0
-1.33993e-08 -5.65856e-12 0
-1.34054e-08 -3.48409e-12 0
-1.34092e-08 -2.09467e-12 0
-1.34117e-08 -1.25428e-12 0
-1.34133e-08 -8.16103e-13 0
-1.34144e-08 -7.04702e-13 0
-1.34152e-08 -9.00908e-13 0
-1.34158e-08 -1.44254e-12 0
-1.34167e-08 -2.33101e-12 0
0.00787135 2.71384e-08 0
0 -4.70955e-07 0
1.00795e-12 -1.26335e-12 0
2.29624e-10 -3.84933e-11 0
1.48339e-10 -9.77238e-11 0
-7.44737e-10 -1.1602e-10 0
-2.58859e-09 -6.81207e-11 0
-4.20397e-09 4.97028e-10 0
-4.3542e-09 5.35861e-10 0
-5.04754e-09 -2.3557e-10 0
-4.68508e-09 -9.97704e-10 0
-3.7367e-09 -1.82759e-09 0
-5.96502e-09 -1.50393e-09 0
-1.01224e-08 -4.72349e-11 0
-1.40324e-08 1.32665e-09 0
-1.49185e-08 2.19862e-09 0
-1.19463e-08 2.32704e-09 0
-6.82054e-09 1.6872e-09 0
-2.18834e-09 6.00352e-10 0
2.18627e-10 -4.4196e-10 0
2.10831e-10 -1.08447e-09 0
-1.40574e-09 -1.26004e-09 0
-3.65227e-09 -1.11613e-09 0
-5.8546e-09 -8.50398e-10 0
-7.71533e-09 -5.98612e-10 0
-9.18581e-09 -4.13163e-10 0
-1.0322e-08 -2.92781e-10 0
-1.11981e-08 -2.1733e-10 0
-1.18748e-08 -1.67706e-10 0
-1.23958e-08 -1.3177e-10 0
-1.27935e-08 -1.03438e-10 0
-1.30929e-08 -8.01635e-11 0
-1.33149e-08 -6.09807e-11 0
-1.34771e-08 -4.54352e-11 0
-1.35937e-08 -3.31439e-11 0
-1.36764e-08 -2.36775e-11 0
-1.37344e-08 -1.65699e-11 0
-1.37745e-08 -1.13594e-11 0
-1.38018e-08 -7.62414e-12 0
-1.38203e-08 -5.00248e-12 0
-1.38326e-08 -3.19995e-12 0
-1.38407e-08 -1.98645e-12 0
-1.38459e-08 -1.18876e-12 0
-1.38492e-08 -6.81302e-13 0
-1.38513e-08 -3.77124e-13 0
-1.38527e-08 -2.19938e-13 0
-1.38536e-08 -1.78055e-13 0
-1.38544e-08 -2.3523e-13 0
-1.38551e-08 -3.78461e-13 0
-1.38558e-08 -5.86737e-13 0
-1.3857e-08 -8.8197e-13 0
0.00543894 9.172e-09 0
0 0 0
6.25065e-13 0 0
1.33343e-10 0 0
8.77609e-11 0 0
-3.40341e-10 0 0
-1.26664e-09 0 0
-2.27565e-09 0 0
-2.34415e-09 0 0
-2.74142e-09 0 0
-3.01661e-09 0 0
-3.2867e-09 0 0
-3.75835e-09 0 0
-3.9688e-09 0 0
-3.99433e-09 0 0
-3.48508e-09 0 0
-2.29565e-09 0 0
-8.81456e-10 0 0
8.30655e-11 0 0
2.34833e-10 0 0
-3.2447e-10 0 0
-1.24134e-09 0 0
-2.18395e-09 0 0
-2.97203e-09 0 0
-3.56438e-09 0 0
-3.99213e-09 0 0
-4.30334e-09 0 0
-4.53688e-09 0 0
-4.71737e-09 0 0
-4.85891e-09 0 0
-4.96974e-09 0 0
-5.05547e-09 0 0
-5.12064e-09 0 0
-5.16921e-09 0 0
-5.20473e-09 0 0
-5.23024e-09 0 0
-5.24825e-09 0 0
-5.26075e-09 0 0
-5.2693e-09 0 0
-5.27504e-09 0 0
-5.27883e-09 0 0
-5.28127e-09 0 0
-5.2828e-09 0 0
-5.28375e-09 0 0
-5.28434e-09 0 0
-5.28473e-09 0 0
-5.28503e-09 0 0
-5.28531e-09 0 0
-5.2856e-09 0 0
-5.28595e-09 0 0
-5.28643e-09 0 0
0.00188753 0 0
0 0 5.27451e-07
5.297e-13 0 1.90996e-10
-5.53335e-10 0 5.97919e-10
-8.24047e-10 0 1.15963e-09
-4.27801e-09 0 -4.29614e-10
1.26037e-09 0 -1.88613e-09
2.94226e-09 0 -1.28256e-09
3.42514e-09 0 -9.26689e-10
4.00319e-09 0 -4.28819e-10
5.01977e-09 0 1.90245e-10
6.4194e-09 0 9.55075e-10
8.2682e-09 0 1.71434e-09
1.05021e-08 0 2.12763e-09
1.26506e-08 0 1.95937e-09
1.38955e-08 0 1.39036e-09
1.36162e-08 0 8.11507e-10
1.1798e-08 0 4.46977e-10
8.97707e-09 0 2.92354e-10
5.80609e-09 0 2.71542e-10
2.68521e-09 0 3.30187e-10
-2.79816e-10 0 4.29007e-10
-3.10881e-09 0 5.25988e-10
-5.79319e-09 0 5.83334e-10
-8.25554e-09 0 5.82143e-10
-1.03918e-08 0 5.26614e-10
-1.21271e-08 0 4.36273e-10
-1.34437e-08 0 3.34203e-10
-1.4377e-08 0 2.385e-10
-1.49938e-08 0 1.59211e-10
-1.5371e-08 0 9.9327e-11
-1.55794e-08 0 5.73726e-11
-1.56769e-08 0 2.98615e-11
-1.57067e-08 0 1.29502e-11
-1.56986e-08 0 3.28761e-12
-1.56722e-08 0 -1.71226e-12
-1.56394e-08 0 -3.88868e-12
-1.56068e-08 0 -4.47015e-12
-1.55778e-08 0 -4.23296e-12
-1.55537e-08 0 -3.6408e-12
-1.55344e-08 0 -2.95269e-12
-1.55195e-08 0 -2.30039e-12
-1.55083e-08 0 -1.74064e-12
-1.55002e-08 0 -1.2883e-12
-1.54943e-08 0 -9.36974e-13
-1.54903e-08 0 -6.72168e-13
-1.54876e-08 0 -4.79113e-13
-1.54859e-08 0 -3.48398e-13
-1.5485e-08 0 -2.8533e-13
-1.54847e-08 0 -2.92969e-13
-1.54851e-08 0 -2.22254e-13
0.00536458 0 -7.5098e-10
0.0036 -3.01528e-07 -6.11237e-08
0.0035998 -0.00138908 -2.09062e-05
0.00669666 -0.00393833 0.000116533
0.0136096 -0.00587225 -0.000484022
0.0234979 -0.0145028 -0.0042631
0.0464219 -0.0134878 -0.00489222
0.0499668 -0.0019589 -0.00164838
0.0497123 0.00261652 -0.000165721
0.0447398 0.00493734 0.0005715
0.0391522 0.00509532 0.000569826
0.0340713 0.00441789 0.000317573
0.0298141 0.00352797 5.8758e-05
0.0264447 0.00266034 -0.000128324
0.0238847 0.00191757 -0.000229985
0.0219739 0.00134237 -0.000257962
0.0205395 0.000930566 -0.000233931
0.0194427 0.000650427 -0.00018154
0.0185892 0.000464361 -0.000121181
0.017921 0.000340096 -6.71496e-05
0.0174021 0.000254038 -2.67338e-05
0.0170068 0.000190979 -1.21321e-06
0.0167135 0.0001423 1.18597e-05
0.0165027 0.000103706 1.63193e-05
0.0163564 7.32011e-05 1.58025e-05
0.0162588 4.96856e-05 1.30329e-05
0.0161967 3.22242e-05 9.71256e-06
0.0161592 1.98062e-05 6.71539e-06
0.0161383 1.13699e-05 4.36519e-06
0.0161278 5.90839e-06 2.68239e-06
0.0161236 2.55649e-06 1.55602e-06
0.0161229 6.28955e-07 8.42871e-07
0.016124 -3.82001e-07 4.13886e-07
0.0161258 -8.32602e-07 1.69393e-07
0.0161278 -9.61086e-07 3.90502e-08
0.0161296 -9.19714e-07 -2.38672e-08
0.0161312 -8.01182e-07 -4.8948e-08
0.0161324 -6.587e-07 -5.41566e-08
0.0161334 -5.20393e-07 -4.99441e-08
0.0161341 -3.99182e-07 -4.20956e-08
0.0161347 -2.99276e-07 -3.3605e-08
0.0161351 -2.20283e-07 -2.58623e-08
0.0161354 -1.59686e-07 -1.93786e-08
0.0161356 -1.14259e-07 -1.42182e-08
0.0161357 -8.08252e-08 -1.0252e-08
0.0161358 -5.65991e-08 -7.28465e-09
0.0161359 -3.92897e-08 -5.08705e-09
0.016136 -2.70834e-08 -3.35938e-09
0.016136 -1.86517e-08 -1.39517e-09
0.016136 -1.39471e-08 1.52564e-09
0.0161361 -2.1609e-08 1.96733e-10
0.0161361 -3.05714e-08 -2.87895e-09
0.01 -1.33854e-07 -1.43367e-06
0.0100007 -0.00298268 -0.000597622
0.0147874 -0.00997097 -0.000792202
0.0242022 -0.0177777 -0.00122421
0.038659 -0.0326859 -0.00332973
0.0593905 -0.0250039 -0.000808204
0.0566036 -0.00278904 0.00319837
0.0560359 0.00504457 0.00339502
0.0502692 0.00999702 0.00300402
0.0448316 0.010116 0.00212737
0.0403688 0.00900017 0.00121288
0.0367003 0.0075526 0.000497696
0.0337684 0.00608218 -3.89649e-06
0.0315171 0.00476859 -0.000307069
0.0297911 0.00369483 -0.000434811
0.0284404 0.00285411 -0.000433774
0.0273614 0.00219869 -0.00035812
0.0264943 0.00168165 -0.000254426
0.0258068 0.0012701 -0.000154947
0.0252772 0.000943299 -7.66222e-05
0.024884 0.000686946 -2.39826e-05
0.0246042 0.000489281 6.02584e-06
0.0244137 0.000339753 1.95361e-05
0.0242905 0.000228995 2.27844e-05
0.024216 0.000148934 2.06986e-05
0.0241748 9.27094e-05 1.65569e-05
0.0241554 5.45362e-05 1.22079e-05
0.0241492 2.96106e-05 8.49154e-06
0.0241505 1.40618e-05 5.64773e-06
0.0241554 4.89311e-06 3.62087e-06
0.0241616 -1.14467e-07 2.24737e-06
0.0241677 -2.53193e-06 1.35193e-06
0.0241731 -3.42412e-06 7.86691e-07
0.0241776 -3.482e-06 4.40249e-07
0.0241812 -3.13353e-06 2.34116e-07
0.024184 -2.62978e-06 1.1543e-07
0.0241861 -2.10789e-06 4.9772e-08
0.0241876 -1.6349e-06 1.53527e-08
0.0241888 -1.2369e-06 -1.26654e-09
0.0241896 -9.17711e-07 -8.15591e-09
0.0241901 -6.70258e-07 -1.00222e-08
0.0241905 -4.83224e-07 -9.51257e-09
0.0241908 -3.44619e-07 -8.0502e-09
0.024191 -2.43529e-07 -6.36664e-09
0.0241912 -1.70799e-07 -4.80936e-09
0.0241913 -1.19178e-07 -3.45589e-09
0.0241913 -8.31993e-08 -2.0672e-09
0.0241914 -6.04877e-08 -5.46606e-11
0.0241914 -5.16966e-08 2.84389e-09
0.0241914 -6.41294e-08 -2.34311e-09
0.0241915 -7.73036e-08 -9.17295e-09
0.0148 -9.42836e-07 -1.7228e-06
0.0148023 -0.00530152 -0.00112356
0.0204154 -0.0164694 -0.00244976
0.0276383 -0.0289634 -0.003945
0.0323231 -0.0464216 -0.00578329
0.0307671 -0.0286454 -0.00142355
0.0269438 -1.21891e-05 0.00331582
0.0263775 0.00703937 0.00352992
0.0298561 0.0143281 0.00343428
0.0302096 0.0136825 0.00247702
0.0294415 0.01184 0.00153922
0.028642 0.00995046 0.000731279
0.0280499 0.00807432 0.000147176
0.0277594 0.00638476 -0.00020838
0.0276423 0.00501062 -0.000358577
0.0275922 0.00392125 -0.000366794
0.0275614 0.00304348 -0.000298748
0.0275399 0.00232264 -0.0002041
0.0275323 0.00173047 -0.000113805
0.0275433 0.00125363 -4.30326e-05
0.0275729 0.000881525 4.18731e-06
0.0276167 0.000600671 3.02812e-05
0.0276689 0.000395118 4.0483e-05
0.0277241 0.000248932 4.0474e-05
0.0277781 0.000148031 3.50848e-05
0.0278278 8.07823e-05 2.77649e-05
0.0278716 3.78853e-05 2.05807e-05
0.0279084 1.20529e-05 1.45109e-05
0.0279383 -2.2852e-06 9.82961e-06
0.0279619 -9.2445e-06 6.43873e-06
0.02798 -1.17401e-05 4.09408e-06
0.0279934 -1.17413e-05 2.53128e-06
0.0280033 -1.05106e-05 1.52132e-06
0.0280104 -8.80963e-06 8.86627e-07
0.0280154 -7.06369e-06 4.98425e-07
0.0280189 -5.48423e-06 2.67584e-07
0.0280213 -4.15458e-06 1.34551e-07
0.028023 -3.08693e-06 6.07049e-08
0.0280241 -2.2581e-06 2.16691e-08
0.0280249 -1.63079e-06 2.45864e-09
0.0280254 -1.16531e-06 -5.89435e-09
0.0280257 -8.25337e-07 -8.59749e-09
0.028026 -5.80213e-07 -8.57029e-09
0.0280261 -4.05405e-07 -7.39579e-09
0.0280262 -2.81984e-07 -5.86558e-09
0.0280263 -1.96044e-07 -4.29567e-09
0.0280264 -1.37912e-07 -2.49098e-09
0.0280264 -1.02262e-07 -4.83122e-10
0.0280264 -8.77917e-08 -1.47812e-10
0.0280264 -8.8633e-08 -9.77376e-09
0.0280264 -9.1396e-08 -1.87568e-08
0.018 -1.9028e-06 -1.66746e-06
0.018003 -0.00702379 -0.00187234
0.0208053 -0.0190893 -0.00492815
0.0207733 -0.0251457 -0.0063564
0.01612 -0.0271561 -0.00764465
-1.58448e-06 -0.0140855 -0.00434504
9.5484e-05 2.55118e-05 9.16285e-07
-3.2473e-05 3.37932e-05 0.000655552
0.0065459 0.00402602 0.00144679
0.013327 0.00908327 0.00142161
0.0167072 0.00978254 0.0010207
0.018505 0.00874171 0.000499818
0.0202272 0.00719358 2.82399e-05
0.0219328 0.0056601 -0.000241495
0.0234514 0.00442955 -0.000326141
0.0247178 0.00345766 -0.000299696
0.0257453 0.00265703 -0.000224823
0.026575 0.00197977 -0.000140752
0.0272477 0.00141377 -6.7455e-05
0.0277936 0.000959968 -1.24112e-05
0.0282339 0.000615173 2.36454e-05
0.0285842 0.000366988 4.31019e-05
0.0288587 0.000197096 4.96887e-05
0.0290702 8.6423e-05 4.75719e-05
0.0292309 1.84119e-05 4.06512e-05
0.0293512 -2.00059e-05 3.20045e-05
0.0294398 -3.86897e-05 2.36404e-05
0.0295041 -4.48899e-05 1.65793e-05
0.0295499 -4.37889e-05 1.11288e-05
0.029582 -3.89354e-05 7.18693e-06
0.029604 -3.26176e-05 4.47725e-06
0.0296189 -2.61933e-05 2.69116e-06
0.0296288 -2.03752e-05 1.5566e-06
0.0296353 -1.54603e-05 8.60594e-07
0.0296395 -1.15002e-05 4.48478e-07
0.0296422 -8.41752e-06 2.13775e-07
0.0296439 -6.08008e-06 8.62314e-08
0.029645 -4.34388e-06 2.11617e-08
0.0296456 -3.07536e-06 -8.90794e-09
0.0296461 -2.16082e-06 -2.03081e-08
0.0296463 -1.50866e-06 -2.24058e-08
0.0296465 -1.04778e-06 -2.03523e-08
0.0296466 -7.24549e-07 -1.68228e-08
0.0296466 -4.99396e-07 -1.31186e-08
0.0296467 -3.4373e-07 -9.75919e-09
0.0296467 -2.37398e-07 -6.9214e-09
0.0296467 -1.66681e-07 -4.49981e-09
0.0296467 -1.21407e-07 -2.77509e-09
0.0296467 -9.53768e-08 -5.8909e-09
0.0296467 -7.2409e-08 -1.70754e-08
0.0296466 -5.80281e-08 -2.45723e-08
0.0196 -2.77126e-06 -2.51401e-06
0.019601 -0.00594158 -0.00274344
0.0190502 -0.0132632 -0.00648995
0.0159178 -0.0163253 -0.00670495
0.0108382 -0.0153203 -0.00669961
0.00169076 -0.00631932 -0.00504936
7.10308e-05 -6.52076e-05 -0.00130576
3.27347e-05 -3.27347e-05 -4.17287e-08
-3.18771e-05 3.30688e-05 0.00026532
0.00384548 0.00266372 0.000569459
0.00874464 0.00616359 0.000504139
0.0116247 0.00632683 0.000157683
0.014859 0.00488163 -0.000225898
0.0180012 0.00357927 -0.000400666
0.0206901 0.00268207 -0.000407373
0.0228646 0.00202706 -0.000331711
0.024589 0.00148541 -0.0002334
0.0259512 0.00101226 -0.000143658
0.0270242 0.000612249 -7.35165e-05
0.0278614 0.000300651 -2.34739e-05
0.028503 8.16296e-05 9.37947e-06
0.0289832 -5.5369e-05 2.82043e-05
0.0293336 -0.000129183 3.60137e-05
0.029583 -0.000159443 3.59678e-05
0.0297565 -0.00016236 3.12507e-05
0.0298744 -0.000149738 2.45948e-05
0.0299529 -0.00012959 1.79058e-05
0.0300039 -0.000107089 1.22114e-05
0.0300362 -8.53625e-05 7.8579e-06
0.0300561 -6.60864e-05 4.78391e-06
0.0300679 -4.99474e-05 2.74826e-06
0.0300747 -3.70044e-05 1.474e-06
0.0300783 -2.69656e-05 7.18409e-07
0.0300802 -1.93829e-05 2.95711e-07
0.030081 -1.37758e-05 7.55985e-08
0.0300813 -9.70012e-06 -2.75829e-08
0.0300813 -6.77842e-06 -6.71556e-08
0.0300812 -4.7073e-06 -7.4675e-08
0.0300811 -3.25239e-06 -6.78568e-08
0.0300809 -2.23782e-06 -5.60512e-08
0.0300808 -1.53452e-06 -4.37964e-08
0.0300807 -1.04936e-06 -3.30008e-08
0.0300806 -7.16093e-07 -2.42147e-08
0.0300806 -4.88064e-07 -1.7389e-08
0.0300805 -3.32793e-07 -1.22473e-08
0.0300805 -2.27603e-07 -8.53728e-09
0.0300805 -1.56543e-07 -6.16728e-09
0.0300804 -1.06553e-07 -5.00455e-09
0.0300804 -6.76725e-08 -9.92048e-09
0.0300804 -2.23544e-08 -1.89684e-08
0.0300803 5.43537e-09 -2.27934e-08
0.0196 -1.33655e-06 -3.51518e-06
0.0195999 -0.00370617 -0.0031289
0.0187452 -0.0081503 -0.00653173
0.0174862 -0.00820567 -0.00606141
0.0131397 -0.00439083 -0.00554644
0.00903641 0.00248985 -0.00534277
0.00613026 0.00312046 -0.003134
7.12094e-05 -5.92059e-05 -0.000682774
2.73287e-05 -2.73287e-05 -1.25211e-07
-3.13423e-05 3.2412e-05 9.83856e-05
0.0026138 0.00178896 0.000376575
0.00679294 0.00268708 0.000281499
0.0119874 0.00114528 -0.000163438
0.0165779 0.000273755 -0.000378891
0.0201552 5.47801e-06 -0.000400733
0.0228356 -7.33348e-05 -0.000329226
0.0248347 -0.000156283 -0.000234727
0.0263284 -0.000273257 -0.000151947
0.0274364 -0.000389518 -9.03243e-05
0.0282407 -0.000468245 -4.757e-05
0.0288043 -0.000494671 -1.90331e-05
0.0291813 -0.000474889 -1.22322e-06
0.0294201 -0.000424858 8.28076e-06
0.0295618 -0.000360729 1.16884e-05
0.0296393 -0.000294327 1.12444e-05
0.0296767 -0.000232677 8.93847e-06
0.0296906 -0.000179177 6.19148e-06
0.0296919 -0.000134911 3.78765e-06
0.0296871 -9.96214e-05 2.01298e-06
0.0296803 -7.23368e-05 8.59235e-07
0.0296732 -5.1779e-05 1.93172e-07
0.0296669 -3.66229e-05 -1.40332e-07
0.0296618 -2.565e-05 -2.71346e-07
0.0296577 -1.78231e-05 -2.92357e-07
0.0296546 -1.23067e-05 -2.61944e-07
0.0296524 -8.45574e-06 -2.13612e-07
0.0296507 -5.78731e-06 -1.64458e-07
0.0296495 -3.94895e-06 -1.21842e-07
0.0296487 -2.68806e-06 -8.7878e-08
0.0296481 -1.82621e-06 -6.21788e-08
0.0296476 -1.23872e-06 -4.33922e-08
0.0296474 -8.39133e-07 -2.99741e-08
0.0296472 -5.67871e-07 -2.05295e-08
0.029647 -3.83982e-07 -1.39671e-08
0.0296469 -2.59227e-07 -9.52385e-09
0.0296468 -1.73709e-07 -6.68535e-09
0.0296468 -1.1295e-07 -5.29844e-09
0.0296468 -6.50542e-08 -4.74764e-09
0.0296467 -1.9483e-08 -8.88778e-09
0.0296467 3.56631e-08 -1.38801e-08
0.0296466 6.74143e-08 -1.45002e-08
0.018 -8.49065e-07 -3.51132e-06
0.0180009 -0.00202015 -0.00305235
0.0183089 -0.00391605 -0.00617018
0.0183542 -0.00273954 -0.00529292
0.0173262 0.00054007 -0.00418922
0.0170355 0.00700019 -0.003966
0.0177662 0.0125401 -0.00302407
0.0109033 0.00692278 -0.00151993
7.26426e-05 -4.57691e-05 -0.00044398
-2.45116e-05 -5.33652e-05 5.47992e-07
7.78606e-06 -0.00078196 0.000761483
0.00817335 -0.00306951 0.00111034
0.0153497 -0.00465751 0.000456023
0.0202194 -0.00421342 0.000106825
0.0233253 -0.00318514 -3.98457e-05
0.0253191 -0.00231008 -8.90517e-05
0.0266276 -0.00173664 -9.6255e-05
0.0274873 -0.0013893 -8.8346e-05
0.0280297 -0.00116016 -7.60086e-05
0.0283397 -0.000975876 -6.22698e-05
0.028483 -0.000805482 -4.81444e-05
0.028515 -0.000645335 -3.48729e-05
0.0284812 -0.000501697 -2.37625e-05
0.0284157 -0.000380109 -1.54875e-05
0.0283409 -0.000282105 -9.91224e-06
0.02827 -0.000205953 -6.41324e-06
0.0282092 -0.000148339 -4.28297e-06
0.0281602 -0.000105624 -2.96467e-06
0.0281225 -7.44714e-05 -2.10415e-06
0.0280944 -5.20696e-05 -1.50643e-06
0.0280739 -3.61548e-05 -1.07293e-06
0.0280594 -2.49644e-05 -7.5364e-07
0.0280491 -1.7162e-05 -5.19901e-07
0.028042 -1.1758e-05 -3.51829e-07
0.0280371 -8.03436e-06 -2.33683e-07
0.0280337 -5.47832e-06 -1.52551e-07
0.0280314 -3.72879e-06 -9.8059e-08
0.0280298 -2.53392e-06 -6.21877e-08
0.0280287 -1.71931e-06 -3.89891e-08
0.028028 -1.16483e-06 -2.42123e-08
0.0280275 -7.87965e-07 -1.49185e-08
0.0280272 -5.3217e-07 -9.13011e-09
0.0280269 -3.58657e-07 -5.55372e-09
0.0280268 -2.40679e-07 -3.38882e-09
0.0280267 -1.59541e-07 -2.17618e-09
0.0280266 -1.01828e-07 -1.6041e-09
0.0280265 -5.7489e-08 -1.58426e-09
0.0280265 -1.85142e-08 -1.48955e-09
0.0280265 2.32103e-08 -3.26339e-09
0.0280264 7.14901e-08 -4.89771e-09
0.0280264 9.71064e-08 -4.52145e-09
0.0148 -4.75202e-07 -3.1108e-06
0.0148015 -0.00104382 -0.00283378
0.0162274 -0.00167331 -0.00543508
0.0177786 -8.16041e-05 -0.00429446
0.0190766 0.00310641 -0.00305733
0.0207864 0.00729839 -0.00283025
0.0245897 0.0129662 -0.00240879
0.0278804 0.0194949 -0.00153119
0.0229364 0.011269 -0.0003587
0.0234 7.58584e-12 0.000617856
0.0265568 -0.00675732 0.00156363
0.0299109 -0.0132075 0.00212885
0.030592 -0.0111171 0.00165345
0.0298948 -0.00771892 0.00113353
0.0288624 -0.00500367 0.000657272
0.0279315 -0.00323218 0.000297182
0.0271925 -0.0021616 7.36905e-05
0.0266104 -0.00151302 -3.98772e-05
0.0261347 -0.00109344 -8.31398e-05
0.0257334 -0.000796767 -8.80146e-05
0.0253927 -0.000574667 -7.51673e-05
0.025108 -0.000407316 -5.67604e-05
0.0248765 -0.000284375 -3.92489e-05
0.0246938 -0.000196941 -2.53284e-05
0.0245537 -0.000136259 -1.54469e-05
0.0244489 -9.46121e-05 -8.97871e-06
0.0243723 -6.60201e-05 -4.99529e-06
0.0243172 -4.62556e-05 -2.6557e-06
0.0242782 -3.24785e-05 -1.33415e-06
0.024251 -2.28107e-05 -6.1412e-07
0.0242322 -1.60004e-05 -2.37255e-07
0.0242192 -1.11974e-05 -5.05474e-08
0.0242103 -7.81275e-06 3.38384e-08
0.0242043 -5.4327e-06 6.51542e-08
0.0242002 -3.76404e-06 7.04296e-08
0.0241974 -2.59818e-06 6.41262e-08
0.0241955 -1.78666e-06 5.3707e-08
0.0241942 -1.22399e-06 4.2807e-08
0.0241933 -8.35398e-07 3.30177e-08
0.0241927 -5.68072e-07 2.48797e-08
0.0241923 -3.84832e-07 1.8423e-08
0.024192 -2.59548e-07 1.34599e-08
0.0241918 -1.73839e-07 9.73142e-09
0.0241917 -1.14691e-07 6.97193e-09
0.0241916 -7.27686e-08 4.94978e-09
0.0241916 -4.1231e-08 3.52345e-09
0.0241915 -1.4821e-08 2.60695e-09
0.0241915 1.02606e-08 2.4395e-09
0.0241915 3.74438e-08 2.42605e-09
0.0241915 6.56236e-08 1.55859e-09
0.0241915 7.91981e-08 8.78929e-10
0.01 -9.1098e-07 -2.81939e-06
0.0100008 -0.000639415 -0.00230798
0.0113161 -0.000727296 -0.00414869
0.013162 0.000527917 -0.00290482
0.0155642 0.00248998 -0.00179232
0.0194231 0.00553516 -0.00179444
0.0253176 0.00835557 -0.00235192
0.0344395 0.0101195 -0.00209268
0.0460443 0.00480981 -0.00051775
0.0458035 -0.00403939 0.000974436