# vtk DataFile Version 2.0
Tobias Weinzierl: CPU, Manycore and Cluster Computing
ASCII

DATASET STRUCTURED_POINTS
DIMENSIONS  51 11 6

ORIGIN 0 0 0 

SPACING 0.1 0.1 0.1 

POINT_DATA 3366

VECTORS velocity float
0 0 0
5.66934e-12 0 0
9.67276e-09 0 0
2.23189e-10 0 0
-4.86015e-08 0 0
-1.5546e-08 0 0
-1.01815e-08 0 0
-1.1339e-08 0 0
-9.97321e-09 0 0
-5.29676e-09 0 0
-2.08487e-09 0 0
-6.4194e-09 0 0
-1.73733e-08 0 0
-2.83501e-08 0 0
-3.42185e-08 0 0
-3.51461e-08 0 0
-3.41758e-08 0 0
-3.36492e-08 0 0
-3.41949e-08 0 0
-3.54546e-08 0 0
-3.68982e-08 0 0
-3.81778e-08 0 0
-3.91577e-08 0 0
-3.98358e-08 0 0
-4.0268e-08 0 0
-4.05225e-08 0 0
-4.06587e-08 0 0
-4.07216e-08 0 0
-4.07422e-08 0 0
-4.07406e-08 0 0
-4.07288e-08 0 0
-4.07136e-08 0 0
-4.06986e-08 0 0
-4.06854e-08 0 0
-4.06746e-08 0 0
-4.0666e-08 0 0
-4.06595e-08 0 0
-4.06546e-08 0 0
-4.06511e-08 0 0
-4.06487e-08 0 0
-4.06471e-08 0 0
-4.06461e-08 0 0
-4.06455e-08 0 0
-4.06453e-08 0 0
-4.06453e-08 0 0
-4.06456e-08 0 0
-4.0646e-08 0 0
-4.06466e-08 0 0
-4.06472e-08 0 0
-4.0649e-08 0 0
0.00208261 0 0
0 3.84456e-07 0
6.79033e-12 -9.47188e-09 0
1.7108e-08 -1.51039e-08 0
6.90313e-09 1.82141e-09 0
-6.12325e-08 -1.83118e-08 0
-6.61211e-09 -2.03482e-08 0
-7.3209e-09 2.53666e-08 0
-1.91666e-08 3.74588e-08 0
-2.25833e-08 2.84916e-08 0
-1.84716e-08 1.69771e-08 0
-1.34761e-08 1.29193e-08 0
-1.83741e-08 1.67861e-08 0
-3.47183e-08 1.92861e-08 0
-5.21506e-08 1.48833e-08 0
-6.1483e-08 7.02615e-09 0
-6.35989e-08 1.41478e-09 0
-6.43373e-08 -2.69186e-10 0
-6.72393e-08 3.29099e-10 0
-7.23431e-08 1.30384e-09 0
-7.82164e-08 1.80357e-09 0
-8.35867e-08 1.78384e-09 0
-8.78342e-08 1.47261e-09 0
-9.08673e-08 1.07891e-09 0
-9.28669e-08 7.20488e-10 0
-9.40945e-08 4.41478e-10 0
-9.47943e-08 2.45123e-10 0
-9.5157e-08 1.17558e-10 0
-9.5318e-08 4.08324e-11 0
-9.53662e-08 -1.29865e-12 0
-9.5357e-08 -2.14795e-11 0
-9.53227e-08 -2.86883e-11 0
-9.52812e-08 -2.88693e-11 0
-9.52412e-08 -2.57153e-11 0
-9.52065e-08 -2.13697e-11 0
-9.51783e-08 -1.69749e-11 0
-9.51562e-08 -1.30635e-11 0
-9.51394e-08 -9.82083e-12 0
-9.5127e-08 -7.25039e-12 0
-9.51181e-08 -5.27296e-12 0
-9.51118e-08 -3.78175e-12 0
-9.51075e-08 -2.67063e-12 0
-9.51048e-08 -1.84711e-12 0
-9.51032e-08 -1.235e-12 0
-9.51025e-08 -7.71023e-13 0
-9.51025e-08 -4.07672e-13 0
-9.5103e-08 -1.04023e-13 0
-9.51041e-08 2.17842e-13 0
-9.51059e-08 6.49988e-13 0
-9.51087e-08 1.92535e-12 0
-9.51141e-08 6.66039e-12 0
0.00591799 -6.13397e-08 0
0 -2.24431e-08 0
3.9391e-12 -7.96513e-09 0
2.13251e-08 -2.53615e-08 0
3.50485e-08 -4.46621e-08 0
1.1133e-08 -9.53218e-08 0
6.05915e-08 -7.56465e-08 0
3.28498e-08 3.65376e-09 0
-4.38187e-09 1.84076e-08 0
-3.51041e-08 1.28148e-08 0
-4.06617e-08 1.21572e-08 0
-3.28994e-08 1.26637e-08 0
-2.992e-08 1.09907e-08 0
-4.04734e-08 9.59402e-09 0
-5.49148e-08 1.13364e-08 0
-6.16975e-08 1.54508e-08 0
-6.13167e-08 1.89867e-08 0
-6.00608e-08 2.00492e-08 0
-6.17897e-08 1.86811e-08 0
-6.65079e-08 1.5803e-08 0
-7.24757e-08 1.23572e-08 0
-7.8081e-08 9.03151e-09 0
-8.2498e-08 6.21424e-09 0
-8.55755e-08 4.03971e-09 0
-8.75168e-08 2.47797e-09 0
-8.86303e-08 1.42175e-09 0
-8.91997e-08 7.4557e-10 0
-8.94408e-08 3.3627e-10 0
-8.95002e-08 1.04133e-10 0
-8.94694e-08 -1.63733e-11 0
-8.94017e-08 -7.02653e-11 0
-8.93257e-08 -8.68847e-11 0
-8.92551e-08 -8.44211e-11 0
-8.91954e-08 -7.35613e-11 0
-8.91474e-08 -6.01911e-11 0
-8.91103e-08 -4.72711e-11 0
-8.90823e-08 -3.60716e-11 0
-8.90617e-08 -2.69482e-11 0
-8.90467e-08 -1.98054e-11 0
-8.9036e-08 -1.43602e-11 0
-8.90285e-08 -1.02818e-11 0
-8.90235e-08 -7.25839e-12 0
-8.90202e-08 -5.02308e-12 0
-8.90183e-08 -3.35934e-12 0
-8.90175e-08 -2.08693e-12 0
-8.90174e-08 -1.0392e-12 0
-8.90181e-08 -5.3491e-14 0
-8.90196e-08 1.21223e-12 0
-8.90222e-08 3.58721e-12 0
-8.90254e-08 7.64914e-12 0
-8.90303e-08 1.31977e-11 0
0.00832626 -1.22313e-07 0
0 -6.31323e-07 0
8.86946e-12 -1.24333e-08 0
2.60474e-08 -4.23884e-08 0
4.69952e-08 -7.9935e-08 0
1.52038e-08 -1.07206e-07 0
5.1658e-08 -5.72675e-08 0
3.00176e-08 -4.94652e-11 0
3.44523e-09 -6.00827e-09 0
-4.53435e-08 -2.33788e-08 0
-5.75583e-08 -4.03606e-08 0
-4.99895e-08 -4.69918e-08 0
-5.2222e-08 -3.95628e-08 0
-6.74504e-08 -1.59296e-08 0
-8.35304e-08 1.17766e-08 0
-8.78684e-08 2.99258e-08 0
-8.07603e-08 3.5569e-08 0
-6.91454e-08 3.30982e-08 0
-5.9323e-08 2.75056e-08 0
-5.37907e-08 2.14191e-08 0
-5.18988e-08 1.5784e-08 0
-5.19355e-08 1.09697e-08 0
-5.25388e-08 7.14929e-09 0
-5.30372e-08 4.33345e-09 0
-5.32507e-08 2.40029e-09 0
-5.32229e-08 1.16164e-09 0
-5.30541e-08 4.23609e-10 0
-5.28299e-08 2.08937e-11 0
-5.26047e-08 -1.71875e-10 0
-5.24059e-08 -2.42116e-10 0
-5.22431e-08 -2.46746e-10 0
-5.21161e-08 -2.20538e-10 0
-5.20203e-08 -1.83337e-10 0
-5.19496e-08 -1.45541e-10 0
-5.18982e-08 -1.11921e-10 0
-5.18614e-08 -8.4108e-11 0
-5.18352e-08 -6.21259e-11 0
-5.18167e-08 -4.52825e-11 0
-5.18038e-08 -3.26541e-11 0
-5.17949e-08 -2.33284e-11 0
-5.17889e-08 -1.65081e-11 0
-5.1785e-08 -1.15411e-11 0
-5.17826e-08 -7.91205e-12 0
-5.17813e-08 -5.21552e-12 0
-5.17808e-08 -3.1292e-12 0
-5.1781e-08 -1.34603e-12 0
-5.17819e-08 5.43653e-13 0
-5.17831e-08 2.91713e-12 0
-5.17844e-08 5.73737e-12 0
-5.17848e-08 8.69166e-12 0
-5.17854e-08 1.15688e-11 0
0.00918524 -1.18132e-07 0
0 -1.22073e-06 0
-1.34355e-12 -2.18374e-08 0
1.12814e-08 -5.84102e-08 0
1.25072e-08 -7.40692e-08 0
-2.04814e-08 -5.75543e-08 0
-2.14926e-11 -2.00951e-08 0
-1.90615e-11 -1.3852e-10 0
8.77003e-11 -1.25564e-10 0
-2.28498e-08 -2.42476e-08 0
-6.50502e-08 -6.39496e-08 0
-7.69759e-08 -7.64948e-08 0
-8.38006e-08 -5.72797e-08 0
-9.84197e-08 -1.85919e-08 0
-1.1014e-07 1.85268e-08 0
-1.1206e-07 3.69563e-08 0
-1.02723e-07 3.75644e-08 0
-8.53277e-08 2.9748e-08 0
-6.6621e-08 2.1185e-08 0
-5.19089e-08 1.44564e-08 0
-4.2477e-08 9.43324e-09 0
-3.70489e-08 5.64852e-09 0
-3.39348e-08 2.88896e-09 0
-3.19913e-08 1.03265e-09 0
-3.06464e-08 -8.24206e-11 0
-2.96574e-08 -6.53906e-10 0
-2.89208e-08 -8.69961e-10 0
-2.83797e-08 -8.79748e-10 0
-2.79909e-08 -7.86743e-10 0
-2.77178e-08 -6.55209e-10 0
-2.75297e-08 -5.20846e-10 0
-2.74021e-08 -4.00778e-10 0
-2.73164e-08 -3.01162e-10 0
-2.72592e-08 -2.22331e-10 0
-2.72212e-08 -1.61936e-10 0
-2.7196e-08 -1.16729e-10 0
-2.71792e-08 -8.34636e-11 0
-2.71681e-08 -5.9294e-11 0
-2.71607e-08 -4.18929e-11 0
-2.71559e-08 -2.94406e-11 0
-2.71529e-08 -2.05541e-11 0
-2.7151e-08 -1.42021e-11 0
-2.71501e-08 -9.62383e-12 0
-2.71498e-08 -6.24786e-12 0
-2.715e-08 -3.61516e-12 0
-2.71504e-08 -1.38029e-12 0
-2.71508e-08 6.05389e-13 0
-2.71509e-08 2.30284e-12 0
-2.71504e-08 3.60887e-12 0
-2.7149e-08 4.61394e-12 0
-2.71482e-08 5.91618e-12 0
0.00943914 -6.51441e-08 0
0 -1.09708e-06 0
-1.56956e-11 -2.32686e-08 0
-2.9185e-09 -4.85496e-08 0
-9.42177e-09 -5.82358e-08 0
-3.82594e-08 -6.56592e-08 0
-2.99896e-08 -3.27123e-08 0
-5.5014e-11 3.95127e-11 0
4.85485e-11 -4.85485e-11 0
6.45489e-11 -1.1117e-10 0
-3.49789e-08 -3.45676e-08 0
-8.82299e-08 -7.94954e-08 0
-9.09603e-08 -6.85271e-08 0
-9.47007e-08 -2.01298e-08 0
-9.97679e-08 2.37763e-08 0
-1.0661e-07 4.29512e-08 0
-1.07471e-07 3.84974e-08 0
-9.55669e-08 2.40252e-08 0
-7.52999e-08 1.11791e-08 0
-5.5618e-08 3.32505e-09 0
-4.13372e-08 -7.91618e-10 0
-3.25121e-08 -2.82838e-09 0
-2.74072e-08 -3.69127e-09 0
-2.44495e-08 -3.8238e-09 0
-2.26775e-08 -3.5158e-09 0
-2.15826e-08 -2.99132e-09 0
-2.08973e-08 -2.40956e-09 0
-2.04705e-08 -1.86527e-09 0
-2.02089e-08 -1.40232e-09 0
-2.0052e-08 -1.03178e-09 0
-1.99604e-08 -7.47171e-10 0
-1.99085e-08 -5.34777e-10 0
-1.988e-08 -3.79489e-10 0
-1.98651e-08 -2.67609e-10 0
-1.98576e-08 -1.87851e-10 0
-1.98543e-08 -1.31424e-10 0
-1.9853e-08 -9.17198e-11 0
-1.98528e-08 -6.38851e-11 0
-1.98531e-08 -4.44138e-11 0
-1.98537e-08 -3.08002e-11 0
-1.98543e-08 -2.12669e-11 0
-1.98551e-08 -1.45576e-11 0
-1.98558e-08 -9.78269e-12 0
-1.98567e-08 -6.32395e-12 0
-1.98574e-08 -3.78719e-12 0
-1.98579e-08 -1.94962e-12 0
-1.98582e-08 -6.74516e-13 0
-1.9858e-08 1.34516e-13 0
-1.98576e-08 4.88494e-13 0
-1.98567e-08 3.88809e-13 0
-1.98564e-08 3.75359e-13 0
0.00948956 6.78458e-09 0
0 -7.62711e-07 0
-8.93604e-12 -1.61853e-08 0
-3.62507e-09 -4.04716e-08 0
-9.70048e-09 -5.01296e-08 0
-5.28415e-08 -4.59051e-08 0
-7.20092e-08 -2.42022e-08 0
-2.63396e-08 -4.13639e-09 0
-4.60512e-11 3.29027e-11 0
3.18121e-11 -3.18121e-11 0
3.49367e-11 -9.45723e-11 0
-3.97352e-08 -4.47074e-08 0
-5.92234e-08 -6.792e-08 0
-6.24725e-08 -1.62092e-08 0
-6.13294e-08 3.32611e-08 0
-7.05396e-08 5.35445e-08 0
-8.49645e-08 4.37269e-08 0
-8.76766e-08 2.11143e-08 0
-7.52256e-08 2.33641e-09 0
-5.74445e-08 -7.60401e-09 0
-4.29728e-08 -1.10271e-08 0
-3.40874e-08 -1.11031e-08 0
-2.95197e-08 -9.75709e-09 0
-2.74661e-08 -7.94655e-09 0
-2.66711e-08 -6.14473e-09 0
-2.64483e-08 -4.57453e-09 0
-2.64634e-08 -3.31218e-09 0
-2.65629e-08 -2.35099e-09 0
-2.66799e-08 -1.64606e-09 0
-2.67877e-08 -1.1422e-09 0
-2.68773e-08 -7.88227e-10 0
-2.6948e-08 -5.42297e-10 0
-2.70018e-08 -3.7258e-10 0
-2.7042e-08 -2.5589e-10 0
-2.70714e-08 -1.75797e-10 0
-2.70927e-08 -1.20847e-10 0
-2.7108e-08 -8.31313e-11 0
-2.7119e-08 -5.72207e-11 0
-2.71268e-08 -3.93926e-11 0
-2.71324e-08 -2.7097e-11 0
-2.71364e-08 -1.8587e-11 0
-2.71395e-08 -1.26703e-11 0
-2.71418e-08 -8.54301e-12 0
-2.71436e-08 -5.67072e-12 0
-2.7145e-08 -3.69843e-12 0
-2.7146e-08 -2.39416e-12 0
-2.71468e-08 -1.6208e-12 0
-2.71472e-08 -1.33345e-12 0
-2.71476e-08 -1.66502e-12 0
-2.71475e-08 -2.92176e-12 0
-2.71478e-08 -4.8792e-12 0
0.0094391 7.6125e-08 0
0 -5.35435e-07 0
4.7525e-14 -1.25719e-08 0
-2.92056e-09 -3.07363e-08 0
-1.57266e-08 -3.74955e-08 0
-5.51508e-08 -2.94175e-08 0
-8.51753e-08 -9.91071e-09 0
-6.76253e-08 -2.488e-09 0
-3.28779e-08 -2.66647e-09 0
-5.33934e-11 1.27232e-11 0
3.0412e-11 -1.42467e-11 0
1.27744e-11 -2.27131e-08 0
-4.28728e-08 -3.1615e-08 0
-6.26798e-08 4.49863e-09 0
-4.76339e-08 4.10899e-08 0
-3.10556e-08 5.43727e-08 0
-3.80728e-08 4.16915e-08 0
-5.44114e-08 1.74762e-08 0
-6.05215e-08 -2.49577e-09 0
-5.63497e-08 -1.26063e-08 0
-5.0165e-08 -1.51182e-08 0
-4.64983e-08 -1.37969e-08 0
-4.55685e-08 -1.11433e-08 0
-4.61804e-08 -8.39262e-09 0
-4.73205e-08 -6.04451e-09 0
-4.84567e-08 -4.22809e-09 0
-4.93935e-08 -2.90398e-09 0
-5.01011e-08 -1.97401e-09 0
-5.06114e-08 -1.33544e-09 0
-5.09705e-08 -9.02412e-10 0
-5.12199e-08 -6.1044e-10 0
-5.13921e-08 -4.13835e-10 0
-5.15106e-08 -2.81278e-10 0
-5.15922e-08 -1.91672e-10 0
-5.16484e-08 -1.30916e-10 0
-5.16871e-08 -8.95962e-11 0
-5.17137e-08 -6.14167e-11 0
-5.17322e-08 -4.21499e-11 0
-5.17449e-08 -2.89442e-11 0
-5.17539e-08 -1.98703e-11 0
-5.17601e-08 -1.36214e-11 0
-5.17646e-08 -9.31278e-12 0
-5.1768e-08 -6.34609e-12 0
-5.17705e-08 -4.31995e-12 0
-5.17725e-08 -2.9752e-12 0
-5.17741e-08 -2.16282e-12 0
-5.17754e-08 -1.83239e-12 0
-5.17765e-08 -2.02541e-12 0
-5.17775e-08 -2.96989e-12 0
-5.17783e-08 -5.3834e-12 0
-5.17796e-08 -9.73511e-12 0
0.00918517 1.20583e-07 0
0 -4.58534e-07 0
4.54128e-12 -7.17787e-09 0
-3.46409e-09 -1.94672e-08 0
-2.47777e-08 -2.63059e-08 0
-6.68269e-08 -2.12648e-08 0
-9.7793e-08 -1.01398e-09 0
-8.87823e-08 7.44782e-09 0
-7.19339e-08 -2.03981e-08 0
-4.45041e-08 -2.16113e-08 0
-3.90483e-08 5.29661e-13 0
-4.29158e-08 4.43945e-09 0
-8.39073e-08 1.87876e-08 0
-1.07221e-07 3.08078e-08 0
-7.36793e-08 2.9846e-08 0
-2.45279e-08 2.18091e-08 0
-1.56177e-08 1.17192e-08 0
-4.02779e-08 2.47031e-09 0
-6.38579e-08 -3.97375e-09 0
-7.38998e-08 -6.96012e-09 0
-7.63494e-08 -7.35547e-09 0
-7.74674e-08 -6.46583e-09 0
-7.91826e-08 -5.17874e-09 0
-8.12925e-08 -3.92177e-09 0
-8.32991e-08 -2.86179e-09 0
-8.49419e-08 -2.03775e-09 0
-8.61764e-08 -1.42908e-09 0
-8.70597e-08 -9.9364e-10 0
-8.76748e-08 -6.87902e-10 0
-8.80971e-08 -4.75361e-10 0
-8.83855e-08 -3.28287e-10 0
-8.8582e-08 -2.26687e-10 0
-8.87161e-08 -1.56525e-10 0
-8.88078e-08 -1.08067e-10 0
-8.88706e-08 -7.45941e-11 0
-8.89137e-08 -5.14728e-11 0
-8.89433e-08 -3.55045e-11 0
-8.89637e-08 -2.44783e-11 0
-8.89778e-08 -1.68655e-11 0
-8.89875e-08 -1.16092e-11 0
-8.89944e-08 -7.98026e-12 0
-8.89993e-08 -5.47796e-12 0
-8.9003e-08 -3.76265e-12 0
-8.90058e-08 -2.61119e-12 0
-8.9008e-08 -1.88868e-12 0
-8.90099e-08 -1.52821e-12 0
-8.90116e-08 -1.53679e-12 0
-8.90132e-08 -2.01855e-12 0
-8.9015e-08 -3.20679e-12 0
-8.90171e-08 -5.98849e-12 0
-8.90209e-08 -1.15139e-11 0
0.00832622 1.12626e-07 0
0 -4.75979e-07 0
1.22943e-11 -2.17798e-09 0
-4.76794e-09 -7.49885e-09 0
-3.09731e-08 -1.15078e-08 0
-7.14142e-08 -9.91191e-09 0
-1.01111e-07 -5.01934e-09 0
-9.55874e-08 -1.60056e-09 0
-8.18282e-08 -1.07903e-08 0
-9.47705e-08 -1.21487e-08 0
-8.7784e-08 5.99409e-09 0
-7.76084e-08 2.25091e-08 0
-7.61024e-08 3.10338e-08 0
-7.15337e-08 2.64471e-08 0
-4.28775e-08 1.06374e-08 0
-1.43177e-08 -7.85303e-09 0
-2.08239e-08 -1.86199e-08 0
-5.17882e-08 -1.7116e-08 0
-7.76381e-08 -8.87872e-09 0
-8.84688e-08 -1.84906e-09 0
-9.04406e-08 1.18316e-09 0
-9.01483e-08 1.51133e-09 0
-9.01591e-08 9.15988e-10 0
-9.07464e-08 3.13162e-10 0
-9.15958e-08 -5.3805e-11 0
-9.24395e-08 -2.13545e-10 0
-9.31523e-08 -2.49383e-10 0
-9.37057e-08 -2.27134e-10 0
-9.4115e-08 -1.85225e-10 0
-9.44094e-08 -1.42203e-10 0
-9.46177e-08 -1.05294e-10 0
-9.47638e-08 -7.61981e-11 0
-9.48656e-08 -5.43154e-11 0
-9.49364e-08 -3.83188e-11 0
-9.49854e-08 -2.6836e-11 0
-9.50194e-08 -1.86936e-11 0
-9.50428e-08 -1.2969e-11 0
-9.5059e-08 -8.969e-12 0
-9.50703e-08 -6.18619e-12 0
-9.50781e-08 -4.25625e-12 0
-9.50836e-08 -2.9216e-12 0
-9.50875e-08 -2.00326e-12 0
-9.50905e-08 -1.37984e-12 0
-9.50929e-08 -9.73429e-13 0
-9.50949e-08 -7.41113e-13 0
-9.50967e-08 -6.67645e-13 0
-9.50985e-08 -7.74099e-13 0
-9.51005e-08 -1.1416e-12 0
-9.51028e-08 -1.86604e-12 0
-9.5106e-08 -3.29276e-12 0
-9.51121e-08 -6.38576e-12 0
0.00591801 4.87933e-08 0
0 0 0
8.43587e-12 0 0
-2.6417e-09 0 0
-1.55239e-08 0 0
-3.32347e-08 0 0
-4.64518e-08 0 0
-4.80984e-08 0 0
-4.27657e-08 0 0
-5.02867e-08 0 0
-4.87403e-08 0 0
-3.468e-08 0 0
-1.72608e-08 0 0
-5.12317e-09 0 0
2.45355e-09 0 0
1.70929e-09 0 0
-1.09588e-08 0 0
-2.77305e-08 0 0
-3.88782e-08 0 0
-4.26144e-08 0 0
-4.23286e-08 0 0
-4.1098e-08 0 0
-4.01947e-08 0 0
-3.97976e-08 0 0
-3.97422e-08 0 0
-3.98503e-08 0 0
-4.00088e-08 0 0
-4.01624e-08 0 0
-4.02906e-08 0 0
-4.03898e-08 0 0
-4.04634e-08 0 0
-4.05167e-08 0 0
-4.05546e-08 0 0
-4.05814e-08 0 0
-4.06001e-08 0 0
-4.06131e-08 0 0
-4.06221e-08 0 0
-4.06284e-08 0 0
-4.06327e-08 0 0
-4.06357e-08 0 0
-4.06378e-08 0 0
-4.06394e-08 0 0
-4.06406e-08 0 0
-4.06416e-08 0 0
-4.06424e-08 0 0
-4.06433e-08 0 0
-4.06441e-08 0 0
-4.06451e-08 0 0
-4.06464e-08 0 0
-4.06481e-08 0 0
-4.06513e-08 0 0
0.00208264 0 0
0 0 5.30839e-07
8.24198e-12 0 -2.00838e-10
1.99182e-08 0 1.48876e-08
1.77115e-08 0 5.64554e-08
-1.26773e-07 0 3.40844e-08
-4.56168e-08 0 -1.80681e-08
-2.02411e-08 0 -2.95699e-08
-3.87137e-09 0 -3.76635e-08
1.10887e-08 0 -3.45302e-08
2.81348e-08 0 -2.4862e-08
4.25695e-08 0 -1.17939e-08
4.10546e-08 0 -1.49632e-09
1.9984e-08 0 2.64454e-09
-9.89454e-09 0 1.96116e-09
-3.49288e-08 0 -2.30658e-10
-5.0364e-08 0 -1.45714e-09
-5.9606e-08 0 -1.22681e-09
-6.70079e-08 0 -3.09269e-10
-7.42979e-08 0 5.01792e-10
-8.12467e-08 0 8.99515e-10
-8.71883e-08 0 9.38817e-10
-9.17678e-08 0 7.86065e-10
-9.50085e-08 0 5.78059e-10
-9.7144e-08 0 3.88765e-10
-9.84627e-08 0 2.44077e-10
-9.92233e-08 0 1.44374e-10
-9.96262e-08 0 8.0459e-11
-9.98126e-08 0 4.17701e-11
-9.98764e-08 0 1.95435e-11
-9.9876e-08 0 7.46537e-12
-9.98464e-08 0 1.35052e-12
-9.98069e-08 0 -1.42077e-12
-9.97674e-08 0 -2.41571e-12
-9.97326e-08 0 -2.53353e-12
-9.97038e-08 0 -2.26787e-12
-9.96812e-08 0 -1.87538e-12
-9.96638e-08 0 -1.47944e-12
-9.96509e-08 0 -1.13171e-12
-9.96416e-08 0 -8.47212e-13
-9.96349e-08 0 -6.23509e-13
-9.96304e-08 0 -4.50804e-13
-9.96275e-08 0 -3.17546e-13
-9.96258e-08 0 -2.11744e-13
-9.9625e-08 0 -1.18131e-13
-9.96248e-08 0 -2.42566e-14
-9.96252e-08 0 8.00463e-14
-9.96262e-08 0 2.22865e-13
-9.96278e-08 0 3.31324e-13
-9.96302e-08 0 7.38619e-13
-9.96354e-08 0 3.88427e-12
0.0058796 0 -1.99924e-08
0.0036 -3.00751e-07 -5.91191e-08
0.00359981 -0.00133616 1.2689e-07
0.00673715 -0.00382787 8.88355e-05
0.0135919 -0.00614455 -0.00079587
0.0237609 -0.0143678 -0.004545
0.0461231 -0.012837 -0.00493341
0.0495386 -0.00165896 -0.00168754
0.0492674 0.00281607 -0.000198043
0.0441931 0.00509872 0.000525204
0.0384861 0.005263 0.000498959
0.0333185 0.0046003 0.000226791
0.0290352 0.00365794 -5.8868e-05
0.0256921 0.00265982 -0.000266515
0.0231877 0.00177859 -0.000349215
0.0213579 0.00112782 -0.000314057
0.0200419 0.000712455 -0.000217486
0.0191105 0.000464631 -0.000120147
0.0184648 0.000312724 -5.2079e-05
0.0180288 0.000212136 -1.49137e-05
0.0177431 0.000141729 1.17989e-06
0.017562 9.2037e-05 6.06753e-06
0.017451 5.77502e-05 6.15432e-06
0.0173853 3.48918e-05 4.73601e-06
0.0173481 2.0202e-05 3.20316e-06
0.017328 1.1102e-05 1.99924e-06
0.0173178 5.67432e-06 1.17487e-06
0.0173133 2.57111e-06 6.54274e-07
0.0173117 8.87619e-07 3.43948e-07
0.0173116 3.97912e-08 1.67698e-07
0.0173122 -3.36405e-07 7.22771e-08
0.0173129 -4.60233e-07 2.34665e-08
0.0173137 -4.5907e-07 4.36227e-10
0.0173143 -4.03856e-07 -8.97198e-09
0.0173148 -3.31988e-07 -1.1593e-08
0.0173153 -2.61642e-07 -1.11232e-08
0.0173156 -2.00439e-07 -9.47207e-09
0.0173158 -1.50525e-07 -7.565e-09
0.017316 -1.11447e-07 -5.80595e-09
0.0173161 -8.17038e-08 -4.33493e-09
0.0173162 -5.95414e-08 -3.16771e-09
0.0173163 -4.33242e-08 -2.27364e-09
0.0173163 -3.16847e-08 -1.61924e-09
0.0173164 -2.35483e-08 -1.17496e-09
0.0173164 -1.81383e-08 -9.37175e-10
0.0173164 -1.49811e-08 -9.53492e-10
0.0173164 -1.37154e-08 -1.0721e-09
0.0173165 -1.43947e-08 -9.44055e-10
0.0173165 -1.75775e-08 1.45389e-09
0.0173166 -3.32136e-08 4.33428e-09
0.0173167 -1.16105e-07 -3.14972e-08
0.0173169 -1.85672e-07 -6.79874e-08
0.01 -1.39345e-07 -1.43299e-06
0.0100007 -0.00299109 -0.000560479
0.0148457 -0.00989289 -0.000742162
0.024136 -0.0177353 -0.00143409
0.0381971 -0.0320412 -0.00348275
0.058521 -0.0240895 -0.0008112
0.0558758 -0.00242749 0.00300955
0.0554239 0.005394 0.0031407
0.0496837 0.0104508 0.00271352
0.0441924 0.0105917 0.00181895
0.0397001 0.00943428 0.000892743
0.0359907 0.00787945 0.000150894
0.0329761 0.00624056 -0.000357799
0.0306377 0.00471566 -0.000580103
0.0288759 0.00342475 -0.000545407
0.0275868 0.0024083 -0.000382304
0.026675 0.00164892 -0.000213162
0.0260517 0.00110257 -9.41362e-05
0.0256406 0.000720079 -2.85068e-05
0.0253796 0.000458563 5.26077e-07
0.025221 0.000284125 9.88031e-06
0.0251291 0.000170835 1.06164e-05
0.0250789 9.92892e-05 8.48862e-06
0.0250535 5.53961e-05 5.97563e-06
0.0250422 2.92809e-05 3.91361e-06
0.0250383 1.42673e-05 2.44473e-06
0.0250381 5.98817e-06 1.47542e-06
0.0250395 1.67115e-06 8.66186e-07
0.0250414 -3.94065e-07 4.96337e-07
0.0250432 -1.23298e-06 2.77854e-07
0.0250448 -1.44204e-06 1.51781e-07
0.0250461 -1.35618e-06 8.06088e-08
0.0250472 -1.15531e-06 4.13134e-08
0.0250479 -9.30313e-07 2.01435e-08
0.0250485 -7.22694e-07 9.07117e-09
0.0250489 -5.47841e-07 3.50392e-09
0.0250492 -4.08192e-07 8.65423e-10
0.0250494 -3.00447e-07 -2.60621e-10
0.0250496 -2.19325e-07 -6.34781e-10
0.0250497 -1.59395e-07 -6.53412e-10
0.0250498 -1.15862e-07 -5.20905e-10
0.0250498 -8.48452e-08 -3.58337e-10
0.0250499 -6.33875e-08 -2.33564e-10
0.0250499 -4.93536e-08 -1.68109e-10
0.0250499 -4.15571e-08 -2.46818e-10
0.02505 -3.97468e-08 -4.38894e-11
0.02505 -4.58741e-08 1.44204e-09
0.02505 -7.27932e-08 5.00915e-09
0.0250501 -1.40952e-07 3.66468e-09
0.0250503 -2.75601e-07 -6.06986e-08
0.0250504 -3.63514e-07 -1.21353e-07
0.0148 -9.4893e-07 -1.71443e-06
0.0148023 -0.0052774 -0.00110854
0.0202771 -0.0162732 -0.00239202
0.0271777 -0.0283649 -0.00400856
0.0316889 -0.0453537 -0.00567274
0.030203 -0.0280038 -0.00124054
0.0265742 -1.19036e-05 0.00321237
0.026116 0.00719517 0.00331882
0.029922 0.0147912 0.00314587
0.0303827 0.0143596 0.00217106
0.0295466 0.0126274 0.0011858
0.0286201 0.0107454 0.00032636
0.0278645 0.00864237 -0.00024102
0.0274937 0.00650938 -0.000476893
0.0273972 0.00464993 -0.000444576
0.027438 0.00319256 -0.000293735
0.0275218 0.00213069 -0.000142131
0.0276019 0.0013908 -3.88887e-05
0.0276661 0.000887471 1.38317e-05
0.027717 0.000550976 3.1986e-05
0.027759 0.000330781 3.22432e-05
0.0277944 0.000190682 2.58019e-05
0.0278239 0.00010447 1.8394e-05
0.0278477 5.337e-05 1.22266e-05
0.0278663 2.43497e-05 7.75349e-06
0.0278802 8.71236e-06 4.75113e-06
0.0278904 8.79801e-07 2.83419e-06
0.0278977 -2.59377e-06 1.65289e-06
0.0279028 -3.76027e-06 9.44493e-07
0.0279064 -3.79611e-06 5.29128e-07
0.0279089 -3.34714e-06 2.9036e-07
0.0279106 -2.74878e-06 1.55642e-07
0.0279118 -2.16153e-06 8.10478e-08
0.0279126 -1.65149e-06 4.05825e-08
0.0279132 -1.23669e-06 1.91563e-08
0.0279135 -9.12823e-07 8.16121e-09
0.0279138 -6.66794e-07 2.76721e-09
0.027914 -4.83537e-07 3.0991e-10
0.0279141 -3.49082e-07 -6.52536e-10
0.0279142 -2.51696e-07 -8.81896e-10
0.0279143 -1.82089e-07 -7.72304e-10
0.0279143 -1.33212e-07 -5.35954e-10
0.0279143 -1.00001e-07 -2.8279e-10
0.0279144 -7.91017e-08 1.83967e-11
0.0279144 -6.87839e-08 4.84771e-10
0.0279144 -7.07627e-08 1.51033e-09
0.0279144 -9.09892e-08 3.40532e-09
0.0279145 -1.36571e-07 3.40334e-09
0.0279145 -2.12091e-07 -1.25511e-08
0.0279146 -3.05615e-07 -9.40848e-08
0.0279146 -3.53598e-07 -1.60841e-07
0.018 -1.92572e-06 -1.69277e-06
0.0180028 -0.00688491 -0.00188774
0.0206335 -0.0185813 -0.00490074
0.0205064 -0.0243412 -0.0063238
0.0159629 -0.0264786 -0.00754934
-1.53758e-06 -0.0138432 -0.00423958
9.68087e-05 2.72677e-05 8.78333e-07
-3.40057e-05 3.54582e-05 0.000606062
0.00677323 0.00433961 0.00130303
0.0140086 0.00994693 0.00123415
0.0174646 0.0109306 0.000807954
0.0191374 0.0098505 0.00024724
0.0207931 0.00791467 -0.00020587
0.0225206 0.00573033 -0.000383116
0.0241114 0.00388016 -0.000349147
0.0254496 0.00250978 -0.000226394
0.0264915 0.00157813 -9.93316e-05
0.0272475 0.000973802 -8.3025e-06
0.0277681 0.000586556 3.87005e-05
0.0281163 0.000338905 5.21732e-05
0.0283467 0.000183093 4.74231e-05
0.0284984 8.87292e-05 3.62595e-05
0.0285979 3.47875e-05 2.50659e-05
0.0286627 6.30014e-06 1.62195e-05
0.0287044 -7.05328e-06 1.00152e-05
0.0287309 -1.19944e-05 5.96844e-06
0.0287476 -1.26382e-05 3.4553e-06
0.0287581 -1.13512e-05 1.94991e-06
0.0287646 -9.40498e-06 1.07363e-06
0.0287685 -7.4257e-06 5.75897e-07
0.028771 -5.68126e-06 2.99523e-07
0.0287725 -4.25339e-06 1.49552e-07
0.0287735 -3.13562e-06 7.02387e-08
0.028774 -2.28579e-06 2.96163e-08
0.0287744 -1.65263e-06 9.71865e-09
0.0287746 -1.18768e-06 6.40177e-10
0.0287748 -8.49953e-07 -2.97525e-09
0.0287749 -6.06703e-07 -3.96059e-09
0.0287749 -4.32782e-07 -3.77192e-09
0.028775 -3.09355e-07 -3.12634e-09
0.028775 -2.22631e-07 -2.36065e-09
0.028775 -1.62733e-07 -1.62534e-09
0.0287751 -1.22806e-07 -9.42548e-10
0.0287751 -9.87597e-08 -2.55562e-10
0.0287751 -8.92007e-08 3.7616e-10
0.0287751 -9.39853e-08 6.6941e-10
0.0287751 -1.12188e-07 -3.42825e-10
0.0287751 -1.39265e-07 -6.00807e-09
0.0287751 -1.70748e-07 -3.34596e-08
0.028775 -1.95405e-07 -1.17789e-07
0.0287749 -2.03421e-07 -1.79323e-07
0.0196 -2.73173e-06 -2.569e-06
0.0196009 -0.00572669 -0.00274154
0.0190801 -0.0127922 -0.00643785
0.0160429 -0.0156974 -0.00666827
0.0110615 -0.0146483 -0.00669302
0.00184977 -0.00601914 -0.00496892
7.24448e-05 -6.65601e-05 -0.00124538
3.25544e-05 -3.25544e-05 -3.89466e-08
-3.33219e-05 3.46895e-05 0.00022045
0.00422521 0.00312064 0.000461975
0.00976442 0.00731813 0.000389049
0.0126663 0.00756927 5.68113e-05
0.0159019 0.00561227 -0.000291839
0.0190507 0.00356693 -0.000409627
0.0217596 0.00201116 -0.000377685
0.0239531 0.000986057 -0.000278369
0.0256295 0.000405022 -0.000157311
0.0268253 0.000119626 -5.23452e-05
0.0276261 -8.1401e-06 1.33281e-05
0.0281394 -6.23623e-05 4.00364e-05
0.0284602 -8.1694e-05 4.19233e-05
0.0286576 -8.2767e-05 3.33565e-05
0.0287776 -7.43059e-05 2.30609e-05
0.0288495 -6.18669e-05 1.46125e-05
0.0288919 -4.89184e-05 8.71857e-06
0.0289166 -3.72977e-05 4.96992e-06
0.0289306 -2.77136e-05 2.72616e-06
0.0289385 -2.02208e-05 1.44141e-06
0.0289428 -1.45671e-05 7.3176e-07
0.0289451 -1.04024e-05 3.52411e-07
0.0289464 -7.38412e-06 1.5642e-07
0.028947 -5.22085e-06 5.92336e-08
0.0289472 -3.68191e-06 1.37515e-08
0.0289474 -2.59254e-06 -5.55634e-09
0.0289474 -1.82395e-06 -1.21745e-08
0.0289474 -1.28289e-06 -1.30309e-08
0.0289474 -9.02625e-07 -1.15656e-08
0.0289473 -6.3579e-07 -9.40657e-09
0.0289473 -4.4894e-07 -7.26417e-09
0.0289473 -3.18575e-07 -5.39732e-09
0.0289473 -2.28275e-07 -3.85975e-09
0.0289473 -1.6673e-07 -2.64862e-09
0.0289473 -1.26397e-07 -1.75298e-09
0.0289473 -1.02171e-07 -1.24202e-09
0.0289473 -8.99587e-08 -1.52432e-09
0.0289473 -8.54518e-08 -3.03044e-09
0.0289472 -8.40009e-08 -6.52921e-09
0.0289472 -7.94724e-08 -1.44241e-08
0.0289471 -6.30984e-08 -4.42813e-08
0.0289471 -2.37435e-08 -1.24863e-07
0.0289469 3.22859e-09 -1.81087e-07
0.0196 -1.30246e-06 -3.53419e-06
0.0196 -0.00358245 -0.00310637
0.0188623 -0.00777499 -0.00647165
0.0176244 -0.00765385 -0.00608769
0.0134032 -0.00381958 -0.00560446
0.00933227 0.00287976 -0.0052177
0.00622686 0.00323934 -0.00292836
7.25691e-05 -6.05511e-05 -0.000596406
2.72291e-05 -2.72291e-05 -1.26484e-07
-3.26644e-05 3.39795e-05 7.39212e-05
0.00309809 0.00241931 0.000337438
0.00764958 0.0038345 0.000291967
0.0130259 0.00182756 -7.12688e-05
0.01767 0.000216839 -0.000247832
0.0212292 -0.000713297 -0.000312532
0.0238539 -0.00113046 -0.00030954
0.0257293 -0.0011598 -0.000240976
0.0269916 -0.000971049 -0.00013983
0.0277808 -0.0007278 -5.39306e-05
0.0282437 -0.000517489 -4.88824e-06
0.0285029 -0.000360392 1.3378e-05
0.0286429 -0.000248785 1.53089e-05
0.028716 -0.000170596 1.1592e-05
0.0287526 -0.0001162 7.33894e-06
0.0287699 -7.8689e-05 4.1587e-06
0.0287773 -5.30781e-05 2.16093e-06
0.0287798 -3.57443e-05 1.02951e-06
0.0287802 -2.40833e-05 4.36488e-07
0.0287796 -1.62617e-05 1.47427e-07
0.0287788 -1.10165e-05 1.84193e-08
0.028778 -7.49246e-06 -3.14056e-08
0.0287773 -5.11679e-06 -4.47125e-08
0.0287767 -3.50865e-06 -4.2814e-08
0.0287763 -2.41519e-06 -3.57572e-08
0.0287759 -1.66845e-06 -2.79263e-08
0.0287757 -1.15644e-06 -2.09954e-08
0.0287755 -8.04192e-07 -1.54178e-08
0.0287754 -5.61268e-07 -1.11464e-08
0.0287753 -3.93552e-07 -7.96542e-09
0.0287752 -2.77888e-07 -5.63442e-09
0.0287752 -1.98521e-07 -3.95634e-09
0.0287751 -1.44617e-07 -2.83337e-09
0.0287751 -1.08451e-07 -2.27558e-09
0.0287751 -8.41063e-08 -2.38014e-09
0.0287751 -6.65962e-08 -3.43542e-09
0.028775 -5.11207e-08 -5.48058e-09
0.028775 -3.24988e-08 -8.95777e-09
0.028775 -3.22945e-09 -1.61258e-08
0.0287749 5.19509e-08 -4.22001e-08
0.0287749 1.48581e-07 -1.1576e-07
0.0287748 2.08529e-07 -1.6818e-07
0.018 -8.44667e-07 -3.5018e-06
0.0180009 -0.0019218 -0.0030297
0.0183615 -0.00360961 -0.0061235
0.0184976 -0.00225155 -0.00532778
0.0175802 0.00105742 -0.00431203
0.0173655 0.00734321 -0.00395937
0.0180798 0.0126568 -0.00282421
0.0111433 0.00693387 -0.00134085
7.41187e-05 -4.69834e-05 -0.000394223
-2.58123e-05 -5.44504e-05 5.45261e-07
7.70094e-06 -0.000457193 0.0007573
0.00870127 -0.00243105 0.00114152
0.0163561 -0.00428129 0.000589089
0.0214691 -0.00438278 0.000314056
0.0245344 -0.00385417 0.000111
0.0262799 -0.00320103 -8.62582e-05
0.0272478 -0.00249212 -0.000199651
0.0277551 -0.00179026 -0.000198299
0.0279868 -0.00120024 -0.000136801
0.0280649 -0.000771386 -7.48793e-05
0.0280689 -0.000486561 -3.50994e-05
0.0280445 -0.000305206 -1.49814e-05
0.0280142 -0.000191465 -6.22506e-06
0.0279872 -0.000120438 -2.7378e-06
0.027966 -7.61172e-05 -1.37854e-06
0.0279504 -4.84276e-05 -8.08733e-07
0.0279393 -3.10675e-05 -5.25884e-07
0.0279315 -2.01185e-05 -3.56939e-07
0.0279262 -1.3157e-05 -2.43958e-07
0.0279225 -8.68821e-06 -1.65502e-07
0.02792 -5.78992e-06 -1.11088e-07
0.0279183 -3.89067e-06 -7.38815e-08
0.0279171 -2.63377e-06 -4.88298e-08
0.0279163 -1.79444e-06 -3.21727e-08
0.0279157 -1.22946e-06 -2.11928e-08
0.0279153 -8.4657e-07 -1.39903e-08
0.027915 -5.85641e-07 -9.27357e-09
0.0279148 -4.07087e-07 -6.1832e-09
0.0279147 -2.84589e-07 -4.1576e-09
0.0279146 -2.00462e-07 -2.83946e-09
0.0279145 -1.42639e-07 -2.02389e-09
0.0279145 -1.02672e-07 -1.63155e-09
0.0279145 -7.44006e-08 -1.64697e-09
0.0279144 -5.30058e-08 -2.08003e-09
0.0279144 -3.42376e-08 -3.09981e-09
0.0279144 -1.35951e-08 -4.62208e-09
0.0279143 1.45246e-08 -6.98106e-09
0.0279143 5.85372e-08 -1.20891e-08
0.0279143 1.3858e-07 -2.97165e-08
0.0279143 2.72889e-07 -9.19353e-08
0.0279143 3.54463e-07 -1.4012e-07
0.0148 -4.7516e-07 -3.09581e-06
0.0148015 -0.00096993 -0.00280113
0.0162842 -0.001436 -0.00540155
0.0179819 0.000308765 -0.00436414
0.0194988 0.0035325 -0.00322439
0.0213907 0.00753634 -0.00293894
0.0251961 0.0129375 -0.00236615
0.0284509 0.0195941 -0.00140303
0.0233295 0.0114358 -0.000270136
0.0237498 5.38138e-12 0.000646223
0.0269546 -0.00666194 0.00157423
0.0307543 -0.0131224 0.00212101
0.0318899 -0.0112732 0.00171401
0.0313438 -0.00808297 0.00132257
0.0301236 -0.00544634 0.000839523
0.0287996 -0.00361559 0.00029594
0.0276526 -0.00236356 -0.000102801
0.0267818 -0.00149092 -0.000249889
0.0261728 -0.000902881 -0.000223268
0.0257667 -0.000532739 -0.000144865
0.0255032 -0.000312368 -7.93681e-05
0.0253353 -0.000184513 -3.9477e-05
0.0252296 -0.000110512 -1.85949e-05
0.0251634 -6.7268e-05 -8.5155e-06
0.0251222 -4.16354e-05 -3.85549e-06
0.0250963 -2.61975e-05 -1.74343e-06
0.0250801 -1.6743e-05 -7.90702e-07
0.0250697 -1.08546e-05 -3.58733e-07
0.0250631 -7.12705e-06 -1.60883e-07
0.0250587 -4.73147e-06 -6.93944e-08
0.0250559 -3.17082e-06 -2.70117e-08
0.025054 -2.14194e-06 -7.68834e-09
0.0250527 -1.45666e-06 6.80025e-10
0.0250519 -9.9628e-07 3.84935e-09
0.0250513 -6.84745e-07 4.60922e-09
0.0250509 -4.7269e-07 4.32328e-09
0.0250506 -3.27674e-07 3.65201e-09
0.0250504 -2.28151e-07 2.9027e-09
0.0250503 -1.59648e-07 2.20365e-09
0.0250502 -1.12323e-07 1.5937e-09
0.0250501 -7.93533e-08 1.06488e-09
0.02505 -5.58594e-08 5.77059e-10
0.02505 -3.8145e-08 8.67163e-11
0.02505 -2.30971e-08 -4.47871e-10
0.02505 -7.66335e-09 -1.16985e-09
0.02505 1.16834e-08 -1.98152e-09
0.0250499 3.99802e-08 -3.01817e-09
0.02505 8.42591e-08 -5.67749e-09
0.02505 1.61222e-07 -1.47771e-08
0.0250501 2.84885e-07 -6.40803e-08
0.0250502 3.58731e-07 -1.06296e-07
0.01 -9.09807e-07 -2.78998e-06
0.0100007 -0.000598639 -0.00228708
0.0113981 -0.00060344 -0.00415413
0.0134464 0.000716717 -0.00301571
0.0161373 0.00268567 -0.00198021