# vtk DataFile Version 2.0
Tobias Weinzierl: CPU, Manycore and Cluster Computing
ASCII

DATASET STRUCTURED_POINTS
DIMENSIONS  51 11 6

ORIGIN 0 0 0 

SPACING 0.1 0.1 0.1 

POINT_DATA 3366

VECTORS velocity float
0 0 0
6.86555e-12 0 0
-3.82484e-08 0 0
-1.41769e-07 0 0
-2.42119e-07 0 0
-9.50833e-08 0 0
-3.76221e-08 0 0
-2.70025e-09 0 0
9.28338e-09 0 0
-1.77811e-08 0 0
-6.34413e-08 0 0
-9.97605e-08 0 0
-1.156e-07 0 0
-1.16143e-07 0 0
-1.11208e-07 0 0
-1.07237e-07 0 0
-1.0596e-07 0 0
-1.06642e-07 0 0
-1.08133e-07 0 0
-1.09667e-07 0 0
-1.10907e-07 0 0
-1.11784e-07 0 0
-1.12348e-07 0 0
-1.1268e-07 0 0
-1.12859e-07 0 0
-1.12942e-07 0 0
-1.12971e-07 0 0
-1.12973e-07 0 0
-1.12962e-07 0 0
-1.12947e-07 0 0
-1.12933e-07 0 0
-1.12921e-07 0 0
-1.12912e-07 0 0
-1.12906e-07 0 0
-1.12903e-07 0 0
-1.12902e-07 0 0
-1.12902e-07 0 0
-1.12903e-07 0 0
-1.12905e-07 0 0
-1.12908e-07 0 0
-1.12911e-07 0 0
-1.12914e-07 0 0
-1.12917e-07 0 0
-1.12919e-07 0 0
-1.12922e-07 0 0
-1.12925e-07 0 0
-1.12928e-07 0 0
-1.12932e-07 0 0
-1.12936e-07 0 0
-1.12946e-07 0 0
0.00238417 0 0
0 4.22708e-07 0
3.56434e-11 9.86467e-09 0
-6.15363e-08 3.61499e-08 0
-2.52607e-07 5.81709e-08 0
-4.02008e-07 3.79061e-08 0
-1.67049e-07 5.58389e-08 0
-1.04844e-07 1.0398e-07 0
-6.93141e-08 8.60083e-08 0
-2.91705e-08 6.32366e-08 0
-4.4142e-08 6.53475e-08 0
-1.04788e-07 6.21893e-08 0
-1.64641e-07 4.41401e-08 0
-1.95687e-07 2.06519e-08 0
-2.01738e-07 3.91356e-09 0
-1.9996e-07 -2.38652e-09 0
-2.01373e-07 -2.04716e-09 0
-2.07399e-07 5.57257e-11 0
-2.15444e-07 1.51221e-09 0
-2.23091e-07 1.96039e-09 0
-2.29184e-07 1.77317e-09 0
-2.3353e-07 1.34279e-09 0
-2.36388e-07 9.00494e-10 0
-2.38147e-07 5.42306e-10 0
-2.3916e-07 2.88051e-10 0
-2.39702e-07 1.24352e-10 0
-2.39963e-07 2.8213e-11 0
-2.40067e-07 -2.23095e-11 0
-2.4009e-07 -4.4436e-11 0
-2.40074e-07 -5.02712e-11 0
-2.40046e-07 -4.76682e-11 0
-2.40016e-07 -4.13741e-11 0
-2.3999e-07 -3.40518e-11 0
-2.39971e-07 -2.70573e-11 0
-2.39958e-07 -2.09771e-11 0
-2.39949e-07 -1.59749e-11 0
-2.39946e-07 -1.20034e-11 0
-2.39945e-07 -8.92558e-12 0
-2.39947e-07 -6.57966e-12 0
-2.39951e-07 -4.81125e-12 0
-2.39956e-07 -3.48636e-12 0
-2.39961e-07 -2.49463e-12 0
-2.39967e-07 -1.74732e-12 0
-2.39973e-07 -1.17335e-12 0
-2.39978e-07 -7.16692e-13 0
-2.39984e-07 -3.19958e-13 0
-2.39991e-07 1.22674e-13 0
-2.39997e-07 7.10197e-13 0
-2.40006e-07 1.63453e-12 0
-2.40019e-07 5.76148e-12 0
-2.40042e-07 2.11457e-11 0
0.00658883 -1.43077e-07 0
0 -1.06587e-09 0
6.53938e-11 1.11835e-08 0
-3.22229e-09 -5.05205e-09 0
-1.37589e-07 -9.16557e-08 0
-1.8797e-07 -1.51765e-07 0
-1.74902e-08 -2.24481e-08 0
-9.41672e-08 1.37678e-07 0
-1.2869e-07 1.17051e-07 0
-1.00663e-07 4.36801e-08 0
-7.5945e-08 1.2031e-08 0
-1.04652e-07 5.08457e-09 0
-1.46962e-07 1.73362e-08 0
-1.71597e-07 3.60068e-08 0
-1.7405e-07 4.56525e-08 0
-1.69549e-07 4.42736e-08 0
-1.70108e-07 3.74077e-08 0
-1.76979e-07 2.92031e-08 0
-1.86546e-07 2.14954e-08 0
-1.95565e-07 1.50212e-08 0
-2.02569e-07 1.00001e-08 0
-2.07386e-07 6.34982e-09 0
-2.10417e-07 3.83743e-09 0
-2.12185e-07 2.19053e-09 0
-2.13139e-07 1.16027e-09 0
-2.13604e-07 5.46435e-10 0
-2.13796e-07 2.00757e-10 0
-2.13846e-07 2.00187e-11 0
-2.13829e-07 -6.40182e-11 0
-2.13788e-07 -9.44391e-11 0
-2.13743e-07 -9.72594e-11 0
-2.13703e-07 -8.74682e-11 0
-2.13671e-07 -7.32377e-11 0
-2.13648e-07 -5.87001e-11 0
-2.13632e-07 -4.57022e-11 0
-2.13623e-07 -3.48669e-11 0
-2.13619e-07 -2.62098e-11 0
-2.13618e-07 -1.94817e-11 0
-2.1362e-07 -1.43482e-11 0
-2.13624e-07 -1.04772e-11 0
-2.13629e-07 -7.57482e-12 0
-2.13634e-07 -5.39549e-12 0
-2.1364e-07 -3.73731e-12 0
-2.13646e-07 -2.42685e-12 0
-2.13652e-07 -1.29894e-12 0
-2.13658e-07 -1.84395e-13 0
-2.13665e-07 1.22318e-12 0
-2.13672e-07 3.92153e-12 0
-2.13682e-07 9.76295e-12 0
-2.13692e-07 1.90603e-11 0
-2.1371e-07 3.10778e-11 0
0.00893957 -2.3002e-07 0
0 -6.15218e-07 0
6.75685e-11 -1.37622e-08 0
4.69922e-08 -8.39521e-08 0
-5.7151e-08 -2.20992e-07 0
-1.17843e-07 -2.95399e-07 0
5.44762e-08 -1.44679e-07 0
-2.69275e-08 -9.81874e-11 0
-6.20758e-08 -3.31596e-08 0
-1.30865e-07 -9.73919e-08 0
-1.38814e-07 -1.21725e-07 0
-1.66191e-07 -8.83727e-08 0
-2.03482e-07 -2.28163e-08 0
-2.1997e-07 3.99752e-08 0
-2.08955e-07 6.79444e-08 0
-1.84518e-07 6.73037e-08 0
-1.63572e-07 5.57188e-08 0
-1.52446e-07 4.2452e-08 0
-1.49094e-07 3.04454e-08 0
-1.49467e-07 2.06119e-08 0
-1.50797e-07 1.31801e-08 0
-1.51898e-07 7.9505e-09 0
-1.52508e-07 4.49407e-09 0
-1.52719e-07 2.33616e-09 0
-1.52692e-07 1.0629e-09 0
-1.52555e-07 3.57639e-10 0
-1.52388e-07 -1.90487e-12 0
-1.52231e-07 -1.62033e-10 0
-1.521e-07 -2.14011e-10 0
-1.51999e-07 -2.12016e-10 0
-1.51924e-07 -1.86611e-10 0
-1.51872e-07 -1.5402e-10 0
-1.51837e-07 -1.22154e-10 0
-1.51814e-07 -9.43389e-11 0
-1.51801e-07 -7.15172e-11 0
-1.51794e-07 -5.34941e-11 0
-1.51793e-07 -3.96153e-11 0
-1.51794e-07 -2.91096e-11 0
-1.51798e-07 -2.12478e-11 0
-1.51803e-07 -1.54039e-11 0
-1.51809e-07 -1.10668e-11 0
-1.51815e-07 -7.82708e-12 0
-1.51821e-07 -5.35618e-12 0
-1.51827e-07 -3.37873e-12 0
-1.51834e-07 -1.61297e-12 0
-1.5184e-07 3.35365e-13 0
-1.51845e-07 2.91308e-12 0
-1.51851e-07 6.1845e-12 0
-1.51857e-07 9.8909e-12 0
-1.51859e-07 1.44498e-11 0
-1.51866e-07 2.10166e-11 0
0.00958802 -1.95267e-07 0
0 -1.18022e-06 0
3.22683e-12 -4.94931e-08 0
2.20491e-08 -1.41365e-07 0
-9.27606e-08 -1.94992e-07 0
-1.99734e-07 -1.59562e-07 0
-3.70616e-11 -5.64847e-08 0
-1.00841e-10 -1.9618e-10 0
1.57499e-10 -1.75671e-10 0
-6.8657e-08 -7.51057e-08 0
-1.85434e-07 -1.55421e-07 0
-2.20172e-07 -1.1896e-07 0
-2.44727e-07 -2.98411e-08 0
-2.6088e-07 4.14075e-08 0
-2.53298e-07 6.47988e-08 0
-2.23914e-07 5.69813e-08 0
-1.89146e-07 4.30164e-08 0
-1.62478e-07 3.12211e-08 0
-1.46458e-07 2.16895e-08 0
-1.37843e-07 1.3992e-08 0
-1.33153e-07 8.19119e-09 0
-1.30345e-07 4.22484e-09 0
-1.28486e-07 1.76718e-09 0
-1.27188e-07 3.90651e-10 0
-1.26273e-07 -2.90126e-10 0
-1.25636e-07 -5.6248e-10 0
-1.25202e-07 -6.16498e-10 0
-1.24913e-07 -5.67207e-10 0
-1.24724e-07 -4.78896e-10 0
-1.24603e-07 -3.84495e-10 0
-1.24528e-07 -2.98901e-10 0
-1.24483e-07 -2.27348e-10 0
-1.24457e-07 -1.70308e-10 0
-1.24444e-07 -1.26198e-10 0
-1.24439e-07 -9.27773e-11 0
-1.24439e-07 -6.78107e-11 0
-1.24442e-07 -4.93432e-11 0
-1.24448e-07 -3.57748e-11 0
-1.24454e-07 -2.5847e-11 0
-1.24462e-07 -1.85933e-11 0
-1.24469e-07 -1.32811e-11 0
-1.24476e-07 -9.35636e-12 0
-1.24483e-07 -6.39026e-12 0
-1.2449e-07 -4.03727e-12 0
-1.24496e-07 -2.0442e-12 0
-1.24501e-07 -3.02399e-13 0
-1.24506e-07 1.19114e-12 0
-1.2451e-07 2.49505e-12 0
-1.24513e-07 3.84467e-12 0
-1.24514e-07 5.91082e-12 0
-1.2452e-07 9.61364e-12 0
0.0097268 -1.03435e-07 0
0 -1.05297e-06 0
-3.70459e-11 -5.2977e-08 0
-1.06011e-08 -1.17009e-07 0
-1.21563e-07 -1.57313e-07 0
-2.48492e-07 -1.79527e-07 0
-1.10715e-07 -8.62612e-08 0
-1.10841e-10 1.22532e-10 0
3.27379e-11 -3.27379e-11 0
1.3783e-10 -1.7586e-10 0
-9.62055e-08 -7.36418e-08 0
-1.9894e-07 -1.18946e-07 0
-2.06651e-07 -2.86606e-08 0
-2.39262e-07 5.90531e-08 0
-2.67634e-07 7.58558e-08 0
-2.59125e-07 5.16729e-08 0
-2.21574e-07 2.70424e-08 0
-1.82625e-07 1.29214e-08 0
-1.55604e-07 5.46525e-09 0
-1.39813e-07 1.11016e-09 0
-1.30971e-07 -1.40255e-09 0
-1.25899e-07 -2.57503e-09 0
-1.22881e-07 -2.8505e-09 0
-1.21048e-07 -2.63155e-09 0
-1.19933e-07 -2.20804e-09 0
-1.19263e-07 -1.7495e-09 0
-1.18867e-07 -1.33673e-09 0
-1.1864e-07 -9.97577e-10 0
-1.18514e-07 -7.33148e-10 0
-1.18448e-07 -5.335e-10 0
-1.18416e-07 -3.85785e-10 0
-1.18405e-07 -2.7789e-10 0
-1.18404e-07 -1.99714e-10 0
-1.1841e-07 -1.43352e-10 0
-1.18419e-07 -1.02836e-10 0
-1.18429e-07 -7.37561e-11 0
-1.18439e-07 -5.28957e-11 0
-1.1845e-07 -3.79285e-11 0
-1.1846e-07 -2.71786e-11 0
-1.1847e-07 -1.94411e-11 0
-1.1848e-07 -1.38495e-11 0
-1.18488e-07 -9.78115e-12 0
-1.18496e-07 -6.79811e-12 0
-1.18503e-07 -4.60811e-12 0
-1.18509e-07 -3.01585e-12 0
-1.18515e-07 -1.87243e-12 0
-1.1852e-07 -1.08066e-12 0
-1.18524e-07 -6.54575e-13 0
-1.18528e-07 -6.50354e-13 0
-1.18531e-07 -6.6825e-13 0
-1.18537e-07 1.40948e-13 0
0.00974738 3.66998e-09 0
0 -7.4029e-07 0
-2.15193e-11 -4.56626e-08 0
-1.49466e-08 -1.08973e-07 0
-1.22093e-07 -1.21113e-07 0
-2.697e-07 -1.00996e-07 0
-2.48705e-07 -5.88492e-08 0
-7.20885e-08 -1.56519e-08 0
-1.13728e-10 1.31735e-10 0
4.71936e-12 -4.71936e-12 0
9.29784e-11 -1.80446e-10 0
-8.1656e-08 -4.54926e-08 0
-9.27743e-08 -4.68304e-09 0
-1.45877e-07 1.12298e-07 0
-2.33171e-07 1.17034e-07 0
-2.73517e-07 5.8948e-08 0
-2.47841e-07 1.10091e-08 0
-2.00629e-07 -9.53408e-09 0
-1.64229e-07 -1.46206e-08 0
-1.4347e-07 -1.41622e-08 0
-1.33079e-07 -1.20227e-08 0
-1.28122e-07 -9.49629e-09 0
-1.25799e-07 -7.12782e-09 0
-1.24737e-07 -5.15866e-09 0
-1.24281e-07 -3.64378e-09 0
-1.24114e-07 -2.53631e-09 0
-1.24079e-07 -1.75236e-09 0
-1.24102e-07 -1.2079e-09 0
-1.24146e-07 -8.33439e-10 0
-1.24194e-07 -5.76807e-10 0
-1.24239e-07 -4.00825e-10 0
-1.24279e-07 -2.79779e-10 0
-1.24313e-07 -1.96154e-10 0
-1.24342e-07 -1.38095e-10 0
-1.24367e-07 -9.75835e-11 0
-1.24388e-07 -6.91809e-11 0
-1.24406e-07 -4.91789e-11 0
-1.24422e-07 -3.50349e-11 0
-1.24436e-07 -2.49947e-11 0
-1.24448e-07 -1.78424e-11 0
-1.24459e-07 -1.27331e-11 0
-1.24469e-07 -9.08034e-12 0
-1.24478e-07 -6.47635e-12 0
-1.24486e-07 -4.63738e-12 0
-1.24493e-07 -3.37631e-12 0
-1.24499e-07 -2.59303e-12 0
-1.24504e-07 -2.27902e-12 0
-1.24509e-07 -2.58638e-12 0
-1.24515e-07 -3.89292e-12 0
-1.24518e-07 -6.34476e-12 0
-1.24525e-07 -9.18489e-12 0
0.00972677 1.09352e-07 0
0 -5.23279e-07 0
-1.45564e-11 -3.97296e-08 0
-2.41602e-08 -9.17082e-08 0
-1.34643e-07 -9.38347e-08 0
-2.6253e-07 -5.48089e-08 0
-2.70448e-07 -1.70928e-08 0
-1.73318e-07 -2.81102e-08 0
-8.18482e-08 -2.39755e-08 0
-1.55737e-10 1.07514e-10 0
8.91314e-11 1.18938e-10 0
-3.43926e-11 -2.40194e-08 0
-4.18969e-08 4.74587e-08 0
-4.47475e-08 1.79064e-07 0
-1.12641e-07 1.69658e-07 0
-1.99659e-07 7.2462e-08 0
-2.25045e-07 -1.96335e-09 0
-2.02222e-07 -2.85936e-08 0
-1.74011e-07 -3.01734e-08 0
-1.57118e-07 -2.4415e-08 0
-1.5005e-07 -1.79147e-08 0
-1.48099e-07 -1.24761e-08 0
-1.48183e-07 -8.41408e-09 0
-1.48859e-07 -5.57172e-09 0
-1.49574e-07 -3.66144e-09 0
-1.50163e-07 -2.40635e-09 0
-1.50607e-07 -1.5897e-09 0
-1.50928e-07 -1.05872e-09 0
-1.51157e-07 -7.11727e-10 0
-1.51321e-07 -4.83053e-10 0
-1.51439e-07 -3.30843e-10 0
-1.51525e-07 -2.28475e-10 0
-1.51589e-07 -1.58937e-10 0
-1.51637e-07 -1.11265e-10 0
-1.51674e-07 -7.83125e-11 0
-1.51704e-07 -5.53698e-11 0
-1.51728e-07 -3.92962e-11 0
-1.51748e-07 -2.79744e-11 0
-1.51765e-07 -1.99642e-11 0
-1.51779e-07 -1.42777e-11 0
-1.51791e-07 -1.02332e-11 0
-1.51802e-07 -7.35875e-12 0
-1.51812e-07 -5.33084e-12 0
-1.5182e-07 -3.93766e-12 0
-1.51827e-07 -3.06039e-12 0
-1.51834e-07 -2.67072e-12 0
-1.5184e-07 -2.83046e-12 0
-1.51846e-07 -3.75315e-12 0
-1.51852e-07 -6.14023e-12 0
-1.51857e-07 -1.13345e-11 0
-1.51866e-07 -1.95522e-11 0
0.00958794 1.94833e-07 0
0 -4.60356e-07 0
-1.37839e-12 -2.96798e-08 0
-4.36265e-08 -7.14233e-08 0
-1.64654e-07 -7.34053e-08 0
-2.78429e-07 -3.90421e-08 0
-2.89528e-07 2.95179e-09 0
-2.17094e-07 -4.68983e-09 0
-1.6862e-07 -7.63958e-08 0
-8.7314e-08 -6.13767e-08 0
-9.44943e-08 -5.32522e-12 0
-1.96878e-07 3.22335e-08 0
-2.67151e-07 9.28295e-08 0
-1.38531e-07 1.40584e-07 0
-4.96108e-08 1.33062e-07 0
-1.1314e-07 6.79087e-08 0
-1.92702e-07 8.14876e-09 0
-2.14718e-07 -1.88352e-08 0
-2.09156e-07 -2.26297e-08 0
-2.03612e-07 -1.79185e-08 0
-2.02895e-07 -1.23422e-08 0
-2.04679e-07 -8.06582e-09 0
-2.06956e-07 -5.18582e-09 0
-2.08902e-07 -3.33753e-09 0
-2.10347e-07 -2.16845e-09 0
-2.11355e-07 -1.42713e-09 0
-2.12042e-07 -9.51853e-10 0
-2.12506e-07 -6.4273e-10 0
-2.12821e-07 -4.38712e-10 0
-2.13038e-07 -3.02237e-10 0
-2.1319e-07 -2.09858e-10 0
-2.13297e-07 -1.46686e-10 0
-2.13375e-07 -1.03109e-10 0
-2.13433e-07 -7.2824e-11 0
-2.13477e-07 -5.16417e-11 0
-2.13511e-07 -3.67451e-11 0
-2.13538e-07 -2.62203e-11 0
-2.1356e-07 -1.8755e-11 0
-2.13578e-07 -1.34431e-11 0
-2.13593e-07 -9.65535e-12 0
-2.13606e-07 -6.95383e-12 0
-2.13618e-07 -5.03576e-12 0
-2.13628e-07 -3.69729e-12 0
-2.13636e-07 -2.81203e-12 0
-2.13644e-07 -2.32163e-12 0
-2.13651e-07 -2.24876e-12 0
-2.13658e-07 -2.71982e-12 0
-2.13665e-07 -3.97166e-12 0
-2.13672e-07 -6.80553e-12 0
-2.1368e-07 -1.39882e-11 0
-2.13694e-07 -2.82122e-11 0
0.00893947 2.15867e-07 0
0 -4.85645e-07 0
8.18566e-12 -1.47601e-08 0
-6.14438e-08 -3.74349e-08 0
-1.79194e-07 -3.80858e-08 0
-2.71065e-07 -2.10571e-08 0
-2.93007e-07 -1.34523e-08 0
-2.47363e-07 -2.77147e-08 0
-2.15298e-07 -7.0619e-08 0
-2.37255e-07 -5.39353e-08 0
-2.21457e-07 6.2173e-08 0
-2.58504e-07 1.49568e-07 0
-2.4028e-07 1.0777e-07 0
-1.30599e-07 -7.32643e-09 0
-7.08785e-08 -7.3373e-08 0
-1.40666e-07 -6.59565e-08 0
-2.23835e-07 -2.59625e-08 0
-2.50082e-07 3.38707e-09 0
-2.45295e-07 1.13416e-08 0
-2.378e-07 8.60165e-09 0
-2.34525e-07 4.38516e-09 0
-2.34241e-07 1.60428e-09 0
-2.35144e-07 2.4482e-10 0
-2.36264e-07 -2.76834e-10 0
-2.37238e-07 -4.04287e-10 0
-2.37986e-07 -3.77673e-10 0
-2.38532e-07 -3.06377e-10 0
-2.3892e-07 -2.33419e-10 0
-2.39194e-07 -1.72399e-10 0
-2.39389e-07 -1.25335e-10 0
-2.39529e-07 -9.04037e-11 0
-2.3963e-07 -6.49679e-11 0
-2.39705e-07 -4.66217e-11 0
-2.39761e-07 -3.34477e-11 0
-2.39804e-07 -2.40047e-11 0
-2.39837e-07 -1.72383e-11 0
-2.39864e-07 -1.23879e-11 0
-2.39886e-07 -8.90864e-12 0
-2.39904e-07 -6.41121e-12 0
-2.3992e-07 -4.61867e-12 0
-2.39933e-07 -3.33511e-12 0
-2.39945e-07 -2.42419e-12 0
-2.39955e-07 -1.79508e-12 0
-2.39963e-07 -1.39398e-12 0
-2.39971e-07 -1.20336e-12 0
-2.39979e-07 -1.25254e-12 0
-2.39986e-07 -1.64891e-12 0
-2.39993e-07 -2.58911e-12 0
-2.40002e-07 -4.57273e-12 0
-2.40013e-07 -9.82293e-12 0
-2.40036e-07 -2.2246e-11 0
0.00658883 1.20964e-07 0
0 0 0
7.20678e-12 0 0
-3.27545e-08 0 0
-8.62912e-08 0 0
-1.23986e-07 0 0
-1.35899e-07 0 0
-1.31491e-07 0 0
-1.28538e-07 0 0
-1.49963e-07 0 0
-1.26968e-07 0 0
-6.16574e-08 0 0
-5.57585e-09 0 0
2.21915e-09 0 0
-3.55754e-08 0 0
-9.25995e-08 0 0
-1.28365e-07 0 0
-1.34009e-07 0 0
-1.26417e-07 0 0
-1.18665e-07 0 0
-1.14163e-07 0 0
-1.12228e-07 0 0
-1.11662e-07 0 0
-1.11675e-07 0 0
-1.11876e-07 0 0
-1.12101e-07 0 0
-1.12295e-07 0 0
-1.12447e-07 0 0
-1.12561e-07 0 0
-1.12645e-07 0 0
-1.12707e-07 0 0
-1.12753e-07 0 0
-1.12788e-07 0 0
-1.12814e-07 0 0
-1.12835e-07 0 0
-1.12851e-07 0 0
-1.12864e-07 0 0
-1.12874e-07 0 0
-1.12883e-07 0 0
-1.12891e-07 0 0
-1.12897e-07 0 0
-1.12903e-07 0 0
-1.12908e-07 0 0
-1.12912e-07 0 0
-1.12916e-07 0 0
-1.1292e-07 0 0
-1.12924e-07 0 0
-1.12928e-07 0 0
-1.12932e-07 0 0
-1.12939e-07 0 0
-1.12952e-07 0 0
0.00238421 0 0
0 0 5.42785e-07
5.85136e-11 0 2.83767e-08
-5.24535e-08 0 1.05623e-07
-2.69551e-07 0 1.45696e-07
-6.53009e-07 0 -8.46036e-08
-2.43309e-07 0 -2.60357e-07
-5.12172e-08 0 -1.96389e-07
7.13015e-08 0 -1.32938e-07
1.29341e-07 0 -4.81732e-08
1.04565e-07 0 7.36756e-09
2.48581e-08 0 1.9786e-08
-6.30694e-08 0 8.01454e-09
-1.28308e-07 0 -4.27787e-09
-1.65836e-07 0 -8.32023e-09
-1.85207e-07 0 -6.53947e-09
-1.97499e-07 0 -3.22364e-09
-2.08213e-07 0 -6.74285e-10
-2.18141e-07 0 6.37849e-10
-2.26584e-07 0 1.04162e-09
-2.33074e-07 0 9.78644e-10
-2.37658e-07 0 7.54007e-10
-2.40679e-07 0 5.2119e-10
-2.42554e-07 0 3.35847e-10
-2.4365e-07 0 2.05819e-10
-2.44249e-07 0 1.21309e-10
-2.44547e-07 0 6.91866e-11
-2.44675e-07 0 3.82803e-11
-2.44712e-07 0 2.05357e-11
-2.44704e-07 0 1.06372e-11
-2.4468e-07 0 5.26992e-12
-2.44651e-07 0 2.44844e-12
-2.44626e-07 0 1.01997e-12
-2.44607e-07 0 3.32808e-13
-2.44593e-07 0 2.76358e-14
-2.44584e-07 0 -8.8667e-14
-2.4458e-07 0 -1.16898e-13
-2.44579e-07 0 -1.07695e-13
-2.44581e-07 0 -8.49786e-14
-2.44584e-07 0 -5.86018e-14
-2.44589e-07 0 -3.09114e-14
-2.44594e-07 0 1.90346e-16
-2.44599e-07 0 4.07639e-14
-2.44605e-07 0 1.01508e-13
-2.44611e-07 0 1.96089e-13
-2.44617e-07 0 3.5085e-13
-2.44623e-07 0 6.32632e-13
-2.44629e-07 0 1.01038e-12
-2.44638e-07 0 1.28084e-12
-2.4465e-07 0 3.67375e-12
-2.44673e-07 0 1.63601e-11
0.00657105 0 -8.21634e-08
0.0036 -1.621e-07 3.37301e-08
0.00359981 -0.0012945 -2.25135e-05
0.00688863 -0.00407813 -0.000363495
0.0141075 -0.00734934 -0.00197072
0.0252392 -0.0140736 -0.00514335
0.0462288 -0.0111789 -0.00466321
0.0492008 -0.00100098 -0.00136464
0.0487163 0.00316714 0.000198341
0.0434851 0.00532336 0.000830236
0.0378192 0.00530508 0.000579757
0.0327819 0.00439346 8.08507e-05
0.0286009 0.00326218 -0.000283252
0.0253526 0.00223429 -0.000397622
0.0230049 0.00145216 -0.000330733
0.0214022 0.000926824 -0.00020675
0.020346 0.000593501 -0.000104342
0.0196671 0.000380959 -4.29404e-05
0.0192407 0.000242493 -1.31104e-05
0.0189792 0.000151734 -1.15194e-06
0.0188227 9.29265e-05 2.45654e-06
0.0187312 5.55992e-05 2.79734e-06
0.0186792 3.24545e-05 2.16276e-06
0.0186505 1.84404e-05 1.43136e-06
0.0186353 1.01547e-05 8.62822e-07
0.0186275 5.37584e-06 4.83798e-07
0.0186239 2.69375e-06 2.52693e-07
0.0186225 1.23628e-06 1.20745e-07
0.0186221 4.76571e-07 4.97789e-08
0.0186222 1.03584e-07 1.40928e-08
0.0186224 -6.21421e-08 -2.22309e-09
0.0186228 -1.21616e-07 -8.46352e-09
0.018623 -1.30106e-07 -9.81071e-09
0.0186233 -1.16812e-07 -9.02495e-09
0.0186235 -9.64411e-08 -7.50021e-09
0.0186236 -7.58741e-08 -5.89014e-09
0.0186237 -5.79207e-08 -4.46454e-09
0.0186238 -4.33822e-08 -3.30516e-09
0.0186239 -3.21508e-08 -2.40978e-09
0.0186239 -2.37745e-08 -1.74601e-09
0.0186239 -1.77326e-08 -1.27981e-09
0.018624 -1.35603e-08 -9.92286e-10
0.018624 -1.08986e-08 -8.91726e-10
0.018624 -9.52099e-09 -1.03247e-09
0.018624 -9.3576e-09 -1.53457e-09
0.018624 -1.04395e-08 -2.48614e-09
0.0186241 -1.31763e-08 -4.04197e-09
0.0186241 -1.8994e-08 -6.26063e-09
0.0186242 -2.80532e-08 -3.58105e-09
0.0186243 -6.93996e-08 -1.00948e-08
0.0186246 -2.70189e-07 -1.34632e-07
0.018625 -4.34799e-07 -2.4876e-07
0.01 -9.3809e-08 -1.27007e-06
0.010001 -0.0031039 -0.000499469
0.0149851 -0.0102164 -0.00107374
0.0240384 -0.0182228 -0.00251589
0.0373994 -0.0305715 -0.00412115
0.0570768 -0.0217643 -0.00113388
0.0549848 -0.00164906 0.00225234
0.0549762 0.00573671 0.00254847
0.0494347 0.0106307 0.00236169
0.0439504 0.0106205 0.0014495
0.0393188 0.00939648 0.000381455
0.0353163 0.00773458 -0.000338068
0.0320927 0.00588339 -0.000597777
0.0297789 0.00414925 -0.000528423
0.02823 0.00276773 -0.00034034
0.0272323 0.00178251 -0.000175698
0.0266082 0.0011202 -7.42835e-05
0.0262293 0.00068919 -2.38731e-05
0.0260068 0.000415248 -3.02103e-06
0.0258807 0.000244859 3.70623e-06
0.0258121 0.000141099 4.71098e-06
0.0257764 7.92346e-05 3.86725e-06
0.0257591 4.31412e-05 2.71708e-06
0.0257515 2.25678e-05 1.75902e-06
0.0257489 1.1147e-05 1.08194e-06
0.0257486 5.00798e-06 6.42149e-07
0.0257493 1.84606e-06 3.70978e-07
0.0257503 3.17166e-07 2.09669e-07
0.0257512 -3.4572e-07 1.16255e-07
0.025752 -5.70004e-07 6.33151e-08
0.0257527 -5.87265e-07 3.38661e-08
0.0257532 -5.18575e-07 1.77634e-08
0.0257536 -4.24144e-07 9.10804e-09
0.0257539 -3.31628e-07 4.54129e-09
0.0257541 -2.51921e-07 2.18408e-09
0.0257543 -1.8775e-07 1.00138e-09
0.0257544 -1.38217e-07 4.31279e-10
0.0257544 -1.01106e-07 1.72596e-10
0.0257545 -7.3979e-08 6.44858e-11
0.0257545 -5.46643e-08 1.68856e-11
0.0257546 -4.14303e-08 -3.23358e-11
0.0257546 -3.30312e-08 -1.42048e-10
0.0257546 -2.87154e-08 -3.85361e-10
0.0257546 -2.83644e-08 -8.96594e-10
0.0257547 -3.27262e-08 -1.68615e-09
0.0257547 -4.33727e-08 -2.13934e-09
0.0257547 -6.89338e-08 -2.25441e-09
0.0257548 -1.40766e-07 9.8529e-10
0.025755 -2.90246e-07 -1.70748e-08
0.0257553 -5.35137e-07 -2.06181e-07
0.0257555 -6.84005e-07 -3.7393e-07
0.0148 -9.56041e-07 -1.58727e-06
0.0148024 -0.0053237 -0.00104598
0.0200043 -0.0162113 -0.00258468
0.0263315 -0.0276797 -0.00457254
0.0307348 -0.0434315 -0.00534656
0.0292513 -0.026658 -0.000887618
0.0262497 -1.1219e-05 0.00257831
0.0261877 0.00742448 0.00261554
0.0305301 0.0154054 0.00253035
0.0308843 0.0151153 0.00160965
0.0297432 0.0132527 0.00060038
0.0285931 0.0109408 -0.000127766
0.0277866 0.00820902 -0.000413911
0.0274853 0.00562447 -0.000393333
0.0274472 0.00364745 -0.000248601
0.0274902 0.00229432 -0.000113409
0.0275432 0.00141131 -3.07526e-05
0.0275907 0.000848506 6.64409e-06
0.027632 0.000497296 1.77995e-05
0.0276671 0.000283352 1.73712e-05
0.0276958 0.000156384 1.33486e-05
0.0277183 8.30506e-05 9.15379e-06
0.0277352 4.18924e-05 5.86737e-06
0.0277474 1.95277e-05 3.59514e-06
0.0277561 7.85111e-06 2.1322e-06
0.027762 2.08358e-06 1.23305e-06
0.0277661 -5.22309e-07 6.98361e-07
0.0277689 -1.50603e-06 3.8828e-07
0.0277708 -1.70643e-06 2.12072e-07
0.0277721 -1.56554e-06 1.13687e-07
0.027773 -1.30612e-06 5.9647e-08
0.0277736 -1.03309e-06 3.0455e-08
0.027774 -7.90232e-07 1.49758e-08
0.0277742 -5.91104e-07 6.95266e-09
0.0277744 -4.35414e-07 2.91985e-09
0.0277745 -3.17407e-07 9.84053e-10
0.0277746 -2.29928e-07 1.2556e-10
0.0277747 -1.66229e-07 -1.96151e-10
0.0277747 -1.20646e-07 -2.62937e-10
0.0277748 -8.87481e-08 -2.21335e-10
0.0277748 -6.72789e-08 -1.53237e-10
0.0277748 -5.40626e-08 -1.16386e-10
0.0277748 -4.79605e-08 -1.48247e-10
0.0277748 -4.89091e-08 -2.24444e-10
0.0277749 -5.91928e-08 -2.35489e-10
0.0277749 -8.68001e-08 -1.8027e-10
0.0277749 -1.41892e-07 -1.98876e-09
0.027775 -2.28217e-07 -7.58127e-09
0.0277751 -3.47811e-07 -4.7556e-08
0.0277751 -4.97428e-07 -2.56378e-07
0.0277751 -5.78339e-07 -4.29034e-07
0.018 -1.97434e-06 -1.71159e-06
0.0180026 -0.00667306 -0.00188087
0.0203419 -0.0178498 -0.00501502
0.0201149 -0.023362 -0.00661019
0.0158521 -0.0255044 -0.0071393
-1.3502e-06 -0.0133281 -0.00366442
9.93945e-05 3.06281e-05 7.4989e-07
-3.67397e-05 3.8546e-05 0.000494637
0.00715252 0.0048324 0.00103343
0.0149526 0.0109976 0.000918594
0.0183781 0.0117803 0.0004949
0.0199987 0.010016 1.09108e-05
0.0217137 0.00732706 -0.000271148
0.0234921 0.00473154 -0.000293152
0.0250155 0.00289554 -0.000187269
0.0261447 0.00173869 -7.26737e-05
0.0269069 0.00102817 4.16415e-07
0.0273975 0.000591549 3.07456e-05
0.0277073 0.000326502 3.50582e-05
0.0279016 0.000170487 2.86745e-05
0.0280226 8.24334e-05 2.02079e-05
0.0280973 3.5128e-05 1.30681e-05
0.028143 1.11935e-05 7.98956e-06
0.0281708 6.40439e-08 4.69343e-06
0.0281875 -4.39025e-06 2.67375e-06
0.0281975 -5.57508e-06 1.48449e-06
0.0282035 -5.3027e-06 8.0477e-07
0.0282071 -4.49136e-06 4.2555e-07
0.0282092 -3.57651e-06 2.1849e-07
0.0282105 -2.74323e-06 1.07829e-07
0.0282112 -2.05303e-06 5.00933e-08
0.0282117 -1.51078e-06 2.08761e-08
0.028212 -1.09858e-06 6.72042e-09
0.0282122 -7.92075e-07 3.30047e-10
0.0282123 -5.67716e-07 -2.18347e-09
0.0282123 -4.05411e-07 -2.85189e-09
0.0282124 -2.8914e-07 -2.71012e-09
0.0282124 -2.06639e-07 -2.2666e-09
0.0282124 -1.48798e-07 -1.75808e-09
0.0282124 -1.09037e-07 -1.28758e-09
0.0282124 -8.27791e-08 -8.97508e-10
0.0282125 -6.70731e-08 -6.04552e-10
0.0282125 -6.05347e-08 -4.46517e-10
0.0282125 -6.36545e-08 -5.6878e-10
0.0282125 -7.79907e-08 -1.27696e-09
0.0282125 -1.03739e-07 -3.72327e-09
0.0282125 -1.39179e-07 -1.12249e-08
0.0282125 -1.80259e-07 -2.42679e-08
0.0282124 -2.2653e-07 -7.37381e-08
0.0282124 -2.80893e-07 -2.81214e-07
0.0282122 -3.10219e-07 -4.46708e-07
0.0196 -2.60754e-06 -2.63851e-06
0.0196008 -0.00538637 -0.00272346
0.0191083 -0.0121422 -0.00650677
0.016175 -0.0147866 -0.00696766
0.0113174 -0.0135211 -0.00666286
0.00215028 -0.00549296 -0.00448111
7.50222e-05 -6.90299e-05 -0.00100005
3.22902e-05 -3.22902e-05 -4.3801e-08
-3.58311e-05 3.76484e-05 0.00015346
0.00478017 0.00363735 0.000315774
0.010917 0.00817276 0.000252978
0.0137144 0.0077389 -1.90558e-05
0.0169865 0.00492461 -0.000294372
0.0202646 0.00250391 -0.000350509
0.0230301 0.00110266 -0.00026521
0.0250439 0.000442907 -0.000133762
0.0263543 0.000157426 -3.10992e-05
0.0271539 3.07094e-05 1.93793e-05
0.0276282 -2.59319e-05 3.21843e-05
0.0279061 -4.70445e-05 2.80361e-05
0.0280673 -4.96678e-05 1.97341e-05
0.02816 -4.38647e-05 1.24401e-05
0.0282127 -3.53786e-05 7.32643e-06
0.0282423 -2.70553e-05 4.11435e-06
0.0282587 -2.00166e-05 2.22483e-06
0.0282677 -1.45e-05 1.16179e-06
0.0282726 -1.03627e-05 5.83834e-07
0.0282752 -7.34212e-06 2.78935e-07
0.0282766 -5.17372e-06 1.23017e-07
0.0282773 -3.63346e-06 4.62742e-08
0.0282776 -2.54662e-06 1.05341e-08
0.0282778 -1.78289e-06 -4.59459e-09
0.0282778 -1.24758e-06 -9.77083e-09
0.0282778 -8.73009e-07 -1.04345e-08
0.0282778 -6.11233e-07 -9.27865e-09
0.0282778 -4.28531e-07 -7.5786e-09
0.0282778 -3.01278e-07 -5.89502e-09
0.0282778 -2.12985e-07 -4.44049e-09
0.0282778 -1.52202e-07 -3.26802e-09
0.0282778 -1.11049e-07 -2.36915e-09
0.0282778 -8.42221e-08 -1.73237e-09
0.0282778 -6.83185e-08 -1.38634e-09
0.0282778 -6.11687e-08 -1.46701e-09
0.0282778 -6.09376e-08 -2.37598e-09
0.0282778 -6.55262e-08 -4.70115e-09
0.0282777 -7.22568e-08 -9.26684e-09
0.0282777 -7.74394e-08 -1.88018e-08
0.0282777 -7.42741e-08 -3.30037e-08
0.0282776 -5.48703e-08 -8.28324e-08
0.0282775 -1.93577e-08 -2.86779e-07
0.0282774 1.58238e-09 -4.4859e-07
0.0196 -1.27434e-06 -3.54172e-06
0.0196001 -0.00331723 -0.00306909
0.0189989 -0.00704494 -0.00656523
0.0177159 -0.00671377 -0.00649189
0.0138363 -0.0029959 -0.00573448
0.00994138 0.00330746 -0.00463465
0.0064301 0.00331858 -0.00232982
7.50874e-05 -6.29725e-05 -0.000437601
2.71414e-05 -2.71414e-05 -1.30003e-07
-3.48266e-05 3.68357e-05 4.42529e-05
0.00362449 0.00281191 0.000338788
0.00825597 0.00402724 0.000375321
0.0136636 0.000985787 -2.63447e-05
0.0184986 -0.00108321 -0.000310489
0.0222885 -0.00171296 -0.000381521
0.0248821 -0.00149716 -0.000274748
0.0264369 -0.00105696 -0.00012904
0.0272908 -0.000689139 -3.49267e-05
0.0277416 -0.000441332 3.49965e-06
0.0279762 -0.000282837 1.20917e-05
0.0280971 -0.000181487 1.02899e-05
0.0281585 -0.00011637 6.673e-06
0.0281891 -7.45737e-05 3.80268e-06
0.0282038 -4.78478e-05 1.98999e-06
0.0282106 -3.08081e-05 9.65476e-07
0.0282134 -1.9946e-05 4.26815e-07
0.0282143 -1.30028e-05 1.6045e-07
0.0282144 -8.54144e-06 3.75344e-08
0.0282142 -5.65476e-06 -1.35514e-08
0.0282139 -3.77209e-06 -3.05478e-08
0.0282136 -2.53402e-06 -3.25101e-08
0.0282133 -1.71322e-06 -2.86564e-08
0.0282131 -1.16493e-06 -2.32107e-08
0.0282129 -7.96195e-07 -1.79486e-08
0.0282128 -5.46798e-07 -1.34938e-08
0.0282127 -3.77378e-07 -9.96081e-09
0.0282126 -2.61986e-07 -7.26325e-09
0.0282126 -1.83394e-07 -5.25587e-09
0.0282125 -1.30097e-07 -3.79879e-09
0.0282125 -9.43794e-08 -2.78892e-09
0.0282125 -7.10031e-08 -2.18483e-09
0.0282125 -5.62438e-08 -2.03621e-09
0.0282125 -4.71881e-08 -2.50991e-09
0.0282124 -4.11925e-08 -3.91285e-09
0.0282124 -3.53269e-08 -6.58638e-09
0.0282124 -2.57738e-08 -1.11298e-08
0.0282124 -7.01911e-09 -2.03795e-08
0.0282123 3.17267e-08 -3.37431e-08
0.0282123 1.09885e-07 -7.94646e-08
0.0282123 2.37196e-07 -2.78546e-07
0.0282121 3.12606e-07 -4.38922e-07
0.018 -8.05149e-07 -3.47781e-06
0.0180009 -0.00167345 -0.0030067
0.0184715 -0.00292986 -0.00622892
0.0187883 -0.00137519 -0.00572971
0.018142 0.00175741 -0.00461706
0.0180739 0.00761072 -0.00369391
0.0186581 0.0126865 -0.00227937
0.0115066 0.00695117 -0.00102397
7.68022e-05 -4.91429e-05 -0.000325227
-2.79289e-05 -5.65615e-05 5.49491e-07
7.75958e-06 -0.000225716 0.000828763
0.00931188 -0.00242118 0.00133487
0.0170571 -0.00520056 0.000715448
0.0219348 -0.00584743 0.000146146
0.02481 -0.0049957 -0.000241552
0.0264447 -0.00351015 -0.000325579
0.0272842 -0.00215809 -0.000226453
0.0276568 -0.00124541 -0.000113629
0.0277956 -0.000709975 -4.68065e-05
0.0278334 -0.000408169 -1.71231e-05
0.0278335 -0.000237321 -5.93245e-06
0.0278225 -0.000139362 -2.11344e-06
0.0278104 -8.26231e-05 -8.75025e-07
0.0278003 -4.94973e-05 -4.64377e-07
0.0277928 -2.99997e-05 -3.03872e-07
0.0277873 -1.84136e-05 -2.18876e-07
0.0277835 -1.14518e-05 -1.60932e-07
0.0277809 -7.21657e-06 -1.17393e-07
0.027779 -4.60606e-06 -8.44417e-08
0.0277777 -2.97541e-06 -5.99923e-08
0.0277769 -1.9434e-06 -4.22461e-08
0.0277762 -1.28207e-06 -2.95883e-08
0.0277758 -8.5338e-07 -2.0668e-08
0.0277755 -5.726e-07 -1.44281e-08
0.0277753 -3.87057e-07 -1.00806e-08
0.0277752 -2.6356e-07 -7.05804e-09
0.0277751 -1.80938e-07 -4.96144e-09
0.027775 -1.25522e-07 -3.51733e-09
0.0277749 -8.8369e-08 -2.54661e-09
0.0277749 -6.35173e-08 -1.94716e-09
0.0277749 -4.68471e-08 -1.68634e-09
0.0277749 -3.53126e-08 -1.79631e-09
0.0277748 -2.63549e-08 -2.38752e-09
0.0277748 -1.73837e-08 -3.69671e-09
0.0277748 -5.18985e-09 -5.97801e-09
0.0277748 1.48503e-08 -9.6728e-09
0.0277748 4.95835e-08 -1.75203e-08
0.0277747 1.12213e-07 -2.83546e-08
0.0277748 2.36206e-07 -6.44818e-08
0.0277748 4.48607e-07 -2.52105e-07
0.0277747 5.77623e-07 -4.08927e-07
0.0148 -4.71505e-07 -3.03173e-06
0.0148015 -0.000763432 -0.00279431
0.0164601 -0.000852842 -0.00556126
0.018514 0.00105742 -0.00478153
0.0204451 0.00407907 -0.00357476
0.0225387 0.00761822 -0.00289714
0.0261766 0.0127649 -0.00207166
0.0293045 0.0197914 -0.00114251
0.0238958 0.0117129 -0.000152294
0.0242804 4.06519e-11 0.000602181
0.0277623 -0.0069187 0.00150283
0.0322693 -0.0136713 0.00227665
0.0335207 -0.0118879 0.0020158
0.0323626 -0.0087464 0.0012416
0.0303515 -0.00595317 0.000255546
0.0285935 -0.00370861 -0.000305915
0.0274177 -0.00210272 -0.000367232
0.0267159 -0.00112105 -0.00023697
0.0263118 -0.000587002 -0.000119221
0.0260802 -0.000310433 -5.32538e-05
0.0259468 -0.000167616 -2.24972e-05
0.0258695 -9.25985e-05 -9.2952e-06
0.0258242 -5.23002e-05 -3.83246e-06
0.0257974 -3.01559e-05 -1.5988e-06
0.0257813 -1.77228e-05 -6.81362e-07
0.0257715 -1.06009e-05 -2.97962e-07
0.0257655 -6.445e-06 -1.33332e-07
0.0257617 -3.97792e-06 -6.03232e-08
0.0257593 -2.48977e-06 -2.69489e-08
0.0257577 -1.57855e-06 -1.13827e-08
0.0257567 -1.01271e-06 -4.11404e-09
0.025756 -6.56731e-07 -8.17048e-10
0.0257556 -4.30071e-07 5.58921e-10
0.0257553 -2.84187e-07 1.01713e-09
0.0257551 -1.8941e-07 1.05573e-09
0.0257549 -1.27358e-07 9.20066e-10
0.0257548 -8.64926e-08 7.25693e-10
0.0257548 -5.94641e-08 5.19919e-10
0.0257547 -4.15028e-08 3.12458e-10
0.0257547 -2.94156e-08 8.88547e-11
0.0257547 -2.09309e-08 -1.87908e-10
0.0257546 -1.42359e-08 -5.82969e-10
0.0257546 -7.59472e-09 -1.2064e-09
0.0257546 1.02527e-09 -2.25542e-09
0.0257546 1.43937e-08 -3.93081e-09
0.0257546 3.69374e-08 -6.50143e-09
0.0257546 7.59357e-08 -1.19769e-08
0.0257546 1.43588e-07 -1.91243e-08
0.0257547 2.79405e-07 -4.39912e-08
0.0257549 5.24834e-07 -2.08882e-07
0.0257551 6.7742e-07 -3.52184e-07
0.01 -9.15887e-07 -2.70555e-06
0.0100007 -0.000473706 -0.00231957
0.0116801 -0.000279101 -0.00435227