# vtk DataFile Version 2.0
Tobias Weinzierl: CPU, Manycore and Cluster Computing
ASCII

DATASET STRUCTURED_POINTS
DIMENSIONS  51 11 6

ORIGIN 0 0 0 

SPACING 0.1 0.1 0.1 

POINT_DATA 3366

VECTORS velocity float
0 0 0
3.25275e-10 0 0
-1.08911e-06 0 0
-1.63997e-06 0 0
-1.71188e-06 0 0
-1.54641e-06 0 0
-1.8322e-06 0 0
-1.7793e-06 0 0
-1.61668e-06 0 0
-1.49812e-06 0 0
-1.46055e-06 0 0
-1.46996e-06 0 0
-1.49773e-06 0 0
-1.53024e-06 0 0
-1.56132e-06 0 0
-1.58823e-06 0 0
-1.61015e-06 0 0
-1.62734e-06 0 0
-1.64047e-06 0 0
-1.65036e-06 0 0
-1.65773e-06 0 0
-1.66318e-06 0 0
-1.66721e-06 0 0
-1.67018e-06 0 0
-1.67236e-06 0 0
-1.67397e-06 0 0
-1.67515e-06 0 0
-1.67601e-06 0 0
-1.67664e-06 0 0
-1.67711e-06 0 0
-1.67745e-06 0 0
-1.6777e-06 0 0
-1.67788e-06 0 0
-1.67801e-06 0 0
-1.6781e-06 0 0
-1.67817e-06 0 0
-1.67822e-06 0 0
-1.67826e-06 0 0
-1.67829e-06 0 0
-1.67831e-06 0 0
-1.67832e-06 0 0
-1.67834e-06 0 0
-1.67835e-06 0 0
-1.67836e-06 0 0
-1.67838e-06 0 0
-1.6784e-06 0 0
-1.67845e-06 0 0
-1.67854e-06 0 0
-1.67873e-06 0 0
-1.67908e-06 0 0
0.00625592 0 0
0 5.03348e-07 0
5.92113e-10 7.63996e-07 0
-1.7654e-06 1.2436e-06 0
-2.2497e-06 5.59111e-07 0
-2.0738e-06 -6.89053e-08 0
-1.17457e-06 1.329e-07 0
-2.09977e-06 2.22611e-07 0
-1.87981e-06 -2.23086e-07 0
-1.61627e-06 -2.80435e-07 0
-1.44602e-06 -1.50632e-07 0
-1.54112e-06 -2.29318e-08 0
-1.67613e-06 4.07561e-08 0
-1.79504e-06 6.2446e-08 0
-1.89311e-06 6.48605e-08 0
-1.97126e-06 5.87635e-08 0
-2.03153e-06 4.9353e-08 0
-2.07681e-06 3.94998e-08 0
-2.11029e-06 3.06378e-08 0
-2.1348e-06 2.32902e-08 0
-2.15268e-06 1.74834e-08 0
-2.16571e-06 1.30259e-08 0
-2.1752e-06 9.66391e-09 0
-2.18213e-06 7.15417e-09 0
-2.18719e-06 5.29144e-09 0
-2.19089e-06 3.91297e-09 0
-2.1936e-06 2.89411e-09 0
-2.19559e-06 2.14125e-09 0
-2.19704e-06 1.58481e-09 0
-2.1981e-06 1.17336e-09 0
-2.19888e-06 8.68965e-10 0
-2.19945e-06 6.43659e-10 0
-2.19986e-06 4.76828e-10 0
-2.20016e-06 3.53256e-10 0
-2.20038e-06 2.61705e-10 0
-2.20054e-06 1.93873e-10 0
-2.20065e-06 1.43618e-10 0
-2.20073e-06 1.06405e-10 0
-2.20079e-06 7.88958e-11 0
-2.20084e-06 5.8649e-11 0
-2.20088e-06 4.3922e-11 0
-2.2009e-06 3.35447e-11 0
-2.20092e-06 2.68751e-11 0
-2.20094e-06 2.38603e-11 0
-2.20096e-06 2.52718e-11 0
-2.20098e-06 3.329e-11 0
-2.20101e-06 5.28617e-11 0
-2.20107e-06 9.46538e-11 0
-2.20117e-06 1.79273e-10 0
-2.20137e-06 3.27581e-10 0
-2.20175e-06 6.69542e-10 0
0.0127524 -1.92399e-06 0
0 -6.50469e-08 0
7.60238e-10 9.15751e-07 0
-1.67192e-06 1.49815e-06 0
-1.34272e-06 5.48055e-07 0
-1.235e-06 -8.24544e-07 0
-1.6852e-06 1.41035e-07 0
-1.50502e-06 7.09312e-07 0
-1.60035e-06 -4.8274e-07 0
3.69122e-07 -4.13953e-07 0
1.68725e-07 -4.56359e-08 0
-1.45062e-07 2.4955e-07 0
-4.32994e-07 2.64961e-07 0
-6.15291e-07 2.2294e-07 0
-7.39217e-07 1.794e-07 0
-8.25505e-07 1.40176e-07 0
-8.85023e-07 1.06617e-07 0
-9.25817e-07 7.94983e-08 0
-9.53855e-07 5.8562e-08 0
-9.73305e-07 4.28757e-08 0
-9.86952e-07 3.13246e-08 0
-9.96639e-07 2.2892e-08 0
-1.00358e-06 1.67558e-08 0
-1.00859e-06 1.22904e-08 0
-1.01224e-06 9.0351e-09 0
-1.01489e-06 6.65579e-09 0
-1.01683e-06 4.91188e-09 0
-1.01825e-06 3.63031e-09 0
-1.01929e-06 2.68628e-09 0
-1.02004e-06 1.98954e-09 0
-1.0206e-06 1.4745e-09 0
-1.021e-06 1.09329e-09 0
-1.02129e-06 8.10884e-10 0
-1.0215e-06 6.01522e-10 0
-1.02165e-06 4.46235e-10 0
-1.02176e-06 3.3102e-10 0
-1.02184e-06 2.45521e-10 0
-1.0219e-06 1.82084e-10 0
-1.02194e-06 1.35051e-10 0
-1.02197e-06 1.00262e-10 0
-1.02199e-06 7.46998e-11 0
-1.02201e-06 5.62459e-11 0
-1.02202e-06 4.35474e-11 0
-1.02204e-06 3.59782e-11 0
-1.02205e-06 3.36975e-11 0
-1.02205e-06 3.77636e-11 0
-1.02206e-06 5.01326e-11 0
-1.02207e-06 7.33134e-11 0
-1.02211e-06 1.12908e-10 0
-1.02218e-06 2.0945e-10 0
-1.02228e-06 4.02354e-10 0
0.012995 -1.47852e-06 0
0 -6.54114e-07 0
1.29847e-09 8.3513e-07 0
-2.17252e-06 1.48842e-06 0
-1.04123e-06 9.42234e-07 0
-1.00054e-06 7.68424e-07 0
-2.05706e-06 4.79626e-07 0
-1.23735e-06 2.62696e-10 0
-1.49982e-06 -2.1451e-06 0
-1.78623e-06 -2.02579e-06 0
-6.17532e-07 4.22509e-07 0
-5.19477e-07 6.13846e-07 0
-6.17609e-07 5.27802e-07 0
-7.30395e-07 3.76744e-07 0
-8.16379e-07 2.78831e-07 0
-8.75481e-07 2.06302e-07 0
-9.14015e-07 1.5053e-07 0
-9.39137e-07 1.08859e-07 0
-9.55955e-07 7.85316e-08 0
-9.67587e-07 5.67489e-08 0
-9.75862e-07 4.11575e-08 0
-9.81869e-07 2.99759e-08 0
-9.86284e-07 2.19212e-08 0
-9.89549e-07 1.60886e-08 0
-9.91969e-07 1.18434e-08 0
-9.93762e-07 8.73929e-09 0
-9.95088e-07 6.46089e-09 0
-9.96065e-07 4.78327e-09 0
-9.96783e-07 3.54498e-09 0
-9.97308e-07 2.62922e-09 0
-9.97689e-07 1.95103e-09 0
-9.97965e-07 1.44824e-09 0
-9.98164e-07 1.07521e-09 0
-9.98306e-07 7.98308e-10 0
-9.98407e-07 5.92684e-10 0
-9.98479e-07 4.39953e-10 0
-9.9853e-07 3.2649e-10 0
-9.98566e-07 2.42193e-10 0
-9.98592e-07 1.79573e-10 0
-9.98612e-07 1.33091e-10 0
-9.98627e-07 9.8676e-11 0
-9.98639e-07 7.33864e-11 0
-9.98648e-07 5.51869e-11 0
-9.98654e-07 4.2831e-11 0
-9.98658e-07 3.5852e-11 0
-9.9866e-07 3.47134e-11 0
-9.98662e-07 4.13361e-11 0
-9.98671e-07 6.06467e-11 0
-9.98704e-07 1.02761e-10 0
-9.98795e-07 1.76967e-10 0
-9.98916e-07 2.84696e-10 0
0.0129969 -9.86181e-07 0
0 -1.0629e-06 0
1.82932e-09 4.65251e-07 0
-2.77158e-06 7.56289e-07 0
-1.2058e-06 6.36095e-07 0
-5.55837e-07 7.72341e-07 0
-1.13714e-10 4.27408e-07 0
5.18999e-11 -9.37826e-11 0
-1.8851e-10 -4.80766e-10 0
-2.15493e-06 -1.32368e-06 0
-2.06033e-06 -1.30045e-06 0
-1.01823e-06 2.73336e-07 0
-9.27721e-07 4.91407e-07 0
-9.33111e-07 4.29362e-07 0
-9.57897e-07 3.27621e-07 0
-9.71854e-07 2.38896e-07 0
-9.78413e-07 1.70627e-07 0
-9.82104e-07 1.21616e-07 0
-9.8488e-07 8.7198e-08 0
-9.87319e-07 6.30141e-08 0
-9.89509e-07 4.58718e-08 0
-9.91424e-07 3.3593e-08 0
-9.93038e-07 2.47135e-08 0
-9.94354e-07 1.82422e-08 0
-9.95398e-07 1.34977e-08 0
-9.96208e-07 1.00037e-08 0
-9.96823e-07 7.42259e-09 0
-9.97283e-07 5.51151e-09 0
-9.97622e-07 4.09437e-09 0
-9.97868e-07 3.0424e-09 0
-9.98044e-07 2.26099e-09 0
-9.98168e-07 1.6803e-09 0
-9.98254e-07 1.24866e-09 0
-9.98312e-07 9.27772e-10 0
-9.98351e-07 6.89201e-10 0
-9.98377e-07 5.11821e-10 0
-9.98394e-07 3.79927e-10 0
-9.98404e-07 2.81839e-10 0
-9.98412e-07 2.08868e-10 0
-9.98417e-07 1.54555e-10 0
-9.98422e-07 1.14106e-10 0
-9.98425e-07 8.39867e-11 0
-9.98429e-07 6.16379e-11 0
-9.98431e-07 4.53137e-11 0
-9.98431e-07 3.40514e-11 0
-9.98429e-07 2.78308e-11 0
-9.98427e-07 2.79695e-11 0
-9.98429e-07 3.75515e-11 0
-9.98447e-07 6.0965e-11 0
-9.98502e-07 9.8433e-11 0
-9.98593e-07 1.46788e-10 0
0.0129967 -4.93083e-07 0
0 -8.61826e-07 0
2.38157e-09 2.29234e-07 0
-3.29746e-06 4.51885e-07 0
-1.80631e-06 2.50913e-07 0
-1.10079e-06 4.69279e-08 0
-6.1528e-07 1.87286e-08 0
-1.70911e-10 -3.2163e-11 0
-1.6026e-10 1.6026e-10 0
-1.40303e-10 2.44222e-10 0
-1.32616e-06 -7.4739e-07 0
-1.31197e-06 -5.21965e-07 0
-1.22333e-06 4.52206e-07 0
-1.17239e-06 4.13043e-07 0
-1.1156e-06 3.19616e-07 0
-1.06922e-06 2.27097e-07 0
-1.03927e-06 1.60613e-07 0
-1.02155e-06 1.15196e-07 0
-1.01144e-06 8.37634e-08 0
-1.00579e-06 6.15211e-08 0
-1.00267e-06 4.54845e-08 0
-1.00097e-06 3.37647e-08 0
-1.00003e-06 2.51223e-08 0
-9.99516e-07 1.87138e-08 0
-9.99225e-07 1.39465e-08 0
-9.99051e-07 1.03943e-08 0
-9.98939e-07 7.74545e-09 0
-9.98859e-07 5.76998e-09 0
-9.98796e-07 4.2969e-09 0
-9.98742e-07 3.19876e-09 0
-9.98695e-07 2.38043e-09 0
-9.98652e-07 1.77084e-09 0
-9.98614e-07 1.31691e-09 0
-9.9858e-07 9.78993e-10 0
-9.9855e-07 7.27515e-10 0
-9.98525e-07 5.40397e-10 0
-9.98503e-07 4.01173e-10 0
-9.98486e-07 2.97564e-10 0
-9.98472e-07 2.20409e-10 0
-9.98462e-07 1.62866e-10 0
-9.98455e-07 1.19821e-10 0
-9.9845e-07 8.74367e-11 0
-9.98447e-07 6.28307e-11 0
-9.98445e-07 4.38508e-11 0
-9.98442e-07 2.89564e-11 0
-9.98438e-07 1.72161e-11 0
-9.98433e-07 8.39782e-12 0
-9.9843e-07 2.9577e-12 0
-9.98439e-07 1.30251e-12 0
-9.98482e-07 1.45779e-12 0
-9.98564e-07 7.18838e-13 0
0.0129966 1.57219e-10 0
0 -5.27135e-07 0
2.61341e-09 -2.12648e-08 0
-3.32324e-06 5.6024e-08 0
-1.79875e-06 2.79542e-08 0
-1.38058e-06 -4.86172e-08 0
-1.0875e-06 -6.33336e-07 0
-9.69242e-07 -6.34004e-07 0
-3.15018e-10 -3.91399e-10 0
2.44908e-10 -2.44908e-10 0
2.26701e-10 5.06254e-10 0
-7.4871e-07 1.65294e-07 0
-1.8086e-06 3.59427e-07 0
-1.44482e-06 3.27799e-07 0
-1.23221e-06 2.2639e-07 0
-1.12865e-06 1.62665e-07 0
-1.07544e-06 1.22654e-07 0
-1.04646e-06 9.3597e-08 0
-1.0298e-06 7.14399e-08 0
-1.01975e-06 5.43881e-08 0
-1.01339e-06 4.12736e-08 0
-1.00921e-06 3.12201e-08 0
-1.00635e-06 2.35445e-08 0
-1.00434e-06 1.77087e-08 0
-1.00289e-06 1.32888e-08 0
-1.00183e-06 9.95298e-09 0
-1.00103e-06 7.44263e-09 0
-1.00043e-06 5.55813e-09 0
-9.99977e-07 4.14632e-09 0
-9.99627e-07 3.09036e-09 0
-9.99357e-07 2.30162e-09 0
-9.99147e-07 1.7131e-09 0
-9.98984e-07 1.27436e-09 0
-9.98856e-07 9.47515e-10 0
-9.98756e-07 7.04152e-10 0
-9.98678e-07 5.23016e-10 0
-9.98618e-07 3.88214e-10 0
-9.98572e-07 2.87872e-10 0
-9.98536e-07 2.13114e-10 0
-9.9851e-07 1.57293e-10 0
-9.98492e-07 1.15406e-10 0
-9.98479e-07 8.36454e-11 0
-9.9847e-07 5.90453e-11 0
-9.98465e-07 3.91929e-11 0
-9.9846e-07 2.19834e-11 0
-9.98456e-07 5.40848e-12 0
-9.98453e-07 -1.26028e-11 0
-9.98452e-07 -3.42529e-11 0
-9.98463e-07 -6.18985e-11 0
-9.9851e-07 -9.82987e-11 0
-9.98596e-07 -1.46321e-10 0
0.0129967 4.93393e-07 0
0 -3.24516e-07 0
2.18335e-09 -2.62067e-07 0
-3.00829e-06 -3.1532e-07 0
-1.72239e-06 -1.11002e-07 0
-1.39384e-06 -2.43531e-07 0
-1.23799e-06 -3.02897e-07 0
-1.49202e-06 -1.09335e-06 0
-1.16603e-06 -9.7631e-07 0
-1.33176e-10 -9.25122e-10 0
9.42853e-10 -1.33822e-09 0
3.79453e-10 1.28518e-06 0
-2.95013e-06 1.15961e-06 0
-1.63148e-06 -1.47196e-07 0
-1.22971e-06 1.00344e-08 0
-1.11887e-06 7.21453e-08 0
-1.07586e-06 7.88007e-08 0
-1.0532e-06 6.96844e-08 0
-1.03885e-06 5.7228e-08 0
-1.02886e-06 4.53624e-08 0
-1.02156e-06 3.52406e-08 0
-1.0161e-06 2.70316e-08 0
-1.01197e-06 2.0558e-08 0
-1.00882e-06 1.55409e-08 0
-1.00642e-06 1.16972e-08 0
-1.00459e-06 8.7761e-09 0
-1.00319e-06 6.5687e-09 0
-1.00212e-06 4.90757e-09 0
-1.00131e-06 3.66137e-09 0
-1.00069e-06 2.72862e-09 0
-1.00021e-06 2.0317e-09 0
-9.99844e-07 1.5117e-09 0
-9.99563e-07 1.1241e-09 0
-9.99348e-07 8.35436e-10 0
-9.99183e-07 6.20581e-10 0
-9.99057e-07 4.60729e-10 0
-9.9896e-07 3.41817e-10 0
-9.98887e-07 2.53336e-10 0
-9.98831e-07 1.8743e-10 0
-9.98791e-07 1.38208e-10 0
-9.98761e-07 1.01218e-10 0
-9.98741e-07 7.3033e-11 0
-9.98727e-07 5.09022e-11 0
-9.98718e-07 3.24174e-11 0
-9.98713e-07 1.51502e-11 0
-9.98712e-07 -3.79644e-12 0
-9.98714e-07 -2.82976e-11 0
-9.98725e-07 -6.35017e-11 0
-9.98753e-07 -1.1519e-10 0
-9.98821e-07 -1.88028e-10 0
-9.98925e-07 -2.88566e-10 0
0.0129969 9.86471e-07 0
0 -3.29661e-07 0
1.47112e-09 -4.28407e-07 0
-2.44214e-06 -5.55784e-07 0
-1.59666e-06 -1.7263e-07 0
-1.36023e-06 -8.24611e-08 0
-1.50561e-06 -3.61625e-07 0
-1.80161e-06 -6.57482e-07 0
-2.73014e-06 -1.50211e-06 0
-2.48718e-06 -1.16895e-06 0
-1.0072e-06 1.85082e-11 0
-1.43424e-07 3.08535e-06 0
-1.37589e-07 1.98033e-06 0
-7.8655e-07 -1.36384e-06 0
-1.00572e-06 -2.73366e-07 0
-1.06615e-06 1.30817e-08 0
-1.0781e-06 5.84203e-08 0
-1.07494e-06 5.72258e-08 0
-1.06739e-06 4.75392e-08 0
-1.05918e-06 3.74878e-08 0
-1.05168e-06 2.88812e-08 0
-1.04531e-06 2.19699e-08 0
-1.04011e-06 1.6584e-08 0
-1.03597e-06 1.24564e-08 0
-1.03272e-06 9.32493e-09 0
-1.03021e-06 6.96465e-09 0
-1.02827e-06 5.19329e-09 0
-1.02679e-06 3.86781e-09 0
-1.02566e-06 2.87802e-09 0
-1.02479e-06 2.14e-09 0
-1.02414e-06 1.59032e-09 0
-1.02363e-06 1.18126e-09 0
-1.02325e-06 8.77057e-10 0
-1.02296e-06 6.50939e-10 0
-1.02274e-06 4.82929e-10 0
-1.02257e-06 3.58123e-10 0
-1.02244e-06 2.65412e-10 0
-1.02234e-06 1.96519e-10 0
-1.02227e-06 1.45267e-10 0
-1.02222e-06 1.07031e-10 0
-1.02218e-06 7.83177e-11 0
-1.02215e-06 5.64251e-11 0
-1.02213e-06 3.9147e-11 0
-1.02212e-06 2.44622e-11 0
-1.02212e-06 1.01292e-11 0
-1.02212e-06 -6.95306e-12 0
-1.02213e-06 -3.17768e-11 0
-1.02216e-06 -7.25841e-11 0
-1.02222e-06 -1.41223e-10 0
-1.02234e-06 -2.49012e-10 0
-1.0225e-06 -4.19266e-10 0
0.012995 1.47874e-06 0
0 -4.85202e-07 0
9.88358e-10 -4.4195e-07 0
-2.30303e-06 -5.50785e-07 0
-2.2263e-06 -1.22113e-07 0
-2.19016e-06 7.45928e-08 0
-2.1788e-06 3.55631e-07 0
-2.4419e-06 2.5646e-07 0
-2.70206e-06 -2.83963e-07 0
-3.86463e-06 -1.83507e-06 0
-3.95896e-06 -2.4988e-06 0
-4.05714e-06 3.06723e-07 0
-1.00993e-06 1.78308e-06 0
-2.11245e-06 7.46475e-07 0
-2.36581e-06 3.01121e-07 0
-2.37729e-06 1.48458e-07 0
-2.34829e-06 8.89939e-08 0
-2.31689e-06 5.96055e-08 0
-2.29017e-06 4.18759e-08 0
-2.26888e-06 2.99989e-08 0
-2.25236e-06 2.16879e-08 0
-2.23972e-06 1.57662e-08 0
-2.23012e-06 1.15083e-08 0
-2.22288e-06 8.4277e-09 0
-2.21743e-06 6.18804e-09 0
-2.21333e-06 4.5531e-09 0
-2.21025e-06 3.35557e-09 0
-2.20794e-06 2.47605e-09 0
-2.20621e-06 1.8287e-09 0
-2.20491e-06 1.35147e-09 0
-2.20393e-06 9.99219e-10 0
-2.20319e-06 7.38993e-10 0
-2.20264e-06 5.46626e-10 0
-2.20222e-06 4.04359e-10 0
-2.20191e-06 2.99108e-10 0
-2.20167e-06 2.21219e-10 0
-2.20149e-06 1.63558e-10 0
-2.20136e-06 1.20848e-10 0
-2.20126e-06 8.91743e-11 0
-2.20118e-06 6.56248e-11 0
-2.20113e-06 4.80124e-11 0
-2.20109e-06 3.46586e-11 0
-2.20107e-06 2.42035e-11 0
-2.20105e-06 1.54064e-11 0
-2.20105e-06 6.87583e-12 0
-2.20105e-06 -3.45767e-12 0
-2.20107e-06 -1.95013e-11 0
-2.20111e-06 -4.97225e-11 0
-2.20122e-06 -1.12731e-10 0
-2.20144e-06 -2.41303e-10 0
-2.20184e-06 -6.24459e-10 0
0.0127524 1.92361e-06 0
0 0 0
4.44498e-10 0 0
-1.24869e-06 0 0
-1.46203e-06 0 0
-1.5156e-06 0 0
-1.43887e-06 0 0
-1.16318e-06 0 0
-1.13758e-06 0 0
-1.37799e-06 0 0
-2.95103e-06 0 0
-3.91336e-06 0 0
-2.70026e-06 0 0
-2.16425e-06 0 0
-1.95532e-06 0 0
-1.85865e-06 0 0
-1.80377e-06 0 0
-1.76812e-06 0 0
-1.74345e-06 0 0
-1.7259e-06 0 0
-1.71324e-06 0 0
-1.70405e-06 0 0
-1.69734e-06 0 0
-1.69242e-06 0 0
-1.6888e-06 0 0
-1.68612e-06 0 0
-1.68414e-06 0 0
-1.68267e-06 0 0
-1.68158e-06 0 0
-1.68077e-06 0 0
-1.68016e-06 0 0
-1.67971e-06 0 0
-1.67937e-06 0 0
-1.67911e-06 0 0
-1.67892e-06 0 0
-1.67878e-06 0 0
-1.67867e-06 0 0
-1.67859e-06 0 0
-1.67853e-06 0 0
-1.67849e-06 0 0
-1.67846e-06 0 0
-1.67844e-06 0 0
-1.67842e-06 0 0
-1.67841e-06 0 0
-1.67841e-06 0 0
-1.67841e-06 0 0
-1.67842e-06 0 0
-1.67844e-06 0 0
-1.67851e-06 0 0
-1.67866e-06 0 0
-1.67896e-06 0 0
0.00625596 0 0
0 0 3.72077e-07
7.02743e-10 0 3.2565e-07
-1.86846e-06 0 3.97166e-07
-2.2689e-06 0 6.40572e-08
-1.95741e-06 0 -2.43045e-08
-1.24387e-06 0 -1.22317e-08
-1.67827e-06 0 1.06473e-08
-1.57604e-06 0 7.94219e-09
-1.41173e-06 0 -3.67265e-10
-1.37327e-06 0 -5.14965e-09
-1.46822e-06 0 -4.92475e-09
-1.61017e-06 0 -3.29278e-09
-1.74612e-06 0 -1.89497e-09
-1.85974e-06 0 -1.01724e-09
-1.94929e-06 0 -5.36075e-10
-2.01737e-06 0 -2.898e-10
-2.06788e-06 0 -1.65897e-10
-2.10475e-06 0 -1.01656e-10
-2.13142e-06 0 -6.60937e-11
-2.15064e-06 0 -4.48156e-11
-2.16448e-06 0 -3.12013e-11
-2.17446e-06 0 -2.20724e-11
-2.18168e-06 0 -1.57709e-11
-2.18691e-06 0 -1.13447e-11
-2.19072e-06 0 -8.20162e-12
-2.19349e-06 0 -5.95304e-12
-2.19551e-06 0 -4.33547e-12
-2.19699e-06 0 -3.16683e-12
-2.19807e-06 0 -2.31967e-12
-2.19885e-06 0 -1.70392e-12
-2.19943e-06 0 -1.2555e-12
-2.19985e-06 0 -9.28584e-13
-2.20015e-06 0 -6.90328e-13
-2.20037e-06 0 -5.17281e-13
-2.20053e-06 0 -3.92979e-13
-2.20065e-06 0 -3.06436e-13
-2.20073e-06 0 -2.51374e-13
-2.20079e-06 0 -2.26158e-13
-2.20084e-06 0 -2.34319e-13
-2.20088e-06 0 -2.85117e-13
-2.2009e-06 0 -3.91799e-13
-2.20093e-06 0 -5.59286e-13
-2.20095e-06 0 -7.35094e-13
-2.20097e-06 0 -6.4566e-13
-2.201e-06 0 6.99311e-13
-2.20104e-06 0 6.38711e-12
-2.2011e-06 0 2.49638e-11
-2.20122e-06 0 7.57862e-11
-2.20144e-06 0 1.81094e-10
-2.20183e-06 0 4.70342e-10
0.0127525 0 -1.44182e-06
0.0036 8.25816e-07 4.3907e-07
0.00359865 -0.00580762 -0.00300525
0.0154031 -0.0103318 -0.00456489
0.025099 -0.00860716 -0.00236493
0.0343141 -0.00764649 -0.00123636
0.0437665 -0.0047952 -0.000650164
0.0459422 -0.000864725 -0.000333933
0.0453188 0.00232978 -0.000173064
0.0399787 0.00411184 -9.01127e-05
0.0351031 0.00390463 -4.77565e-05
0.031445 0.00299978 -2.47341e-05
0.0290017 0.00204987 -1.27722e-05
0.0274963 0.00128786 -6.60964e-06
0.0266316 0.00075275 -3.43153e-06
0.0261705 0.000408439 -1.78972e-06
0.0259474 0.000201625 -9.3944e-07
0.0258561 8.50442e-05 -4.97057e-07
0.0258329 2.37403e-05 -2.65318e-07
0.0258417 -5.61417e-06 -1.42917e-07
0.0258629 -1.7524e-05 -7.7699e-08
0.0258868 -2.05188e-05 -4.26475e-08
0.0259091 -1.93707e-05 -2.36502e-08
0.025928 -1.66147e-05 -1.32681e-08
0.0259433 -1.35135e-05 -7.54545e-09
0.0259553 -1.06365e-05 -4.3615e-09
0.0259645 -8.19349e-06 -2.57104e-09
0.0259714 -6.21929e-06 -1.55154e-09
0.0259767 -4.67226e-06 -9.62357e-10
0.0259806 -3.48428e-06 -6.15862e-10
0.0259835 -2.58457e-06 -4.07922e-10
0.0259856 -1.90977e-06 -2.80258e-10
0.0259872 -1.40716e-06 -1.99944e-10
0.0259883 -1.03468e-06 -1.48195e-10
0.0259892 -7.59649e-07 -1.14228e-10
0.0259898 -5.57141e-07 -9.19211e-11
0.0259903 -4.08366e-07 -7.80603e-11
0.0259906 -2.99302e-07 -7.15899e-11
0.0259908 -2.19577e-07 -7.36913e-11
0.025991 -1.61607e-07 -8.90046e-11
0.0259912 -1.19966e-07 -1.29276e-10
0.0259913 -9.09754e-08 -2.23355e-10
0.0259913 -7.2523e-08 -4.4534e-10
0.0259914 -6.41786e-08 -9.97047e-10
0.0259914 -6.7797e-08 -2.45798e-09
0.0259915 -8.90754e-08 -6.56449e-09
0.0259916 -1.41322e-07 -1.8703e-08
0.0259918 -2.55202e-07 -5.61444e-08
0.0259921 -5.07514e-07 -1.76478e-07
0.0259926 -1.12007e-06 -5.81447e-07
0.0259937 -2.7398e-06 -1.91666e-06
0.0259957 -3.92232e-06 -2.93946e-06
0.01 6.90164e-07 6.37246e-07
0.0100005 -0.00890862 -0.00540082
0.0185097 -0.0168226 -0.00782088
0.0259857 -0.0160957 -0.00352445
0.0348784 -0.0170409 -0.00166201
0.0519983 -0.0107101 -0.000793093
0.0511345 -0.00105273 -0.00035745
0.0516839 0.00623053 -0.000177871
0.0404403 0.0103552 -8.82389e-05
0.0340101 0.00860647 -4.79736e-05
0.0302676 0.00613899 -2.44335e-05
0.0281442 0.00396808 -1.23502e-05
0.0270376 0.0023802 -6.33358e-06
0.0265112 0.00133109 -3.2641e-06
0.0262951 0.000686979 -1.68759e-06
0.0262333 0.000315824 -8.76923e-07
0.0262411 0.000115209 -4.58798e-07
0.0262755 1.48634e-05 -2.41856e-07
0.026316 -2.97041e-05 -1.28437e-07
0.0263537 -4.50186e-05 -6.86656e-08
0.0263856 -4.61182e-05 -3.69317e-08
0.0264112 -4.11255e-05 -1.99739e-08
0.0264312 -3.41917e-05 -1.08621e-08
0.0264464 -2.72808e-05 -5.94334e-09
0.0264579 -2.12031e-05 -3.27714e-09
0.0264665 -1.61923e-05 -1.82631e-09
0.0264729 -1.22162e-05 -1.03359e-09
0.0264776 -9.13754e-06 -5.98366e-10
0.0264811 -6.79277e-06 -3.57929e-10
0.0264836 -5.02717e-06 -2.23968e-10
0.0264855 -3.70838e-06 -1.48444e-10
0.0264869 -2.72902e-06 -1.05182e-10
0.0264879 -2.00479e-06 -7.9933e-11
0.0264886 -1.47089e-06 -6.50089e-11
0.0264892 -1.07821e-06 -5.64278e-11
0.0264896 -7.8996e-07 -5.24726e-11
0.0264899 -5.78753e-07 -5.31405e-11
0.0264901 -4.24381e-07 -6.03564e-11
0.0264902 -3.12071e-07 -7.92916e-11
0.0264903 -2.31229e-07 -1.22105e-10
0.0264904 -1.74594e-07 -2.181e-10
0.0264905 -1.3782e-07 -4.4231e-10
0.0264905 -1.19562e-07 -9.99337e-10
0.0264906 -1.22304e-07 -2.47774e-09
0.0264906 -1.54485e-07 -6.64353e-09
0.0264907 -2.35037e-07 -1.89808e-08
0.0264907 -4.02412e-07 -5.70859e-08
0.0264908 -7.29776e-07 -1.79665e-07
0.026491 -1.33388e-06 -5.92505e-07
0.0264911 -2.36788e-06 -1.9536e-06
0.0264906 -3.01374e-06 -2.996e-06
0.0148 -5.45813e-07 1.44512e-06
0.0148018 -0.00957763 -0.00753911
0.0203688 -0.0189582 -0.0108275
0.023858 -0.0209844 -0.00472004
0.0260103 -0.0315294 -0.00217708
0.0286142 -0.019943 -0.000861623
0.026986 -9.97886e-06 -0.000178555
0.0278453 0.0133026 -0.000100909
0.0333378 0.0219218 -6.13081e-05
0.0292144 0.0141467 -3.37973e-05
0.0267517 0.00890088 -1.92495e-05
0.0257123 0.00529799 -1.03891e-05
0.0254726 0.0029303 -5.46276e-06
0.0255719 0.0015002 -2.8347e-06
0.0257666 0.000688987 -1.46417e-06
0.0259555 0.000256978 -7.59197e-07
0.0261076 4.35206e-05 -3.96828e-07
0.0262206 -5.07382e-05 -2.09337e-07
0.0263015 -8.35907e-05 -1.11412e-07
0.0263585 -8.70302e-05 -5.97693e-08
0.0263984 -7.79715e-05 -3.22932e-08
0.0264264 -6.49039e-05 -1.75646e-08
0.0264461 -5.17853e-05 -9.619e-09
0.02646 -4.02317e-05 -5.30919e-09
0.02647 -3.07082e-05 -2.95971e-09
0.0264771 -2.31563e-05 -1.67236e-09
0.0264822 -1.73134e-05 -9.62939e-10
0.0264859 -1.28662e-05 -5.69266e-10
0.0264885 -9.51938e-06 -3.48826e-10
0.0264905 -7.02063e-06 -2.23898e-10
0.0264919 -5.16565e-06 -1.51961e-10
0.0264929 -3.79425e-06 -1.0969e-10
0.0264936 -2.78341e-06 -8.42811e-11
0.0264942 -2.04e-06 -6.87605e-11
0.0264946 -1.49419e-06 -5.94833e-11
0.0264949 -1.09401e-06 -5.4879e-11
0.0264951 -8.01001e-07 -5.49986e-11
0.0264952 -5.86849e-07 -6.17798e-11
0.0264953 -4.30867e-07 -8.03934e-11
0.0264954 -3.18137e-07 -1.23006e-10
0.0264955 -2.38242e-07 -2.18963e-10
0.0264955 -1.84516e-07 -4.4344e-10
0.0264955 -1.5385e-07 -1.00145e-09
0.0264956 -1.47172e-07 -2.48272e-09
0.0264956 -1.70854e-07 -6.65665e-09
0.0264956 -2.39313e-07 -1.9017e-08
0.0264955 -3.78641e-07 -5.71868e-08
0.0264954 -6.29574e-07 -1.79928e-07
0.0264953 -1.0453e-06 -5.93003e-07
0.026495 -1.65567e-06 -1.95432e-06
0.0264945 -2.01001e-06 -2.99682e-06
0.018 -1.83092e-06 1.59202e-06
0.0180012 -0.00802284 -0.00906771
0.0211858 -0.0159218 -0.0130217
0.0208368 -0.016465 -0.00562888
0.0157127 -0.0190043 -0.00257016
-1.0781e-07 -0.0104445 -0.000893606
0.000127309 6.04918e-05 6.07796e-08
-6.15639e-05 6.82495e-05 -1.35793e-05
0.0133133 0.00908405 -2.41531e-05
0.0219561 0.0152445 -1.73027e-05
0.0216896 0.00966899 -1.15548e-05
0.0224299 0.00526214 -7.69044e-06
0.0235487 0.00252857 -4.41472e-06
0.0245266 0.00104134 -2.35341e-06
0.0252376 0.000305744 -1.23424e-06
0.0257097 -2.38823e-05 -6.49404e-07
0.0260086 -0.000149219 -3.44983e-07
0.0261933 -0.000178707 -1.85259e-07
0.0263063 -0.000167379 -1.00493e-07
0.0263755 -0.000141781 -5.49994e-08
0.0264182 -0.000113948 -3.03473e-08
0.0264449 -8.87827e-05 -1.68824e-08
0.0264618 -6.78313e-05 -9.47829e-09
0.0264727 -5.11553e-05 -5.38107e-09
0.0264799 -3.82381e-05 -3.09863e-09
0.0264847 -2.84059e-05 -1.81722e-09
0.0264879 -2.10091e-05 -1.09088e-09
0.0264902 -1.54894e-05 -6.74181e-10
0.0264918 -1.13937e-05 -4.3148e-10
0.0264929 -8.36696e-06 -2.87477e-10
0.0264936 -6.13674e-06 -2.00131e-10
0.0264942 -4.49693e-06 -1.45821e-10
0.0264946 -3.29312e-06 -1.11199e-10
0.0264949 -2.4104e-06 -8.87256e-11
0.0264951 -1.76371e-06 -7.42569e-11
0.0264953 -1.29028e-06 -6.58151e-11
0.0264954 -9.43932e-07 -6.31382e-11
0.0264955 -6.90805e-07 -6.79397e-11
0.0264955 -5.06146e-07 -8.5254e-11
0.0264956 -3.71991e-07 -1.27209e-10
0.0264956 -2.75512e-07 -2.23244e-10
0.0264956 -2.07906e-07 -4.48834e-10
0.0264956 -1.63777e-07 -1.00963e-09
0.0264956 -1.41002e-07 -2.49656e-09
0.0264956 -1.41093e-07 -6.68079e-09
0.0264955 -1.70028e-07 -1.90575e-08
0.0264954 -2.39233e-07 -5.7245e-08
0.0264952 -3.65537e-07 -1.79986e-07
0.0264949 -5.67583e-07 -5.93072e-07
0.0264945 -8.47307e-07 -1.95443e-06
0.026494 -1.00495e-06 -2.99695e-06
0.0196 -1.72711e-06 1.10375e-06
0.0196002 -0.00504361 -0.00985541
0.0217639 -0.00986803 -0.0141592
0.020226 -0.00922379 -0.00608241
0.0149569 -0.00737663 -0.00267647
0.00475063 -0.00297898 -0.00114028
0.000101889 -9.47411e-05 -0.000243531
3.31772e-05 -3.31772e-05 -1.06834e-08
-5.9314e-05 6.38138e-05 -4.61183e-06
0.00908535 0.00580092 -8.55026e-06
0.0152546 0.00844568 -7.3606e-06
0.0187351 0.00345004 -5.82521e-06
0.0217438 0.000840093 -3.77223e-06
0.023746 -0.00018503 -2.11496e-06
0.0249496 -0.000492105 -1.14443e-06
0.0256393 -0.000512863 -6.17036e-07
0.0260252 -0.000439398 -3.35561e-07
0.0262385 -0.00034813 -1.84492e-07
0.0263555 -0.000265676 -1.02402e-07
0.0264194 -0.000198845 -5.72788e-08
0.0264543 -0.000147267 -3.22627e-08
0.0264732 -0.000108436 -1.83083e-08
0.0264835 -7.95844e-05 -1.0485e-08
0.0264891 -5.83029e-05 -6.07606e-09
0.0264922 -4.26683e-05 -3.57533e-09
0.0264938 -3.12083e-05 -2.14495e-09
0.0264947 -2.28189e-05 -1.3177e-09
0.0264952 -1.66818e-05 -8.32486e-10
0.0264954 -1.2194e-05 -5.42924e-10
0.0264955 -8.91301e-06 -3.66554e-10
0.0264956 -6.51464e-06 -2.56623e-10
0.0264956 -4.76157e-06 -1.86407e-10
0.0264957 -3.48022e-06 -1.40493e-10
0.0264957 -2.54367e-06 -1.09954e-10
0.0264957 -1.85916e-06 -8.97031e-11
0.0264957 -1.35885e-06 -7.71171e-11
0.0264957 -9.93198e-07 -7.14949e-11
0.0264957 -7.25957e-07 -7.42613e-11
0.0264957 -5.30654e-07 -9.02838e-11
0.0264957 -3.87942e-07 -1.31638e-10
0.0264957 -2.83681e-07 -2.27837e-10
0.0264957 -2.07539e-07 -4.54579e-10
0.0264956 -1.5195e-07 -1.01789e-09
0.0264956 -1.11345e-07 -2.50907e-09
0.0264956 -8.15453e-08 -6.69911e-09
0.0264955 -5.92873e-08 -1.90808e-08
0.0264954 -4.18986e-08 -5.72662e-08
0.0264951 -2.735e-08 -1.7999e-07
0.0264948 -1.49498e-08 -5.93067e-07
0.0264944 -4.50472e-09 -1.95444e-06
0.0264939 3.0795e-10 -2.99698e-06
0.0196 -1.17303e-06 4.65133e-07
0.0196003 -0.00180549 -0.00987335
0.0221004 -0.00358648 -0.0141875
0.0214014 -0.00286326 -0.00608771
0.0183014 -8.20312e-05 -0.00261088
0.0139737 0.0061031 -0.00129391
0.00905392 0.00510404 -0.000580972
0.0001025 -8.69826e-05 -0.000123896
2.76686e-05 -2.76686e-05 -3.50127e-09
-5.77048e-05 6.09232e-05 -1.74826e-06
0.00579971 3.1292e-05 -4.30131e-06
0.0153625 -0.0012187 -5.51503e-06
0.02094 -0.0024769 -4.69427e-06
0.0237755 -0.00216112 -2.63765e-06
0.0251829 -0.00158562 -1.38015e-06
0.0258768 -0.00109841 -7.28226e-07
0.0262168 -0.000747759 -3.92805e-07
0.0263811 -0.000508611 -2.15726e-07
0.0264583 -0.000348141 -1.19887e-07
0.0264927 -0.000240476 -6.71496e-08
0.0265064 -0.000167711 -3.78492e-08
0.0265103 -0.00011802 -2.14781e-08
0.02651 -8.37084e-05 -1.22927e-08
0.0265081 -5.97644e-05 -7.11579e-09
0.0265058 -4.28982e-05 -4.18073e-09
0.0265037 -3.0923e-05 -2.50308e-09
0.0265018 -2.23649e-05 -1.53362e-09
0.0265003 -1.62168e-05 -9.65463e-10
0.0264992 -1.17819e-05 -6.2669e-10
0.0264983 -8.57261e-06 -4.20531e-10
0.0264976 -6.24454e-06 -2.92169e-10
0.0264971 -4.55255e-06 -2.10286e-10
0.0264967 -3.32112e-06 -1.56821e-10
0.0264965 -2.42391e-06 -1.21293e-10
0.0264962 -1.76967e-06 -9.76895e-11
0.0264961 -1.29226e-06 -8.28272e-11
0.026496 -9.43662e-07 -7.56631e-11
0.0264959 -6.88879e-07 -7.74189e-11
0.0264958 -5.02344e-07 -9.2856e-11
0.0264958 -3.65244e-07 -1.34023e-10
0.0264958 -2.63535e-07 -2.30482e-10
0.0264957 -1.8638e-07 -4.58057e-10
0.0264957 -1.24813e-07 -1.02295e-09
0.0264957 -7.04156e-08 -2.51653e-09
0.0264956 -1.38246e-08 -6.70935e-09
0.0264955 5.70284e-08 -1.90923e-08
0.0264954 1.58663e-07 -5.72727e-08
0.0264952 3.12261e-07 -1.79979e-07
0.026495 5.38212e-07 -5.9303e-07
0.0264945 8.38452e-07 -1.95439e-06
0.026494 1.00556e-06 -2.99693e-06
0.018 -8.33367e-07 -1.51021e-07
0.0180008 0.00085947 -0.0091571
0.02165 0.00132662 -0.0131674
0.022602 0.00137138 -0.00567985
0.0219917 0.00340309 -0.0024455
0.0213923 0.00808682 -0.00118047
0.0223716 0.0148193 -0.000632397
0.0144334 0.00923053 -0.000291383
0.000104371 -6.95942e-05 -6.3282e-05
-5.08489e-05 -7.46275e-05 1.66572e-07
6.10044e-06 -0.00691654 3.7235e-07
0.0162679 -0.0116826 -4.02639e-06
0.0228553 -0.00756725 -6.81889e-06
0.0252392 -0.00442432 -3.73737e-06
0.0261365 -0.00259131 -1.86359e-06
0.0264723 -0.00154558 -9.48804e-07
0.026586 -0.000942979 -4.97926e-07
0.0266117 -0.000589271 -2.67048e-07
0.0266044 -0.000377075 -1.45169e-07
0.0265869 -0.000246767 -7.95907e-08
0.0265682 -0.000164819 -4.39144e-08
0.0265516 -0.000112073 -2.43771e-08
0.0265381 -7.73743e-05 -1.36284e-08
0.0265275 -5.40945e-05 -7.68941e-09
0.0265193 -3.82049e-05 -4.39167e-09
0.0265132 -2.72008e-05 -2.5488e-09
0.0265086 -1.94884e-05 -1.51024e-09
0.0265052 -1.40308e-05 -9.18479e-10
0.0265026 -1.01391e-05 -5.76532e-10
0.0265008 -7.34762e-06 -3.75465e-10
0.0264994 -5.33605e-06 -2.54744e-10
0.0264984 -3.88142e-06 -1.80528e-10
0.0264977 -2.82672e-06 -1.33778e-10
0.0264971 -2.06042e-06 -1.03754e-10
0.0264967 -1.50279e-06 -8.44935e-11
0.0264964 -1.09648e-06 -7.298e-11
0.0264962 -8.00023e-07 -6.836e-11
0.0264961 -5.83344e-07 -7.20311e-11
0.026496 -4.24438e-07 -8.89035e-11
0.0264959 -3.07021e-07 -1.31146e-10
0.0264958 -2.18705e-07 -2.2842e-10
0.0264958 -1.49488e-07 -4.56628e-10
0.0264957 -9.03119e-08 -1.02206e-09
0.0264957 -3.1389e-08 -2.51619e-09
0.0264957 4.00704e-08 -6.70965e-09
0.0264956 1.43177e-07 -1.9093e-08
0.0264956 3.07968e-07 -5.72699e-08
0.0264955 5.79905e-07 -1.79955e-07
0.0264953 1.01623e-06 -5.9294e-07
0.026495 1.6467e-06 -1.95423e-06
0.0264945 2.01061e-06 -2.99674e-06
0.0148 -7.824e-07 -7.33463e-07
0.0148013 0.00237633 -0.00781799
0.0202173 0.003926 -0.0112838
0.0231074 0.00315091 -0.00495843
0.0247107 0.00426423 -0.0021978
0.0265197 0.00737742 -0.00107082
0.0299135 0.0129994 -0.000564671
0.0354424 0.02279 -0.000311369
0.0307178 0.0145059 -0.000128605
0.0304074 -7.64771e-11 -2.2944e-05
0.0319278 -0.0162266 -9.70183e-06
0.0301215 -0.0240577 -9.49254e-06
0.0289286 -0.0114406 -8.79176e-06
0.0281694 -0.00543773 -4.48769e-06
0.0276468 -0.00281615 -2.19842e-06
0.0272854 -0.00154644 -1.10149e-06
0.0270382 -0.000886334 -5.64125e-07
0.0268701 -0.000526575 -2.93147e-07
0.0267555 -0.000323083 -1.53609e-07
0.026677 -0.000204127 -8.07946e-08
0.0266227 -0.000132414 -4.25054e-08
0.0265849 -8.7907e-05 -2.2297e-08
0.0265582 -5.95278e-05 -1.16254e-08
0.0265393 -4.09819e-05 -6.00249e-09
0.0265258 -2.85964e-05 -3.05475e-09
0.0265162 -2.01699e-05 -1.52259e-09
0.0265092 -1.43473e-05 -7.36709e-10
0.0265041 -1.02728e-05 -3.41678e-10
0.0265005 -7.3926e-06 -1.49275e-10
0.0264978 -5.34043e-06 -6.03007e-11
0.0264959 -3.86919e-06 -2.28876e-11
0.0264945 -2.80942e-06 -1.02547e-11
0.0264934 -2.04326e-06 -8.8697e-12
0.0264927 -1.48784e-06 -1.21854e-11
0.0264921 -1.08432e-06 -1.73833e-11
0.0264917 -7.90618e-07 -2.37788e-11
0.0264914 -5.76468e-07 -3.22355e-11
0.0264912 -4.19932e-07 -4.53986e-11
0.0264911 -3.04972e-07 -6.90645e-11
0.026491 -2.19649e-07 -1.15998e-10
0.0264909 -1.54743e-07 -2.16205e-10
0.0264908 -1.02532e-07 -4.45715e-10
0.0264908 -5.55325e-08 -1.01074e-09
0.0264907 -4.83328e-09 -2.50263e-09
0.0264907 6.25286e-08 -6.69208e-09
0.0264907 1.68243e-07 -1.90699e-08
0.0264908 3.51535e-07 -5.7236e-08
0.0264909 6.85449e-07 -1.79867e-07
0.026491 1.30003e-06 -5.92595e-07
0.026491 2.35601e-06 -1.95345e-06
0.0264906 3.01431e-06 -2.99574e-06
0.01 -1.16344e-06 -1.4132e-06
0.0100003 0.00223142 -0.00613267
0.017929 0.00355275 -0.00894592
0.0226006 0.0024867 -0.00409998
0.0258354 0.0028246 -0.00191453