# vtk DataFile Version 2.0
Tobias Weinzierl: CPU, Manycore and Cluster Computing
ASCII

DATASET STRUCTURED_POINTS
DIMENSIONS  51 11 6

ORIGIN 0 0 0 

SPACING 0.1 0.1 0.1 

POINT_DATA 3366

VECTORS velocity float
0 0 0
2.71509e-13 0 0
8.84246e-09 0 0
3.73232e-09 0 0
-3.64349e-08 0 0
-9.44051e-09 0 0
-5.43507e-09 0 0
-7.13299e-09 0 0
-7.79756e-09 0 0
-5.63689e-09 0 0
-2.55526e-09 0 0
-4.26503e-09 0 0
-1.22366e-08 0 0
-2.19167e-08 0 0
-2.81268e-08 0 0
-2.98364e-08 0 0
-2.9304e-08 0 0
-2.88286e-08 0 0
-2.92738e-08 0 0
-3.04494e-08 0 0
-3.18724e-08 0 0
-3.31795e-08 0 0
-3.42074e-08 0 0
-3.49349e-08 0 0
-3.54086e-08 0 0
-3.56943e-08 0 0
-3.58522e-08 0 0
-3.59296e-08 0 0
-3.59595e-08 0 0
-3.59637e-08 0 0
-3.59555e-08 0 0
-3.59428e-08 0 0
-3.59295e-08 0 0
-3.59177e-08 0 0
-3.5908e-08 0 0
-3.59006e-08 0 0
-3.58951e-08 0 0
-3.58912e-08 0 0
-3.58886e-08 0 0
-3.58869e-08 0 0
-3.58859e-08 0 0
-3.58854e-08 0 0
-3.58853e-08 0 0
-3.58855e-08 0 0
-3.5886e-08 0 0
-3.58869e-08 0 0
-3.5888e-08 0 0
-3.58891e-08 0 0
-3.58904e-08 0 0
-3.58928e-08 0 0
0.00205928 0 0
0 3.82851e-07 0
-3.80418e-12 -8.26859e-09 0
1.51341e-08 -1.43214e-08 0
1.19188e-08 -1.72045e-10 0
-4.30726e-08 -1.83816e-08 0
2.44314e-09 -2.19524e-08 0
1.30046e-09 1.71428e-08 0
-9.36591e-09 2.93118e-08 0
-1.4395e-08 2.44969e-08 0
-1.42825e-08 1.51198e-08 0
-1.10636e-08 1.0104e-08 0
-1.33214e-08 1.28511e-08 0
-2.5485e-08 1.63492e-08 0
-4.08943e-08 1.41242e-08 0
-5.06608e-08 7.66554e-09 0
-5.36525e-08 2.16142e-09 0
-5.44988e-08 2.84696e-11 0
-5.69267e-08 2.87983e-10 0
-6.15188e-08 1.1771e-09 0
-6.7118e-08 1.72733e-09 0
-7.24556e-08 1.77903e-09 0
-7.68113e-08 1.51353e-09 0
-8.00002e-08 1.13683e-09 0
-8.21476e-08 7.77186e-10 0
-8.34931e-08 4.88713e-10 0
-8.42774e-08 2.80855e-10 0
-8.46966e-08 1.42779e-10 0
-8.48932e-08 5.76422e-11 0
-8.49628e-08 9.32554e-12 0
-8.49659e-08 -1.51226e-11 0
-8.49386e-08 -2.51163e-11 0
-8.4901e-08 -2.70198e-11 0
-8.48636e-08 -2.48713e-11 0
-8.48308e-08 -2.10732e-11 0
-8.48043e-08 -1.69482e-11 0
-8.4784e-08 -1.31485e-11 0
-8.47689e-08 -9.93445e-12 0
-8.47581e-08 -7.35483e-12 0
-8.47507e-08 -5.35588e-12 0
-8.47458e-08 -3.8439e-12 0
-8.47427e-08 -2.71827e-12 0
-8.47409e-08 -1.88757e-12 0
-8.47401e-08 -1.27475e-12 0
-8.47402e-08 -8.14668e-13 0
-8.47411e-08 -4.56246e-13 0
-8.47428e-08 -1.58843e-13 0
-8.47451e-08 1.48851e-13 0
-8.4748e-08 5.61206e-13 0
-8.47518e-08 1.71413e-12 0
-8.47584e-08 5.87411e-12 0
0.00586314 -5.54043e-08 0
0 -2.25631e-08 0
-5.93649e-12 -6.89602e-09 0
1.7515e-08 -2.25266e-08 0
3.3682e-08 -3.8106e-08 0
1.63007e-08 -8.08492e-08 0
5.8497e-08 -6.57593e-08 0
3.74314e-08 2.04634e-10 0
7.70104e-09 1.12065e-08 0
-2.113e-08 5.66588e-09 0
-3.18684e-08 5.70102e-09 0
-2.85603e-08 8.70073e-09 0
-2.48058e-08 1.00129e-08 0
-3.18015e-08 9.72214e-09 0
-4.45265e-08 1.05844e-08 0
-5.20947e-08 1.3542e-08 0
-5.28604e-08 1.67795e-08 0
-5.1792e-08 1.82861e-08 0
-5.29356e-08 1.75984e-08 0
-5.69473e-08 1.53223e-08 0
-6.24765e-08 1.22892e-08 0
-6.79575e-08 9.18583e-09 0
-7.24498e-08 6.44924e-09 0
-7.56785e-08 4.27236e-09 0
-7.77704e-08 2.67113e-09 0
-7.90023e-08 1.56614e-09 0
-7.9653e-08 8.45542e-10 0
-7.99444e-08 4.01091e-10 0
-8.00321e-08 1.43511e-10 0
-8.00155e-08 5.81682e-12 0
-7.9954e-08 -5.89841e-11 0
-7.988e-08 -8.2095e-11 0
-7.98097e-08 -8.32095e-11 0
-7.97497e-08 -7.41183e-11 0
-7.97017e-08 -6.14625e-11 0
-7.96649e-08 -4.86885e-11 0
-7.96377e-08 -3.73625e-11 0
-7.9618e-08 -2.80094e-11 0
-7.96042e-08 -2.06241e-11 0
-7.95948e-08 -1.49664e-11 0
-7.95885e-08 -1.07212e-11 0
-7.95845e-08 -7.57786e-12 0
-7.95821e-08 -5.26362e-12 0
-7.95809e-08 -3.55346e-12 0
-7.95808e-08 -2.26071e-12 0
-7.95816e-08 -1.21444e-12 0
-7.95834e-08 -2.49659e-13 0
-7.95861e-08 9.43421e-13 0
-7.95897e-08 3.10536e-12 0
-7.9594e-08 6.8046e-12 0
-7.96003e-08 1.19408e-11 0
0.00827484 -1.12826e-07 0
0 -6.31294e-07 0
7.81041e-13 -1.06737e-08 0
2.12555e-08 -3.63975e-08 0
4.28259e-08 -6.80137e-08 0
1.85676e-08 -9.09077e-08 0
4.66134e-08 -4.86403e-08 0
3.07078e-08 -2.75628e-11 0
9.93424e-09 -5.31385e-09 0
-3.44286e-08 -2.05452e-08 0
-5.00048e-08 -3.55793e-08 0
-4.47514e-08 -4.22781e-08 0
-4.42557e-08 -3.75667e-08 0
-5.55954e-08 -1.81089e-08 0
-7.08134e-08 7.15096e-09 0
-7.7303e-08 2.55942e-08 0
-7.30324e-08 3.27712e-08 0
-6.31815e-08 3.15966e-08 0
-5.37133e-08 2.67585e-08 0
-4.77446e-08 2.11277e-08 0
-4.53125e-08 1.58021e-08 0
-4.50176e-08 1.11714e-08 0
-4.55033e-08 7.41835e-09 0
-4.6002e-08 4.58914e-09 0
-4.62525e-08 2.60366e-09 0
-4.62585e-08 1.30428e-09 0
-4.61084e-08 5.13225e-10 0
-4.58894e-08 7.07519e-11 0
-4.5661e-08 -1.48713e-10 0
-4.54552e-08 -2.35169e-10 0
-4.52848e-08 -2.48576e-10 0
-4.51512e-08 -2.26352e-10 0
-4.50503e-08 -1.90324e-10 0
-4.49763e-08 -1.52224e-10 0
-4.49232e-08 -1.1765e-10 0
-4.48858e-08 -8.87013e-11 0
-4.486e-08 -6.56414e-11 0
-4.48423e-08 -4.78801e-11 0
-4.48306e-08 -3.45218e-11 0
-4.4823e-08 -2.46449e-11 0
-4.48181e-08 -1.74273e-11 0
-4.48153e-08 -1.21872e-11 0
-4.48137e-08 -8.38147e-12 0
-4.48132e-08 -5.58069e-12 0
-4.48135e-08 -3.44354e-12 0
-4.48147e-08 -1.65906e-12 0
-4.48166e-08 1.6736e-13 0
-4.48191e-08 2.42484e-12 0
-4.48216e-08 5.14373e-12 0
-4.48234e-08 8.03469e-12 0
-4.4826e-08 1.07846e-11 0
0.00915582 -1.10491e-07 0
0 -1.22304e-06 0
-5.41582e-12 -1.89696e-08 0
9.09078e-09 -5.08068e-08 0
1.26084e-08 -6.45426e-08 0
-1.27438e-08 -5.04983e-08 0
-6.98008e-12 -1.78031e-08 0
-3.69793e-11 -7.59519e-11 0
6.21151e-11 -7.52536e-11 0
-1.98958e-08 -2.10551e-08 0
-5.75813e-08 -5.68105e-08 0
-6.78285e-08 -7.05857e-08 0
-7.20986e-08 -5.64048e-08 0
-8.46317e-08 -2.26504e-08 0
-9.63282e-08 1.29398e-08 0
-1.00124e-07 3.32498e-08 0
-9.39052e-08 3.64222e-08 0
-7.93824e-08 2.99283e-08 0
-6.2056e-08 2.15527e-08 0
-4.73516e-08 1.46894e-08 0
-3.73801e-08 9.60035e-09 0
-3.14546e-08 5.81445e-09 0
-2.80469e-08 3.04495e-09 0
-2.59629e-08 1.15016e-09 0
-2.45512e-08 -1.62719e-11 0
-2.35219e-08 -6.33924e-10 0
-2.27531e-08 -8.82276e-10 0
-2.21836e-08 -9.09896e-10 0
-2.1771e-08 -8.23517e-10 0
-2.1479e-08 -6.91462e-10 0
-2.12771e-08 -5.52833e-10 0
-2.114e-08 -4.27095e-10 0
-2.10484e-08 -3.2179e-10 0
-2.09881e-08 -2.37931e-10 0
-2.09489e-08 -1.73412e-10 0
-2.09237e-08 -1.24985e-10 0
-2.09079e-08 -8.9292e-11 0
-2.08981e-08 -6.33409e-11 0
-2.08924e-08 -4.4663e-11 0
-2.08891e-08 -3.13165e-11 0
-2.08875e-08 -2.18199e-11 0
-2.0887e-08 -1.5065e-11 0
-2.0887e-08 -1.0232e-11 0
-2.08876e-08 -6.70802e-12 0
-2.08886e-08 -4.00503e-12 0
-2.08901e-08 -1.74501e-12 0
-2.08917e-08 2.6234e-13 0
-2.08932e-08 2.00657e-12 0
-2.0894e-08 3.37559e-12 0
-2.0894e-08 4.40483e-12 0
-2.08951e-08 5.60489e-12 0
0.00942455 -6.11513e-08 0
0 -1.10049e-06 0
-1.73086e-11 -2.04413e-08 0
-3.21574e-09 -4.28428e-08 0
-7.14835e-09 -5.07461e-08 0
-2.9182e-08 -5.61848e-08 0
-2.42013e-08 -2.78448e-08 0
-4.94087e-11 4.77494e-11 0
1.37467e-11 -1.37467e-11 0
5.39459e-11 -6.99927e-11 0
-3.07995e-08 -3.10516e-08 0
-7.89255e-08 -7.37489e-08 0
-8.15295e-08 -6.77456e-08 0
-8.47991e-08 -2.5383e-08 0
-8.83819e-08 1.67386e-08 0
-9.35799e-08 3.87579e-08 0
-9.54687e-08 3.83101e-08 0
-8.69476e-08 2.5843e-08 0
-6.95618e-08 1.29369e-08 0
-5.09145e-08 4.36796e-09 0
-3.64387e-08 -2.94518e-10 0
-2.71076e-08 -2.62314e-09 0
-2.16124e-08 -3.64449e-09 0
-1.8433e-08 -3.87523e-09 0
-1.65474e-08 -3.62577e-09 0
-1.53923e-08 -3.12669e-09 0
-1.46718e-08 -2.54544e-09 0
-1.42225e-08 -1.98663e-09 0
-1.39465e-08 -1.50265e-09 0
-1.37809e-08 -1.11029e-09 0
-1.36845e-08 -8.06181e-10 0
-1.36307e-08 -5.77812e-10 0
-1.36022e-08 -4.10158e-10 0
-1.35885e-08 -2.89079e-10 0
-1.3583e-08 -2.02669e-10 0
-1.3582e-08 -1.41528e-10 0
-1.35833e-08 -9.8536e-11 0
-1.35856e-08 -6.84364e-11 0
-1.35882e-08 -4.74237e-11 0
-1.35908e-08 -3.27756e-11 0
-1.35933e-08 -2.25609e-11 0
-1.35955e-08 -1.54146e-11 0
-1.35975e-08 -1.03692e-11 0
-1.35993e-08 -6.74611e-12 0
-1.3601e-08 -4.10284e-12 0
-1.36026e-08 -2.18586e-12 0
-1.36041e-08 -8.48561e-13 0
-1.36053e-08 1.06375e-14 0
-1.3606e-08 4.19414e-13 0
-1.36064e-08 3.6283e-13 0
-1.36079e-08 3.17836e-13 0
0.00947943 7.06298e-09 0
0 -7.64111e-07 0
-1.07231e-11 -1.38814e-08 0
-3.78791e-09 -3.48871e-08 0
-7.2968e-09 -4.36736e-08 0
-4.17931e-08 -4.0373e-08 0
-5.87861e-08 -2.14169e-08 0
-2.22679e-08 -3.71091e-09 0
-4.73484e-11 4.82433e-11 0
5.2759e-12 -5.2759e-12 0
4.02241e-11 -6.70146e-11 0
-3.5797e-08 -4.19942e-08 0
-5.49717e-08 -6.68304e-08 0
-5.94891e-08 -2.27812e-08 0
-5.6812e-08 2.34038e-08 0
-6.0453e-08 4.69005e-08 0
-7.11385e-08 4.31056e-08 0
-7.54123e-08 2.41726e-08 0
-6.66819e-08 5.70273e-09 0
-5.12704e-08 -5.38888e-09 0
-3.73878e-08 -9.92122e-09 0
-2.8282e-08 -1.0698e-08 0
-2.33968e-08 -9.73581e-09 0
-2.11494e-08 -8.11387e-09 0
-2.02764e-08 -6.38256e-09 0
-2.00399e-08 -4.8148e-09 0
-2.00681e-08 -3.52144e-09 0
-2.01885e-08 -2.51801e-09 0
-2.03264e-08 -1.77193e-09 0
-2.0452e-08 -1.23335e-09 0
-2.05562e-08 -8.52386e-10 0
-2.06384e-08 -5.86541e-10 0
-2.07014e-08 -4.02639e-10 0
-2.07489e-08 -2.76086e-10 0
-2.07844e-08 -1.89248e-10 0
-2.08107e-08 -1.29736e-10 0
-2.08302e-08 -8.89615e-11 0
-2.08447e-08 -6.1012e-11 0
-2.08556e-08 -4.18354e-11 0
-2.08637e-08 -2.86575e-11 0
-2.08699e-08 -1.95794e-11 0
-2.08747e-08 -1.33042e-11 0
-2.08783e-08 -8.95489e-12 0
-2.08811e-08 -5.94748e-12 0
-2.08835e-08 -3.89458e-12 0
-2.08856e-08 -2.54137e-12 0
-2.08876e-08 -1.73234e-12 0
-2.08893e-08 -1.4044e-12 0
-2.08908e-08 -1.66202e-12 0
-2.0892e-08 -2.8067e-12 0
-2.08941e-08 -4.67403e-12 0
0.00942451 7.25678e-08 0
0 -5.3634e-07 0
-2.22627e-12 -1.07326e-08 0
-2.61234e-09 -2.63609e-08 0
-1.20213e-08 -3.25925e-08 0
-4.38625e-08 -2.62628e-08 0
-7.0537e-08 -9.27788e-09 0
-5.78589e-08 -1.77791e-09 0
-2.86456e-08 -1.80005e-09 0
-6.12876e-11 3.50043e-11 0
3.69543e-11 2.69096e-11 0
2.54799e-12 -2.15732e-08 0
-3.81265e-08 -3.22025e-08 0
-5.99788e-08 -1.98673e-09 0
-4.99687e-08 3.07764e-08 0
-3.10191e-08 4.59428e-08 0
-3.0143e-08 3.92007e-08 0
-4.23246e-08 1.97511e-08 0
-4.95614e-08 1.08754e-09 0
-4.7674e-08 -9.84136e-09 0
-4.26503e-08 -1.35584e-08 0
-3.92038e-08 -1.31253e-08 0
-3.82033e-08 -1.09873e-08 0
-3.87671e-08 -8.48649e-09 0
-3.9933e-08 -6.22821e-09 0
-4.1137e-08 -4.41817e-09 0
-4.21503e-08 -3.06543e-09 0
-4.29257e-08 -2.09819e-09 0
-4.34898e-08 -1.42554e-09 0
-4.38892e-08 -9.65455e-10 0
-4.41678e-08 -6.53527e-10 0
-4.43609e-08 -4.42833e-10 0
-4.44945e-08 -3.00591e-10 0
-4.45872e-08 -2.04437e-10 0
-4.46516e-08 -1.39296e-10 0
-4.46967e-08 -9.50581e-11 0
-4.47285e-08 -6.49453e-11 0
-4.47511e-08 -4.44032e-11 0
-4.47673e-08 -3.03622e-11 0
-4.4779e-08 -2.0748e-11 0
-4.47875e-08 -1.41567e-11 0
-4.47938e-08 -9.63855e-12 0
-4.47984e-08 -6.55052e-12 0
-4.4802e-08 -4.45896e-12 0
-4.4805e-08 -3.08002e-12 0
-4.48076e-08 -2.24486e-12 0
-4.48101e-08 -1.8861e-12 0
-4.48125e-08 -2.03188e-12 0
-4.48146e-08 -2.88421e-12 0
-4.48167e-08 -5.09741e-12 0
-4.48197e-08 -9.12572e-12 0
0.00915575 1.13265e-07 0
0 -4.58405e-07 0
1.26314e-12 -6.00701e-09 0
-2.51693e-09 -1.63498e-08 0
-1.91216e-08 -2.24982e-08 0
-5.40721e-08 -1.89038e-08 0
-8.2239e-08 -1.43794e-09 0
-7.68296e-08 7.00037e-09 0
-6.2864e-08 -1.68973e-08 0
-3.91609e-08 -1.85884e-08 0
-3.52367e-08 -1.63816e-12 0
-3.82937e-08 1.62194e-09 0
-7.16209e-08 1.31347e-08 0
-9.51769e-08 2.64251e-08 0
-7.27054e-08 2.7035e-08 0
-2.8343e-08 1.94204e-08 0
-1.19912e-08 9.96354e-09 0
-2.86735e-08 1.77792e-09 0
-5.06066e-08 -3.75746e-09 0
-6.22557e-08 -6.33031e-09 0
-6.60431e-08 -6.71395e-09 0
-6.761e-08 -5.99276e-09 0
-6.93657e-08 -4.90063e-09 0
-7.1458e-08 -3.79462e-09 0
-7.34879e-08 -2.82665e-09 0
-7.51879e-08 -2.04773e-09 0
-7.64887e-08 -1.45543e-09 0
-7.74322e-08 -1.02191e-09 0
-7.80957e-08 -7.12285e-10 0
-7.85545e-08 -4.94388e-10 0
-7.88695e-08 -3.42322e-10 0
-7.90853e-08 -2.36675e-10 0
-7.92334e-08 -1.63456e-10 0
-7.93353e-08 -1.12781e-10 0
-7.94059e-08 -7.77432e-11 0
-7.9455e-08 -5.3537e-11 0
-7.94894e-08 -3.68274e-11 0
-7.95137e-08 -2.53023e-11 0
-7.95311e-08 -1.736e-11 0
-7.95435e-08 -1.18926e-11 0
-7.95526e-08 -8.13507e-12 0
-7.95592e-08 -5.56077e-12 0
-7.95642e-08 -3.81051e-12 0
-7.9568e-08 -2.64545e-12 0
-7.95712e-08 -1.91809e-12 0
-7.95741e-08 -1.55128e-12 0
-7.95769e-08 -1.53904e-12 0
-7.95798e-08 -1.97179e-12 0
-7.95827e-08 -3.06108e-12 0
-7.9586e-08 -5.57071e-12 0
-7.95913e-08 -1.04965e-11 0
0.0082748 1.03863e-07 0
0 -4.75245e-07 0
8.1559e-12 -1.69729e-09 0
-3.13365e-09 -5.99308e-09 0
-2.40655e-08 -9.53799e-09 0
-5.85673e-08 -8.62353e-09 0
-8.59912e-08 -4.61548e-09 0
-8.32903e-08 -1.15059e-09 0
-7.16647e-08 -8.57284e-09 0
-8.30119e-08 -9.68797e-09 0
-7.7731e-08 5.75352e-09 0
-6.89312e-08 1.86788e-08 0
-6.66439e-08 2.48792e-08 0
-6.34065e-08 2.21062e-08 0
-4.13008e-08 1.10185e-08 0
-1.42975e-08 -3.67044e-09 0
-1.38336e-08 -1.42967e-08 0
-3.81919e-08 -1.53571e-08 0
-6.29786e-08 -9.40647e-09 0
-7.5646e-08 -3.01548e-09 0
-7.9212e-08 3.72834e-10 0
-7.95903e-08 1.172e-09 0
-7.9742e-08 8.48893e-10 0
-8.03056e-08 3.45907e-10 0
-8.11197e-08 -5.70139e-12 0
-8.19513e-08 -1.77465e-10 0
-8.26712e-08 -2.28219e-10 0
-8.32406e-08 -2.1672e-10 0
-8.36679e-08 -1.81051e-10 0
-8.39786e-08 -1.41136e-10 0
-8.42005e-08 -1.05533e-10 0
-8.43574e-08 -7.68409e-11 0
-8.44677e-08 -5.49663e-11 0
-8.45452e-08 -3.88394e-11 0
-8.45997e-08 -2.72027e-11 0
-8.46382e-08 -1.89264e-11 0
-8.46654e-08 -1.30996e-11 0
-8.46849e-08 -9.02781e-12 0
-8.46989e-08 -6.19869e-12 0
-8.47091e-08 -4.24252e-12 0
-8.47166e-08 -2.8968e-12 0
-8.47222e-08 -1.97814e-12 0
-8.47264e-08 -1.36104e-12 0
-8.47298e-08 -9.63361e-13 0
-8.47327e-08 -7.38237e-13 0
-8.47354e-08 -6.6645e-13 0
-8.47384e-08 -7.62067e-13 0
-8.47415e-08 -1.09584e-12 0
-8.47449e-08 -1.75145e-12 0
-8.47491e-08 -2.99303e-12 0
-8.47564e-08 -5.6169e-12 0
0.00586316 4.39435e-08 0
0 0 0
6.13865e-12 0 0
-1.71553e-09 0 0
-1.20947e-08 0 0
-2.73736e-08 0 0
-3.96974e-08 0 0
-4.20522e-08 0 0
-3.74471e-08 0 0
-4.38638e-08 0 0
-4.24977e-08 0 0
-3.06344e-08 0 0
-1.61149e-08 0 0
-5.92903e-09 0 0
9.29679e-10 0 0
2.28076e-09 0 0
-6.39838e-09 0 0
-2.05803e-08 0 0
-3.16331e-08 0 0
-3.6399e-08 0 0
-3.69947e-08 0 0
-3.61983e-08 0 0
-3.54336e-08 0 0
-3.50517e-08 0 0
-3.49794e-08 0 0
-3.50715e-08 0 0
-3.52219e-08 0 0
-3.53738e-08 0 0
-3.55036e-08 0 0
-3.5606e-08 0 0
-3.5683e-08 0 0
-3.57394e-08 0 0
-3.57801e-08 0 0
-3.58092e-08 0 0
-3.583e-08 0 0
-3.58448e-08 0 0
-3.58554e-08 0 0
-3.58631e-08 0 0
-3.58687e-08 0 0
-3.58728e-08 0 0
-3.58759e-08 0 0
-3.58782e-08 0 0
-3.588e-08 0 0
-3.58814e-08 0 0
-3.58827e-08 0 0
-3.5884e-08 0 0
-3.58855e-08 0 0
-3.5887e-08 0 0
-3.58888e-08 0 0
-3.5891e-08 0 0
-3.58948e-08 0 0
0.00205931 0 0
0 0 5.29862e-07
-3.12327e-12 0 -5.78494e-10
1.69222e-08 0 1.05874e-08
2.12078e-08 0 4.54496e-08
-9.56723e-08 0 3.15543e-08
-3.02438e-08 0 -9.04686e-09
-1.18308e-08 0 -1.94464e-08
5.91587e-11 0 -2.6941e-08
1.04963e-08 0 -2.59811e-08
2.22669e-08 0 -2.03493e-08
3.51904e-08 0 -1.14648e-08
3.81995e-08 0 -3.16153e-09
2.42898e-08 0 1.30821e-09
-4.56043e-10 0 1.76938e-09
-2.38127e-08 0 2.55058e-10
-3.93625e-08 0 -9.8556e-10
-4.87777e-08 0 -1.03912e-09
-5.59886e-08 0 -3.21959e-10
-6.29989e-08 0 4.39362e-10
-6.98179e-08 0 8.66714e-10
-7.58098e-08 0 9.466e-10
-8.05448e-08 0 8.17464e-10
-8.3968e-08 0 6.15113e-10
-8.62668e-08 0 4.21112e-10
-8.77124e-08 0 2.68191e-10
-8.85634e-08 0 1.60549e-10
-8.90266e-08 0 9.04328e-11
-8.92513e-08 0 4.74401e-11
-8.93383e-08 0 2.24656e-11
-8.93516e-08 0 8.75305e-12
-8.93298e-08 0 1.73485e-12
-8.92949e-08 0 -1.49027e-12
-8.92584e-08 0 -2.67902e-12
-8.92257e-08 0 -2.85036e-12
-8.91988e-08 0 -2.56946e-12
-8.91779e-08 0 -2.1334e-12
-8.91623e-08 0 -1.68694e-12
-8.91511e-08 0 -1.29194e-12
-8.91432e-08 0 -9.6752e-13
-8.9138e-08 0 -7.12225e-13
-8.91346e-08 0 -5.15715e-13
-8.91326e-08 0 -3.65384e-13
-8.91317e-08 0 -2.48808e-13
-8.91317e-08 0 -1.50839e-13
-8.91325e-08 0 -5.78889e-14
-8.91341e-08 0 3.77595e-14
-8.91362e-08 0 1.57814e-13
-8.91389e-08 0 2.44921e-13
-8.91425e-08 0 5.61583e-13
-8.91488e-08 0 3.18221e-12
0.00582203 0 -1.62977e-08
0.0036 -3.03646e-07 -6.12865e-08
0.00359981 -0.00134799 -5.21158e-06
0.00673347 -0.00384121 9.75408e-05
0.0135902 -0.00607959 -0.00072916
0.0236969 -0.0143748 -0.00448421
0.0461394 -0.0129417 -0.00492009
0.0495724 -0.00170651 -0.00168111
0.0493131 0.00279188 -0.000197365
0.0442628 0.00508264 0.000521115
0.0385694 0.00524392 0.000489758
0.0333955 0.0045856 0.000219766
0.0290948 0.00366379 -5.45797e-05
0.0257371 0.00268821 -0.000253717
0.0232232 0.00181511 -0.000339976
0.0213824 0.00115771 -0.000315453
0.0200492 0.000731622 -0.00022635
0.0190955 0.000476721 -0.000129755
0.0184259 0.000321953 -5.85832e-05
0.0179675 0.000220308 -1.79619e-05
0.0176631 0.000148927 4.23351e-07
0.0174675 9.79189e-05 6.39932e-06
0.0173463 6.21735e-05 6.81228e-06
0.0172738 3.79809e-05 5.36182e-06
0.0172322 2.22222e-05 3.68057e-06
0.0172095 1.23423e-05 2.32353e-06
0.0171979 6.38458e-06 1.37885e-06
0.0171926 2.94214e-06 7.75036e-07
0.0171907 1.05388e-06 4.11491e-07
0.0171904 9.03779e-08 2.03114e-07
0.017191 -3.45569e-07 8.92442e-08
0.0171918 -4.95927e-07 3.03721e-08
0.0171926 -5.02791e-07 2.1949e-09
0.0171933 -4.46176e-07 -9.60462e-09
0.0171939 -3.68789e-07 -1.3147e-08
0.0171944 -2.91713e-07 -1.28648e-08
0.0171947 -2.24028e-07 -1.10715e-08
0.017195 -1.68502e-07 -8.90389e-09
0.0171952 -1.24853e-07 -6.86856e-09
0.0171954 -9.15317e-08 -5.14971e-09
0.0171955 -6.66403e-08 -3.77673e-09
0.0171955 -4.8378e-08 -2.71729e-09
0.0171956 -3.52211e-08 -1.93072e-09
0.0171956 -2.59618e-08 -1.37893e-09
0.0171957 -1.97064e-08 -1.04007e-09
0.0171957 -1.5889e-08 -9.46373e-10
0.0171957 -1.40898e-08 -9.5518e-10
0.0171957 -1.42409e-08 -6.82631e-10
0.0171958 -1.68288e-08 1.71848e-09
0.0171958 -3.0595e-08 4.96291e-09
0.0171959 -1.0469e-07 -2.52269e-08
0.0171961 -1.6702e-07 -5.65272e-08
0.01 -1.39266e-07 -1.43514e-06
0.0100007 -0.00299076 -0.000570708
0.0148315 -0.0098978 -0.000748254
0.0241397 -0.0177164 -0.00138522
0.0382582 -0.0321227 -0.00344902
0.0586406 -0.0242323 -0.000805058
0.0559677 -0.00249163 0.00305771
0.0554886 0.0053356 0.00320325
0.0497387 0.0103982 0.00276651
0.044243 0.0105639 0.0018536
0.0397414 0.00943166 0.00092143
0.0360344 0.00789165 0.000186658
0.0330361 0.00626232 -0.000322838
0.030712 0.00475061 -0.000564238
0.0289489 0.00347443 -0.000553317
0.0276423 0.00246665 -0.000402685
0.0267044 0.00170721 -0.000232857
0.0260541 0.00115451 -0.000106998
0.0256189 0.000762704 -3.45733e-05
0.0253387 0.000491285 -1.14577e-06
0.0251658 0.000307801 1.03138e-05
0.0250642 0.000187062 1.17259e-05
0.0250078 0.000109862 9.59661e-06
0.0249789 6.19497e-05 6.85089e-06
0.0249656 3.31317e-05 4.53136e-06
0.0249609 1.63879e-05 2.8524e-06
0.0249604 7.05271e-06 1.7324e-06
0.0249618 2.12369e-06 1.02258e-06
0.0249638 -2.74099e-07 5.88689e-07
0.0249659 -1.2776e-06 3.3083e-07
0.0249676 -1.55528e-06 1.81246e-07
0.0249691 -1.48665e-06 9.64115e-08
0.0249702 -1.27801e-06 4.93929e-08
0.0249711 -1.0351e-06 2.39899e-08
0.0249717 -8.07255e-07 1.06833e-08
0.0249722 -6.13576e-07 3.99583e-09
0.0249725 -4.57959e-07 8.38807e-10
0.0249728 -3.37389e-07 -4.93466e-10
0.0249729 -2.46324e-07 -9.20512e-10
0.0249731 -1.78865e-07 -9.22469e-10
0.0249732 -1.29717e-07 -7.44117e-10
0.0249732 -9.45432e-08 -5.24968e-10
0.0249733 -7.00053e-08 -3.44584e-10
0.0249733 -5.3648e-08 -2.18107e-10
0.0249733 -4.39822e-08 -2.13586e-10
0.0249734 -4.05043e-08 3.25595e-11
0.0249734 -4.47104e-08 1.53179e-09
0.0249735 -6.79101e-08 5.10033e-09
0.0249735 -1.28906e-07 4.73716e-09
0.0249737 -2.52764e-07 -5.09688e-08
0.0249738 -3.34441e-07 -1.03962e-07
0.0148 -9.48283e-07 -1.71628e-06
0.0148023 -0.00527922 -0.00111505
0.0202941 -0.0162953 -0.00240083
0.0272396 -0.0284338 -0.00398755
0.0317685 -0.0454901 -0.00569608
0.0302833 -0.0280916 -0.00128038
0.0266226 -1.19528e-05 0.0032393
0.0261338 0.00717546 0.00337069
0.0298815 0.0147403 0.00320229
0.0303286 0.0142953 0.00221792
0.0295099 0.0125602 0.00123378
0.0286093 0.010692 0.000376151
0.0278728 0.0086338 -0.000204757
0.0275019 0.00655804 -0.000466864
0.0273949 0.00473727 -0.000457321
0.0274264 0.0032898 -0.000315475
0.0275075 0.00221841 -0.000161137
0.0275901 0.0014622 -5.02884e-05
0.0276582 0.000942513 9.59779e-06
0.0277125 0.000591577 3.23046e-05
0.0277571 0.000359287 3.4565e-05
0.0277948 0.000209603 2.84974e-05
0.0278265 0.000116273 2.07129e-05
0.0278523 6.02322e-05 1.39636e-05
0.0278726 2.79962e-05 8.95364e-06
0.0278881 1.03959e-05 5.53749e-06
0.0278995 1.44585e-06 3.33001e-06
0.0279077 -2.60981e-06 1.95619e-06
0.0279136 -4.03945e-06 1.12527e-06
0.0279177 -4.16085e-06 6.34326e-07
0.0279205 -3.70698e-06 3.5014e-07
0.0279225 -3.06396e-06 1.8876e-07
0.0279238 -2.41981e-06 9.88635e-08
0.0279247 -1.85435e-06 4.98153e-08
0.0279254 -1.39144e-06 2.36957e-08
0.0279258 -1.0284e-06 1.02105e-08
0.0279261 -7.51749e-07 3.54655e-09
0.0279263 -5.45207e-07 4.77878e-10
0.0279265 -3.93387e-07 -7.5164e-10
0.0279266 -2.83221e-07 -1.07503e-09
0.0279266 -2.04283e-07 -9.75898e-10
0.0279267 -1.48603e-07 -7.12189e-10
0.0279267 -1.10378e-07 -4.21674e-10
0.0279267 -8.56735e-08 -8.57267e-11
0.0279268 -7.22457e-08 4.13352e-10
0.0279268 -7.10785e-08 1.43725e-09
0.0279268 -8.72712e-08 3.45128e-09
0.0279269 -1.2779e-07 3.9908e-09
0.0279269 -1.97733e-07 -9.89468e-09
0.027927 -2.85515e-07 -8.21007e-08
0.027927 -3.30601e-07 -1.41191e-07
0.018 -1.92232e-06 -1.6884e-06
0.0180028 -0.00690407 -0.00188765
0.0206574 -0.0186496 -0.0049046
0.0205414 -0.0244398 -0.00631944
0.0159794 -0.0265604 -0.00756484
-1.54789e-06 -0.0138755 -0.00426337
9.66251e-05 2.70124e-05 8.84778e-07
-3.37912e-05 3.52163e-05 0.000615667
0.00674098 0.00430024 0.00132707
0.0139246 0.00984991 0.00126215
0.0173805 0.0108244 0.000837635
0.019064 0.00978228 0.000277005
0.0207176 0.00791755 -0.000186868
0.0224358 0.00580387 -0.000380766
0.0240193 0.00398742 -0.000360135
0.0253607 0.0026123 -0.000243495
0.0264202 0.00165718 -0.000115593
0.027203 0.00102909 -1.91162e-05
0.0277512 0.000624257 3.4421e-05
0.0281226 0.000364239 5.27592e-05
0.0283706 0.000199306 5.03975e-05
0.0285354 9.81511e-05 3.97329e-05
0.0286444 3.94269e-05 2.80732e-05
0.028716 7.87259e-06 1.8471e-05
0.0287625 -7.22736e-06 1.15597e-05
0.0287924 -1.30095e-05 6.96723e-06
0.0288114 -1.39388e-05 4.07379e-06
0.0288233 -1.26346e-05 2.31987e-06
0.0288308 -1.05313e-05 1.28841e-06
0.0288354 -8.34981e-06 6.97147e-07
0.0288382 -6.40714e-06 3.66046e-07
0.02884 -4.80668e-06 1.84894e-07
0.0288411 -3.54833e-06 8.82736e-08
0.0288418 -2.58876e-06 3.83062e-08
0.0288422 -1.87237e-06 1.35247e-08
0.0288425 -1.34559e-06 2.00056e-09
0.0288426 -9.6259e-07 -2.76387e-09
0.0288427 -6.86563e-07 -4.23168e-09
0.0288428 -4.8909e-07 -4.19875e-09
0.0288429 -3.48821e-07 -3.5595e-09
0.0288429 -2.50065e-07 -2.73807e-09
0.0288429 -1.81537e-07 -1.92929e-09
0.0288429 -1.35327e-07 -1.18183e-09
0.028843 -1.0648e-07 -4.31458e-10
0.028843 -9.28951e-08 3.04585e-10
0.028843 -9.40754e-08 7.70894e-10
0.028843 -1.09143e-07 2.28577e-10
0.028843 -1.3376e-07 -4.45475e-09
0.028843 -1.63448e-07 -2.95738e-08
0.0288429 -1.85606e-07 -1.04936e-07
0.0288428 -1.91883e-07 -1.59217e-07
0.0196 -2.73892e-06 -2.56073e-06
0.0196009 -0.00575764 -0.00274294
0.0190763 -0.0128553 -0.00644317
0.016029 -0.0157782 -0.00666334
0.0110411 -0.0147368 -0.00668816
0.00183058 -0.00605903 -0.004987
7.22478e-05 -6.63723e-05 -0.00125947
3.25812e-05 -3.25812e-05 -3.89115e-08
-3.31246e-05 3.44577e-05 0.00022672
0.00417781 0.00306925 0.000476162
0.00965153 0.00721025 0.000403196
0.01256 0.00749474 6.70226e-05
0.0157986 0.00562265 -0.000287732
0.0189475 0.00365273 -0.000410987
0.0216505 0.00212702 -0.000382367
0.0238415 0.00108429 -0.000287659
0.0255333 0.000464002 -0.000170663
0.0267621 0.000145176 -6.49921e-05
0.0276011 -1.34842e-06 5.6776e-06
0.0281478 -6.38812e-05 3.79094e-05
0.0284938 -8.66545e-05 4.33033e-05
0.028709 -8.91243e-05 3.60165e-05
0.028841 -8.09675e-05 2.56453e-05
0.0289208 -6.81185e-05 1.66055e-05
0.0289683 -5.43422e-05 1.00759e-05
0.0289962 -4.17347e-05 5.82348e-06
0.0290122 -3.11868e-05 3.23301e-06
0.0290212 -2.2852e-05 1.72886e-06
0.0290262 -1.65129e-05 8.8817e-07
0.0290289 -1.18161e-05 4.33981e-07
0.0290303 -8.39814e-06 1.96863e-07
0.0290311 -5.94151e-06 7.79067e-08
0.0290314 -4.19072e-06 2.13687e-08
0.0290315 -2.95011e-06 -3.26092e-09
0.0290316 -2.07439e-06 -1.22389e-08
0.0290316 -1.45787e-06 -1.39885e-08
0.0290316 -1.02465e-06 -1.2732e-08
0.0290315 -7.20733e-07 -1.04925e-08
0.0290315 -5.07942e-07 -8.17123e-09
0.0290315 -3.59423e-07 -6.11281e-09
0.0290315 -2.56383e-07 -4.40129e-09
0.0290315 -1.85822e-07 -3.0387e-09
0.0290315 -1.39001e-07 -2.01077e-09
0.0290315 -1.10038e-07 -1.34972e-09
0.0290315 -9.44093e-08 -1.39957e-09
0.0290315 -8.7555e-08 -2.60089e-09
0.0290314 -8.46101e-08 -5.57515e-09
0.0290314 -7.93436e-08 -1.25176e-08
0.0290313 -6.31393e-08 -4.02131e-08
0.0290313 -2.38571e-08 -1.11901e-07
0.0290311 3.39061e-09 -1.60802e-07
0.0196 -1.30665e-06 -3.53112e-06
0.0196 -0.00360196 -0.00311033
0.0188473 -0.00783272 -0.00647699
0.0176102 -0.00773458 -0.00607305
0.0133717 -0.00389475 -0.00558992
0.00929236 0.00283849 -0.00524425
0.00621317 0.00323073 -0.0029669
7.23785e-05 -6.03662e-05 -0.000609872
2.72415e-05 -2.72415e-05 -1.26111e-07
-3.24927e-05 3.37565e-05 7.69706e-05
0.00304462 0.00236218 0.000339045
0.00757139 0.00375791 0.000284023
0.012942 0.00183635 -8.47742e-05
0.0175924 0.000307785 -0.000254726
0.0211542 -0.000585421 -0.000306623
0.0237757 -0.00102696 -0.000300898
0.025659 -0.00111448 -0.000241384
0.0269472 -0.000975069 -0.000148648
0.0277701 -0.000755112 -6.35612e-05
0.0282627 -0.000549053 -1.06426e-05
0.028543 -0.000388252 1.15463e-05
0.0286963 -0.000271132 1.56285e-05
0.0287771 -0.000187749 1.25754e-05
0.0288179 -0.000128989 8.25748e-06
0.0288372 -8.79967e-05 4.80339e-06
0.0288456 -5.97167e-05 2.54984e-06
0.0288484 -4.04046e-05 1.24014e-06
0.0288488 -2.73172e-05 5.39807e-07
0.0288482 -1.84888e-05 1.92304e-07
0.0288472 -1.25435e-05 3.41135e-08
0.0288463 -8.53722e-06 -2.89285e-08
0.0288455 -5.83135e-06 -4.73905e-08
0.0288448 -3.99768e-06 -4.68963e-08
0.0288443 -2.75028e-06 -3.96846e-08
0.0288439 -1.89839e-06 -3.1178e-08
0.0288437 -1.31444e-06 -2.34999e-08
0.0288435 -9.12889e-07 -1.72706e-08
0.0288433 -6.36092e-07 -1.24846e-08
0.0288432 -4.45049e-07 -8.91721e-09
0.0288431 -3.13272e-07 -6.30197e-09
0.0288431 -2.22732e-07 -4.41039e-09
0.028843 -1.61064e-07 -3.11456e-09
0.028843 -1.19526e-07 -2.40271e-09
0.028843 -9.15202e-08 -2.33974e-09
0.028843 -7.16022e-08 -3.18165e-09
0.0288429 -5.46877e-08 -5.00096e-09
0.0288429 -3.5464e-08 -8.05799e-09
0.0288429 -6.60336e-09 -1.4335e-08
0.0288428 4.64861e-08 -3.83467e-08
0.0288428 1.39422e-07 -1.0292e-07
0.0288427 1.9726e-07 -1.47838e-07
0.018 -8.46567e-07 -3.50258e-06
0.0180009 -0.00193887 -0.00303316
0.018353 -0.00365938 -0.00612715
0.0184748 -0.00232349 -0.00531309
0.01754 0.000989959 -0.00428707
0.0173145 0.00730861 -0.00396437
0.0180347 0.012651 -0.00285969
0.011111 0.00693446 -0.00136775
7.39119e-05 -4.68204e-05 -0.000400722
-2.56469e-05 -5.43022e-05 5.44298e-07
7.70723e-06 -0.000485778 0.000753728
0.00864066 -0.00246566 0.00112812
0.016254 -0.00426185 0.00056475
0.0213682 -0.00430407 0.000295292
0.0244681 -0.00374145 0.000119936
0.0262521 -0.00310686 -5.57203e-05
0.027247 -0.00245709 -0.000174163
0.0277717 -0.00181006 -0.000191168
0.0280141 -0.00124502 -0.000141991
0.0280969 -0.000817219 -8.26088e-05
0.0281011 -0.00052375 -4.07369e-05
0.0280741 -0.000332569 -1.80959e-05
0.0280404 -0.000210692 -7.71286e-06
0.0280099 -0.000133611 -3.40858e-06
0.0279858 -8.5004e-05 -1.68917e-06
0.027968 -5.43667e-05 -9.67711e-07
0.0279553 -3.50185e-05 -6.179e-07
0.0279464 -2.2745e-05 -4.15119e-07
0.0279403 -1.49064e-05 -2.82173e-07
0.0279361 -9.85773e-06 -1.90697e-07
0.0279332 -6.57532e-06 -1.27499e-07
0.0279312 -4.42059e-06 -8.43864e-08
0.0279299 -2.99289e-06 -5.54372e-08
0.0279289 -2.03875e-06 -3.62633e-08
0.0279283 -1.39622e-06 -2.36908e-08
0.0279278 -9.60692e-07 -1.54981e-08
0.0279275 -6.63888e-07 -1.01745e-08
0.0279273 -4.60798e-07 -6.71594e-09
0.0279271 -3.21468e-07 -4.46745e-09
0.027927 -2.25772e-07 -3.01121e-09
0.0279269 -1.59997e-07 -2.1013e-09
0.0279269 -1.14581e-07 -1.63351e-09
0.0279269 -8.26089e-08 -1.58284e-09
0.0279268 -5.87669e-08 -1.93562e-09
0.0279268 -3.85108e-08 -2.82737e-09
0.0279268 -1.72291e-08 -4.20226e-09
0.0279267 1.06283e-08 -6.21536e-09
0.0279267 5.31311e-08 -1.05455e-08
0.0279267 1.29067e-07 -2.64093e-08
0.0279267 2.55255e-07 -7.99704e-08
0.0279267 3.31678e-07 -1.20758e-07
0.0148 -4.75755e-07 -3.09869e-06
0.0148015 -0.000982747 -0.00280524
0.0162729 -0.0014753 -0.00540152
0.0179458 0.000249608 -0.00434413
0.0194303 0.00347713 -0.00319419
0.0212994 0.00751606 -0.00292814
0.0251111 0.0129498 -0.00238036
0.0283744 0.0195809 -0.00142348
0.0232766 0.0114127 -0.000281926
0.0236993 2.74701e-11 0.00064186
0.0268888 -0.00665428 0.00157284
0.0306373 -0.0130855 0.00212151
0.0317471 -0.0112144 0.00169733
0.0312137 -0.00803292 0.00129211
0.0300378 -0.00541223 0.000837031
0.0287667 -0.00359887 0.000335452
0.0276544 -0.00236946 -5.48462e-05
0.0267917 -0.00151485 -0.000224036
0.0261732 -0.000932193 -0.000220046
0.025751 -0.000558253 -0.000151381
0.0254715 -0.000331428 -8.65511e-05
0.0252902 -0.00019786 -4.44455e-05
0.0251744 -0.000119629 -2.14419e-05
0.0251012 -7.34365e-05 -9.9952e-06
0.025055 -4.57939e-05 -4.58353e-06
0.025026 -2.9e-05 -2.09017e-06
0.0250076 -1.86355e-05 -9.52162e-07
0.0249958 -1.21371e-05 -4.32246e-07
0.0249883 -7.99965e-06 -1.93206e-07
0.0249834 -5.32741e-06 -8.26396e-08
0.0249801 -3.57912e-06 -3.15736e-08
0.024978 -2.42238e-06 -8.44142e-09
0.0249765 -1.64963e-06 1.46131e-09
0.0249755 -1.12923e-06 5.12077e-09
0.0249749 -7.76406e-07 5.91139e-09
0.0249744 -5.35907e-07 5.47425e-09
0.0249741 -3.71272e-07 4.5992e-09
0.0249739 -2.58207e-07 3.65109e-09
0.0249737 -1.80357e-07 2.78097e-09
0.0249736 -1.26584e-07 2.0343e-09
0.0249735 -8.91806e-08 1.40364e-09
0.0249735 -6.26608e-08 8.46414e-10
0.0249734 -4.2927e-08 3.14807e-10
0.0249734 -2.66217e-08 -2.21476e-10
0.0249734 -1.05696e-08 -8.86014e-10
0.0249734 8.75359e-09 -1.60927e-09
0.0249734 3.61814e-08 -2.39661e-09
0.0249734 7.82982e-08 -4.49324e-09
0.0249734 1.50024e-07 -1.22969e-08
0.0249735 2.63048e-07 -5.40586e-08
0.0249736 3.30017e-07 -8.96694e-08
0.01 -9.09802e-07 -2.79524e-06
0.0100007 -0.000605784 -0.00228871
0.0113824 -0.00062423 -0.00414831
0.0133961 0.000687877 -0.0029934
0.0160448 0.0026608 -0.00195216