# vtk DataFile Version 2.0
Tobias Weinzierl: CPU, Manycore and Cluster Computing
ASCII

DATASET STRUCTURED_POINTS
DIMENSIONS  51 11 6

ORIGIN 0 0 0 

SPACING 0.1 0.1 0.1 

POINT_DATA 3366

VECTORS velocity float
0 0 0
-8.23065e-13 0 0
-2.00002e-10 0 0
-2.70204e-10 0 0
-1.70162e-09 0 0
1.36946e-09 0 0
2.02744e-09 0 0
2.08852e-09 0 0
2.37321e-09 0 0
2.97729e-09 0 0
3.66947e-09 0 0
4.13388e-09 0 0
4.16223e-09 0 0
3.72261e-09 0 0
2.8461e-09 0 0
1.65994e-09 0 0
4.29592e-10 0 0
-5.80179e-10 0 0
-1.29632e-09 0 0
-1.84312e-09 0 0
-2.3935e-09 0 0
-3.04071e-09 0 0
-3.77221e-09 0 0
-4.51441e-09 0 0
-5.18858e-09 0 0
-5.7439e-09 0 0
-6.16417e-09 0 0
-6.45902e-09 0 0
-6.65129e-09 0 0
-6.76707e-09 0 0
-6.82991e-09 0 0
-6.85854e-09 0 0
-6.86662e-09 0 0
-6.86347e-09 0 0
-6.85505e-09 0 0
-6.84495e-09 0 0
-6.83512e-09 0 0
-6.82649e-09 0 0
-6.81939e-09 0 0
-6.81378e-09 0 0
-6.8095e-09 0 0
-6.80629e-09 0 0
-6.80392e-09 0 0
-6.80221e-09 0 0
-6.80102e-09 0 0
-6.80024e-09 0 0
-6.79978e-09 0 0
-6.79953e-09 0 0
-6.7994e-09 0 0
-6.79959e-09 0 0
0.00189773 0 0
0 3.80205e-07 0
-1.59113e-12 -4.785e-11 0
-3.11825e-10 -4.83767e-10 0
7.66385e-11 -1.43467e-10 0
-7.9275e-10 -1.14203e-09 0
4.37546e-09 -1.13191e-09 0
5.108e-09 9.65428e-10 0
5.00951e-09 7.05208e-10 0
6.27251e-09 -6.73269e-10 0
8.58679e-09 -2.00033e-09 0
1.09099e-08 -2.83876e-09 0
1.24063e-08 -2.98363e-09 0
1.2561e-08 -2.2664e-09 0
1.13061e-08 -7.98658e-10 0
9.02651e-09 7.98683e-10 0
6.33974e-09 1.79424e-09 0
3.78546e-09 1.93536e-09 0
1.60802e-09 1.52366e-09 0
-2.94615e-10 1.03625e-09 0
-2.19824e-09 7.59288e-10 0
-4.31387e-09 7.10444e-10 0
-6.66307e-09 7.6702e-10 0
-9.09849e-09 8.08014e-10 0
-1.14041e-08 7.77221e-10 0
-1.33956e-08 6.77604e-10 0
-1.49744e-08 5.4008e-10 0
-1.61304e-08 3.97131e-10 0
-1.69148e-08 2.70529e-10 0
-1.74062e-08 1.69959e-10 0
-1.76859e-08 9.64731e-11 0
-1.78238e-08 4.65407e-11 0
-1.78736e-08 1.50156e-11 0
-1.78732e-08 -3.19106e-12 0
-1.78476e-08 -1.23775e-11 0
-1.78124e-08 -1.58516e-11 0
-1.77762e-08 -1.59896e-11 0
-1.77434e-08 -1.43973e-11 0
-1.77159e-08 -1.20933e-11 0
-1.76939e-08 -9.67634e-12 0
-1.76769e-08 -7.46187e-12 0
-1.76642e-08 -5.58562e-12 0
-1.76547e-08 -4.07691e-12 0
-1.76479e-08 -2.9075e-12 0
-1.7643e-08 -2.02317e-12 0
-1.76396e-08 -1.36249e-12 0
-1.76373e-08 -8.65447e-13 0
-1.7636e-08 -4.73473e-13 0
-1.76353e-08 -1.13715e-13 0
-1.7635e-08 3.68674e-13 0
-1.76356e-08 1.3335e-12 0
0.00546557 -1.2934e-08 0
0 -1.87161e-08 0
-1.02688e-12 -1.3577e-10 0
4.19331e-10 -1.54157e-09 0
2.37072e-09 -3.58016e-09 0
4.5786e-09 -6.32119e-09 0
8.11187e-09 -4.50449e-09 0
6.2542e-09 9.19112e-11 0
4.98778e-09 -3.46223e-10 0
6.17319e-09 -2.96335e-09 0
9.87628e-09 -5.50194e-09 0
1.36442e-08 -7.68049e-09 0
1.57245e-08 -9.17617e-09 0
1.56763e-08 -9.01944e-09 0
1.35822e-08 -6.71142e-09 0
1.03793e-08 -3.02832e-09 0
7.03404e-09 7.56803e-10 0
4.04748e-09 3.75017e-09 0
1.48034e-09 5.60081e-09 0
-8.29714e-10 6.36168e-09 0
-3.07538e-09 6.31685e-09 0
-5.38225e-09 5.79748e-09 0
-7.7683e-09 5.04829e-09 0
-1.01375e-08 4.20589e-09 0
-1.23241e-08 3.34701e-09 0
-1.41696e-08 2.53059e-09 0
-1.55849e-08 1.80687e-09 0
-1.65658e-08 1.20936e-09 0
-1.71719e-08 7.49172e-10 0
-1.74922e-08 4.17795e-10 0
-1.76171e-08 1.94732e-10 0
-1.76222e-08 5.52716e-11 0
-1.7563e-08 -2.41303e-11 0
-1.74767e-08 -6.31612e-11 0
-1.73857e-08 -7.68852e-11 0
-1.73019e-08 -7.60422e-11 0
-1.72306e-08 -6.7818e-11 0
-1.7173e-08 -5.67141e-11 0
-1.71281e-08 -4.53349e-11 0
-1.70942e-08 -3.50218e-11 0
-1.70691e-08 -2.63276e-11 0
-1.70509e-08 -1.93481e-11 0
-1.70379e-08 -1.39409e-11 0
-1.70286e-08 -9.86045e-12 0
-1.70221e-08 -6.83587e-12 0
-1.70177e-08 -4.61109e-12 0
-1.70148e-08 -2.95591e-12 0
-1.70131e-08 -1.64839e-12 0
-1.70123e-08 -4.0362e-13 0
-1.70121e-08 1.12308e-12 0
-1.70128e-08 3.26214e-12 0
0.00789709 -3.19939e-08 0
0 -6.28467e-07 0
-3.45398e-13 -9.41128e-10 0
1.11819e-09 -3.53465e-09 0
3.74278e-09 -6.8855e-09 0
5.27941e-09 -9.31621e-09 0
5.10594e-09 -5.02515e-09 0
3.17359e-09 -1.52102e-12 0
2.06678e-09 -1.15882e-09 0
1.24161e-09 -4.12886e-09 0
2.98271e-09 -8.09669e-09 0
6.24073e-09 -1.24272e-08 0
8.11755e-09 -1.58314e-08 0
8.23615e-09 -1.62837e-08 0
6.2812e-09 -1.30961e-08 0
3.00977e-09 -7.30264e-09 0
-7.18679e-10 -3.29826e-10 0
-4.23468e-09 6.16161e-09 0
-7.00919e-09 1.06372e-08 0
-8.70187e-09 1.24274e-08 0
-9.29615e-09 1.19485e-08 0
-9.11492e-09 1.0177e-08 0
-8.62134e-09 7.99614e-09 0
-8.16443e-09 5.91746e-09 0
-7.86901e-09 4.14223e-09 0
-7.69289e-09 2.71465e-09 0
-7.54284e-09 1.62154e-09 0
-7.35368e-09 8.29096e-10 0
-7.1087e-09 2.91934e-10 0
-6.82504e-09 -4.20501e-11 0
-6.53179e-09 -2.25353e-10 0
-6.25497e-09 -3.05009e-10 0
-6.01135e-09 -3.19163e-10 0
-5.80829e-09 -2.96207e-10 0
-5.64612e-09 -2.55659e-10 0
-5.52097e-09 -2.09885e-10 0
-5.42704e-09 -1.65984e-10 0
-5.35814e-09 -1.27462e-10 0
-5.30855e-09 -9.55621e-11 0
-5.27343e-09 -7.02194e-11 0
-5.24888e-09 -5.07136e-11 0
-5.23189e-09 -3.60714e-11 0
-5.22023e-09 -2.5298e-11 0
-5.21226e-09 -1.74929e-11 0
-5.20686e-09 -1.18938e-11 0
-5.20329e-09 -7.87819e-12 0
-5.20105e-09 -4.93282e-12 0
-5.19979e-09 -2.61568e-12 0
-5.19914e-09 -5.27066e-13 0
-5.19868e-09 1.62914e-12 0
-5.19871e-09 3.82782e-12 0
0.00898339 -3.5434e-08 0
0 -1.23425e-06 0
-1.07876e-12 -1.82311e-09 0
2.29215e-10 -5.15941e-09 0
1.14709e-09 -6.85995e-09 0
1.21476e-09 -5.53991e-09 0
4.27034e-14 -2.0162e-09 0
-9.59699e-12 -8.85868e-12 0
8.92488e-12 -9.42066e-12 0
-1.03234e-09 -2.23906e-09 0
-3.94966e-09 -8.04905e-09 0
-5.22158e-09 -1.48304e-08 0
-4.24528e-09 -2.00554e-08 0
-4.22952e-09 -2.12869e-08 0
-5.80878e-09 -1.73027e-08 0
-8.4119e-09 -9.2939e-09 0
-1.13588e-08 5.76849e-10 0
-1.39917e-08 9.41649e-09 0
-1.56257e-08 1.47995e-08 0
-1.567e-08 1.60121e-08 0
-1.39638e-08 1.40686e-08 0
-1.09516e-08 1.06647e-08 0
-7.43622e-09 7.15988e-09 0
-4.14015e-09 4.23317e-09 0
-1.44355e-09 2.05212e-09 0
5.99202e-10 5.49052e-10 0
2.1046e-09 -4.06698e-10 0
3.22169e-09 -9.45052e-10 0
4.06699e-09 -1.18161e-09 0
4.71528e-09 -1.21538e-09 0
5.21243e-09 -1.12678e-09 0
5.58924e-09 -9.7634e-10 0
5.86963e-09 -8.05666e-10 0
6.07393e-09 -6.4036e-10 0
6.21969e-09 -4.93966e-10 0
6.32164e-09 -3.71809e-10 0
6.39168e-09 -2.74188e-10 0
6.43901e-09 -1.98716e-10 0
6.47054e-09 -1.41882e-10 0
6.49127e-09 -9.99907e-11 0
6.50476e-09 -6.96536e-11 0
6.51347e-09 -4.80048e-11 0
6.51907e-09 -3.27407e-11 0
6.52267e-09 -2.20744e-11 0
6.52499e-09 -1.46515e-11 0
6.52643e-09 -9.45604e-12 0
6.52726e-09 -5.72841e-12 0
6.52773e-09 -2.91676e-12 0
6.52818e-09 -6.75278e-13 0
6.52904e-09 1.16487e-12 0
6.52974e-09 2.56178e-12 0
0.00942261 -1.86773e-08 0
0 -1.1189e-06 0
-2.05641e-12 -1.75433e-09 0
-9.74427e-10 -4.06916e-09 0
-1.20861e-09 -5.239e-09 0
-1.81653e-09 -5.45575e-09 0
-1.27756e-09 -2.53185e-09 0
-9.67174e-12 9.34648e-12 0
-4.54413e-13 4.54413e-13 0
8.77732e-12 -8.95206e-12 0
-2.66575e-09 -3.77918e-09 0
-9.24972e-09 -1.32072e-08 0
-1.2211e-08 -2.13211e-08 0
-1.43397e-08 -2.27553e-08 0
-1.63541e-08 -1.79156e-08 0
-1.78736e-08 -8.66071e-09 0
-1.8693e-08 2.14906e-09 0
-1.87551e-08 1.11209e-08 0
-1.79354e-08 1.57952e-08 0
-1.59122e-08 1.57785e-08 0
-1.24954e-08 1.25224e-08 0
-8.01324e-09 8.06955e-09 0
-3.23002e-09 3.93942e-09 0
1.08517e-09 8.07851e-10 0
4.4951e-09 -1.24692e-09 0
6.93423e-09 -2.40451e-09 0
8.56116e-09 -2.89856e-09 0
9.59849e-09 -2.94188e-09 0
1.02418e-08 -2.70936e-09 0
1.06329e-08 -2.33572e-09 0
1.08658e-08 -1.9167e-09 0
1.10002e-08 -1.51313e-09 0
1.10742e-08 -1.15782e-09 0
1.11118e-08 -8.63561e-10 0
1.1128e-08 -6.30578e-10 0
1.11326e-08 -4.52374e-10 0
1.11311e-08 -3.19733e-10 0
1.1127e-08 -2.23142e-10 0
1.11221e-08 -1.54043e-10 0
1.11175e-08 -1.05328e-10 0
1.11134e-08 -7.13934e-11 0
1.11101e-08 -4.7989e-11 0
1.11075e-08 -3.19735e-11 0
1.11056e-08 -2.10722e-11 0
1.11043e-08 -1.36599e-11 0
1.11034e-08 -8.59153e-12 0
1.11028e-08 -5.08648e-12 0
1.11025e-08 -2.65092e-12 0
1.11028e-08 -1.0111e-12 0
1.11038e-08 -5.80231e-14 0
1.11047e-08 2.80528e-13 0
0.00953696 8.97556e-09 0
0 -7.70575e-07 0
-1.64361e-12 -1.01548e-09 0
-9.4712e-10 -2.62357e-09 0
-9.77789e-10 -3.45522e-09 0
-2.20175e-09 -3.80238e-09 0
-2.89805e-09 -3.16204e-09 0
-1.30937e-09 -1.20683e-09 0
-9.18182e-12 9.57318e-12 0
-7.37465e-13 7.37465e-13 0
9.06394e-12 -8.29063e-12 0
-4.19123e-09 -7.08738e-09 0
-1.19938e-08 -1.78211e-08 0
-1.79428e-08 -2.03847e-08 0
-2.1482e-08 -1.52405e-08 0
-2.27463e-08 -5.91838e-09 0
-2.17859e-08 3.94863e-09 0
-1.90961e-08 1.11632e-08 0
-1.54458e-08 1.39649e-08 0
-1.13156e-08 1.25348e-08 0
-6.88011e-09 8.54387e-09 0
-2.38611e-09 3.96945e-09 0
1.70858e-09 1.42369e-10 0
4.94962e-09 -2.45076e-09 0
7.127e-09 -3.87212e-09 0
8.31592e-09 -4.39423e-09 0
8.76111e-09 -4.31097e-09 0
8.73966e-09 -3.87133e-09 0
8.4785e-09 -3.26535e-09 0
8.13039e-09 -2.62505e-09 0
7.78285e-09 -2.03114e-09 0
7.47761e-09 -1.52374e-09 0
7.22861e-09 -1.11468e-09 0
7.03505e-09 -7.98859e-10 0
6.8896e-09 -5.62994e-10 0
6.78296e-09 -3.91347e-10 0
6.7062e-09 -2.68954e-10 0
6.6517e-09 -1.83077e-10 0
6.61341e-09 -1.23591e-10 0
6.58673e-09 -8.28079e-11 0
6.56826e-09 -5.50809e-11 0
6.55556e-09 -3.63587e-11 0
6.54692e-09 -2.37852e-11 0
6.54112e-09 -1.53734e-11 0
6.53732e-09 -9.76179e-12 0
6.5349e-09 -6.03782e-12 0
6.53345e-09 -3.61021e-12 0
6.53273e-09 -2.11585e-12 0
6.53269e-09 -1.35794e-12 0
6.53337e-09 -1.3236e-12 0
6.53393e-09 -1.98491e-12 0
0.00942261 3.3669e-08 0
0 -5.39671e-07 0
-9.29641e-13 -5.59534e-10 0
-3.58138e-10 -1.58372e-09 0
-4.1506e-10 -2.54669e-09 0
-1.34464e-09 -2.87676e-09 0
-3.19969e-09 -1.94696e-09 0
-3.7525e-09 -4.75491e-10 0
-2.38015e-09 1.17336e-10 0
-1.02332e-11 9.06742e-12 0
9.29423e-12 8.83012e-12 0
1.1016e-12 -3.98898e-09 0
-6.64275e-09 -1.18207e-08 0
-1.59714e-08 -1.44112e-08 0
-2.32519e-08 -8.9856e-09 0
-2.61116e-08 -4.77084e-10 0
-2.39402e-08 6.70399e-09 0
-1.82571e-08 1.03462e-08 0
-1.15613e-08 1.01275e-08 0
-5.7418e-09 7.10379e-09 0
-1.49062e-09 3.02736e-09 0
1.26589e-09 -5.80376e-10 0
2.78524e-09 -2.98914e-09 0
3.28542e-09 -4.18084e-09 0
2.97803e-09 -4.47115e-09 0
2.11375e-09 -4.21148e-09 0
9.57533e-10 -3.67151e-09 0
-2.6447e-10 -3.03014e-09 0
-1.39808e-09 -2.39685e-09 0
-2.36307e-09 -1.83187e-09 0
-3.13587e-09 -1.36118e-09 0
-3.72755e-09 -9.8837e-10 0
-4.16554e-09 -7.04332e-10 0
-4.4816e-09 -4.94345e-10 0
-4.70529e-09 -3.42695e-10 0
-4.86134e-09 -2.3515e-10 0
-4.96902e-09 -1.59955e-10 0
-5.04274e-09 -1.07964e-10 0
-5.09292e-09 -7.23363e-11 0
-5.12692e-09 -4.81034e-11 0
-5.14988e-09 -3.17278e-11 0
-5.16531e-09 -2.0728e-11 0
-5.17558e-09 -1.33841e-11 0
-5.18233e-09 -8.5193e-12 0
-5.18667e-09 -5.33926e-12 0
-5.18937e-09 -3.31621e-12 0
-5.19101e-09 -2.10923e-12 0
-5.19193e-09 -1.51784e-12 0
-5.19228e-09 -1.4672e-12 0
-5.19211e-09 -2.05315e-12 0
-5.19222e-09 -3.31843e-12 0
0.00898339 4.31542e-08 0
0 -4.57258e-07 0
-7.95244e-13 -2.83875e-10 0
9.50165e-11 -8.67065e-10 0
-9.87673e-11 -1.45559e-09 0
-1.47507e-09 -1.7124e-09 0
-4.00374e-09 -6.46441e-10 0
-5.66401e-09 1.08829e-09 0
-5.62269e-09 -2.64035e-10 0
-3.75303e-09 -1.15882e-09 0
-2.88755e-09 -9.74455e-15 0
-1.57176e-09 -3.50007e-09 0
-6.13647e-09 -7.76503e-09 0
-1.64265e-08 -6.70342e-09 0
-2.53636e-08 -1.76626e-09 0
-2.7587e-08 3.78602e-09 0
-2.25878e-08 7.06595e-09 0
-1.39224e-08 7.19462e-09 0
-5.99274e-09 4.83499e-09 0
-1.32071e-09 1.43781e-09 0
-3.30069e-11 -1.51004e-09 0
-9.79283e-10 -3.19551e-09 0
-2.94755e-09 -3.64397e-09 0
-5.18225e-09 -3.33132e-09 0
-7.34295e-09 -2.73376e-09 0
-9.30378e-09 -2.13115e-09 0
-1.10162e-08 -1.62664e-09 0
-1.24592e-08 -1.23133e-09 0
-1.36318e-08 -9.26795e-10 0
-1.4552e-08 -6.92468e-10 0
-1.52517e-08 -5.12457e-10 0
-1.57699e-08 -3.75086e-10 0
-1.61453e-08 -2.71378e-10 0
-1.64125e-08 -1.94082e-10 0
-1.66002e-08 -1.37235e-10 0
-1.67305e-08 -9.59683e-11 0
-1.68202e-08 -6.63787e-11 0
-1.68816e-08 -4.54074e-11 0
-1.69233e-08 -3.07073e-11 0
-1.69516e-08 -2.05121e-11 0
-1.69707e-08 -1.35162e-11 0
-1.69835e-08 -8.77017e-12 0
-1.69919e-08 -5.59459e-12 0
-1.69974e-08 -3.51063e-12 0
-1.70009e-08 -2.18624e-12 0
-1.70031e-08 -1.39764e-12 0
-1.70045e-08 -1.00646e-12 0
-1.70054e-08 -9.46295e-13 0
-1.7006e-08 -1.21309e-12 0
-1.70064e-08 -1.8763e-12 0
-1.70073e-08 -2.96417e-12 0
0.00789711 3.26101e-08 0
0 -4.71076e-07 0
-4.96921e-13 -2.04798e-11 0
3.0584e-10 -1.14522e-10 0
-1.12907e-11 -2.46831e-10 0
-1.71328e-09 -3.03019e-10 0
-4.73097e-09 -2.16792e-10 0
-6.94902e-09 5.83552e-10 0
-6.98234e-09 5.0066e-10 0
-8.14858e-09 -4.82175e-10 0
-7.57634e-09 -1.00598e-09 0
-6.27401e-09 -1.59703e-09 0
-9.07393e-09 -9.31847e-10 0
-1.40567e-08 8.73548e-10 0
-1.78135e-08 2.30349e-09 0
-1.70395e-08 2.90661e-09 0
-1.18546e-08 2.52847e-09 0
-5.40274e-09 1.33949e-09 0
-1.01718e-09 -1.13656e-10 0
-4.18485e-11 -1.21503e-09 0
-1.77099e-09 -1.66042e-09 0
-4.70948e-09 -1.54721e-09 0
-7.67242e-09 -1.16932e-09 0
-1.01184e-08 -7.7953e-10 0
-1.19719e-08 -4.943e-10 0
-1.33494e-08 -3.22818e-10 0
-1.43877e-08 -2.30082e-10 0
-1.51863e-08 -1.79354e-10 0
-1.58064e-08 -1.46907e-10 0
-1.62864e-08 -1.21358e-10 0
-1.66535e-08 -9.87406e-11 0
-1.69299e-08 -7.83837e-11 0
-1.71343e-08 -6.05871e-11 0
-1.72832e-08 -4.56462e-11 0
-1.73901e-08 -3.35838e-11 0
-1.74658e-08 -2.41751e-11 0
-1.75188e-08 -1.70504e-11 0
-1.75556e-08 -1.17909e-11 0
-1.75809e-08 -7.99437e-12 0
-1.75981e-08 -5.3092e-12 0
-1.76098e-08 -3.4473e-12 0
-1.76177e-08 -2.1831e-12 0
-1.76228e-08 -1.34622e-12 0
-1.76262e-08 -8.12314e-13 0
-1.76283e-08 -4.93918e-13 0
-1.76296e-08 -3.33415e-13 0
-1.76304e-08 -2.97993e-13 0
-1.76311e-08 -3.72183e-13 0
-1.76317e-08 -5.45005e-13 0
-1.76323e-08 -7.96247e-13 0
-1.76335e-08 -1.16214e-12 0
0.0054656 1.12382e-08 0
0 0 0
-5.19485e-14 0 0
1.83194e-10 0 0
1.34176e-11 0 0
-8.02706e-10 0 0
-2.3064e-09 0 0
-3.72827e-09 0 0
-3.74001e-09 0 0
-4.3962e-09 0 0
-4.68874e-09 0 0
-4.70116e-09 0 0
-4.88665e-09 0 0
-4.81046e-09 0 0
-4.48266e-09 0 0
-3.46858e-09 0 0
-1.82827e-09 0 0
-3.30949e-10 0 0
2.48974e-10 0 0
-2.59965e-10 0 0
-1.45595e-09 0 0
-2.7929e-09 0 0
-3.9174e-09 0 0
-4.72821e-09 0 0
-5.27394e-09 0 0
-5.64299e-09 0 0
-5.90695e-09 0 0
-6.10853e-09 0 0
-6.26895e-09 0 0
-6.39797e-09 0 0
-6.50069e-09 0 0
-6.58086e-09 0 0
-6.64203e-09 0 0
-6.68769e-09 0 0
-6.72109e-09 0 0
-6.74508e-09 0 0
-6.76207e-09 0 0
-6.77393e-09 0 0
-6.78212e-09 0 0
-6.78773e-09 0 0
-6.79154e-09 0 0
-6.79408e-09 0 0
-6.79574e-09 0 0
-6.7968e-09 0 0
-6.79745e-09 0 0
-6.79784e-09 0 0
-6.79812e-09 0 0
-6.79837e-09 0 0
-6.79862e-09 0 0
-6.79889e-09 0 0
-6.79943e-09 0 0
0.00189775 0 0
0 0 5.274e-07
-1.59136e-12 0 2.46913e-10
-6.96644e-10 0 7.53215e-10
-5.97953e-10 0 1.64548e-09
-5.82398e-09 0 -4.98263e-10
2.2777e-09 0 -2.59835e-09
4.67933e-09 0 -1.68527e-09
5.46332e-09 0 -1.0517e-09
6.26756e-09 0 -2.1634e-10
7.3227e-09 0 7.03315e-10
8.70405e-09 0 1.6814e-09
1.07259e-08 0 2.49003e-09
1.31933e-08 0 2.67679e-09
1.52383e-08 0 2.11396e-09
1.57352e-08 0 1.26332e-09
1.41645e-08 0 6.21814e-10
1.09757e-08 0 3.04462e-10
7.13282e-09 0 2.01978e-10
3.36788e-09 0 2.26316e-10
-1.13222e-10 0 3.37353e-10
-3.40985e-09 0 4.86412e-10
-6.60868e-09 0 6.10818e-10
-9.65378e-09 0 6.64782e-10
-1.23964e-08 0 6.38304e-10
-1.46973e-08 0 5.51179e-10
-1.64908e-08 0 4.34975e-10
-1.77932e-08 0 3.1758e-10
-1.86758e-08 0 2.16253e-10
-1.92327e-08 0 1.3777e-10
-1.95559e-08 0 8.18089e-11
-1.97225e-08 0 4.45668e-11
-1.9791e-08 0 2.13052e-11
-1.98026e-08 0 7.70974e-12
-1.97846e-08 0 3.92995e-13
-1.97539e-08 0 -3.07546e-12
-1.97203e-08 0 -4.32857e-12
-1.96889e-08 0 -4.40448e-12
-1.96621e-08 0 -3.9289e-12
-1.96403e-08 0 -3.25704e-12
-1.96233e-08 0 -2.57523e-12
-1.96105e-08 0 -1.96961e-12
-1.96009e-08 0 -1.47015e-12
-1.95939e-08 0 -1.07701e-12
-1.95889e-08 0 -7.77127e-13
-1.95854e-08 0 -5.54227e-13
-1.95831e-08 0 -3.93908e-13
-1.95816e-08 0 -2.88329e-13
-1.95809e-08 0 -2.46312e-13
-1.95805e-08 0 -2.66656e-13
-1.95811e-08 0 -1.30176e-13
0.00539428 0 -6.54342e-10
0.0036 -3.01594e-07 -6.10921e-08
0.0035998 -0.00138957 -2.15841e-05
0.00669914 -0.00393795 0.000114245
0.0136112 -0.00587559 -0.00048988
0.0235005 -0.0144916 -0.00426594
0.0464069 -0.0134669 -0.00489032
0.0499468 -0.00195074 -0.00164748
0.0496909 0.00262224 -0.000164687
0.0447138 0.0049447 0.000572555
0.0391193 0.00510562 0.000569362
0.0340312 0.00443148 0.000313244
0.0297659 0.00354434 4.89758e-05
0.0263868 0.00267699 -0.000142771
0.0238174 0.00193001 -0.000245809
0.0219006 0.00134637 -0.000271295
0.0204651 0.000925163 -0.000242261
0.0193725 0.000638394 -0.000184395
0.0185285 0.000449874 -0.000119823
0.0178746 0.000326203 -6.37368e-05
0.0173733 0.000241843 -2.3309e-05
0.0169971 0.000180347 9.73831e-07
0.0167226 0.00013284 1.24679e-05
0.016529 9.52716e-05 1.56375e-05
0.0163974 6.58978e-05 1.43726e-05
0.0163117 4.36747e-05 1.13681e-05
0.0162586 2.75657e-05 8.16346e-06
0.0162275 1.64152e-05 5.45402e-06
0.0162108 9.05433e-06 3.43083e-06
0.0162029 4.43154e-06 2.03978e-06
0.0162001 1.68816e-06 1.14137e-06
0.0162001 1.74295e-07 5.91134e-07
0.0162014 -5.73168e-07 2.7095e-07
0.0162031 -8.67989e-07 9.50695e-08
0.0162049 -9.13371e-07 5.63314e-09
0.0162065 -8.3506e-07 -3.44023e-08
0.0162078 -7.06956e-07 -4.77451e-08
0.0162089 -5.69667e-07 -4.7757e-08
0.0162097 -4.43341e-07 -4.19576e-08
0.0162103 -3.36168e-07 -3.43479e-08
0.0162107 -2.49791e-07 -2.68881e-08
0.0162111 -1.82618e-07 -2.04047e-08
0.0162113 -1.3174e-07 -1.51262e-08
0.0162115 -9.39874e-08 -1.10002e-08
0.0162116 -6.64475e-08 -7.87038e-09
0.0162117 -4.66724e-08 -5.55203e-09
0.0162117 -3.27063e-08 -3.83284e-09
0.0162118 -2.30422e-08 -2.40782e-09
0.0162118 -1.66617e-08 -4.88071e-10
0.0162118 -1.41388e-08 2.64786e-09
0.0162119 -2.64373e-08 6.4699e-10
0.0162119 -3.87995e-08 -3.25617e-09
0.01 -1.34282e-07 -1.43329e-06
0.0100007 -0.00298399 -0.000598311
0.0147866 -0.00996948 -0.000793386
0.0241955 -0.0177679 -0.00122796
0.0386387 -0.0326566 -0.00333315
0.0593622 -0.0249745 -0.000811379
0.0565807 -0.00277866 0.00319227
0.0560147 0.00505402 0.00339126
0.0502433 0.010013 0.00300536
0.0447955 0.0101391 0.00213047
0.0403212 0.00903179 0.0012105
0.0366402 0.00759393 0.000485139
0.0336951 0.00612915 -2.60231e-05
0.0314334 0.00481069 -0.000333601
0.0297011 0.00372046 -0.000458622
0.0283477 0.00285691 -0.000449027
0.027271 0.00217935 -0.000362563
0.0264138 0.00164604 -0.000249802
0.0257443 0.00122606 -0.000145444
0.0252382 0.000897719 -6.65506e-05
0.0248702 0.000644374 -1.61938e-05
0.0246136 0.000452003 1.04871e-05
0.0244427 0.000308592 2.0963e-05
0.0243348 0.000204018 2.21114e-05
0.0242713 0.000129787 1.89376e-05
0.0242375 7.87495e-05 1.44876e-05
0.0242225 4.49169e-05 1.02958e-05
0.0242186 2.34009e-05 6.93879e-06
0.0242206 1.03656e-05 4.48843e-06
0.0242253 2.93581e-06 2.80604e-06
0.0242308 -9.45995e-07 1.70081e-06
0.0242361 -2.68858e-06 9.99444e-07
0.0242406 -3.21628e-06 5.67453e-07
0.0242443 -3.10988e-06 3.08834e-07
0.0242473 -2.71722e-06 1.58571e-07
0.0242495 -2.23478e-06 7.42365e-08
0.0242512 -1.76473e-06 2.89473e-08
0.0242524 -1.35315e-06 6.10345e-09
0.0242533 -1.01469e-06 -4.28895e-09
0.0242539 -7.47726e-07 -8.08761e-09
0.0242543 -5.43366e-07 -8.62153e-09
0.0242547 -3.90424e-07 -7.70571e-09
0.0242549 -2.77988e-07 -6.28489e-09
0.024255 -1.96558e-07 -4.83375e-09
0.0242551 -1.3841e-07 -3.56115e-09
0.0242552 -9.75814e-08 -2.45403e-09
0.0242553 -6.97632e-08 -1.16645e-09
0.0242553 -5.39875e-08 1.00559e-09
0.0242553 -5.27349e-08 4.06813e-09
0.0242554 -7.61085e-08 -2.89397e-09
0.0242554 -9.60618e-08 -1.15064e-08
0.0148 -9.43606e-07 -1.72247e-06
0.0148023 -0.00530052 -0.00112435
0.0204097 -0.0164617 -0.00244968
0.0276232 -0.028939 -0.00394363
0.0323031 -0.0463843 -0.00578002
0.0307509 -0.0286259 -0.00142286
0.0269345 -1.21807e-05 0.00331134
0.0263703 0.00704479 0.00352706
0.0298528 0.0143462 0.00343631
0.0302031 0.0137157 0.00248198
0.0294242 0.0118912 0.00153958
0.0286128 0.0100208 0.000721732
0.0280082 0.0081536 0.000128356
0.0277095 0.00645427 -0.000231777
0.0275891 0.0050531 -0.000379716
0.0275407 0.00392622 -0.000379985
0.0275176 0.00301003 -0.000301803
0.0275101 0.00225954 -0.000198584
0.0275203 0.00165225 -0.000103492
0.027549 0.00117457 -3.19164e-05
0.0275924 0.000811237 1.31968e-05
0.0276448 0.00054336 3.58001e-05
0.0277008 0.000351178 4.24823e-05
0.027756 0.000216921 3.97815e-05
0.0278075 0.000125921 3.28192e-05
0.0278532 6.65014e-05 2.49148e-05
0.0278922 2.95043e-05 1.78122e-05
0.0279243 7.87152e-06 1.21642e-05
0.0279497 -3.67968e-06 8.00797e-06
0.0279693 -8.94935e-06 5.11103e-06
0.0279841 -1.05483e-05 3.17238e-06
0.0279949 -1.01835e-05 1.91679e-06
0.0280027 -8.9119e-06 1.12624e-06
0.0280082 -7.34712e-06 6.41368e-07
0.0280121 -5.81602e-06 3.51681e-07
0.0280148 -4.46983e-06 1.83389e-07
0.0280167 -3.35879e-06 8.87115e-08
0.0280179 -2.47978e-06 3.75244e-08
0.0280188 -1.80519e-06 1.131e-08
0.0280194 -1.29919e-06 -1.03245e-09
0.0280198 -9.26369e-07 -5.98415e-09
0.02802 -6.55577e-07 -7.21109e-09
0.0280202 -4.61214e-07 -6.71577e-09
0.0280203 -3.23184e-07 -5.56457e-09
0.0280204 -2.26251e-07 -4.25306e-09
0.0280205 -1.59525e-07 -2.9143e-09
0.0280205 -1.15872e-07 -1.19818e-09
0.0280205 -9.22904e-08 8.6823e-10
0.0280206 -8.95405e-08 6.05285e-10
0.0280206 -1.02753e-07 -1.2189e-08
0.0280206 -1.11888e-07 -2.36969e-08
0.018 -1.90328e-06 -1.66822e-06
0.0180029 -0.00701966 -0.00187313
0.0208012 -0.0190742 -0.00492727
0.0207676 -0.02512 -0.00635252
0.0161175 -0.0271323 -0.00764073
-1.58365e-06 -0.0140764 -0.00434332
9.55415e-05 2.55667e-05 9.14793e-07
-3.25237e-05 3.38454e-05 0.000655768
0.00655109 0.00403697 0.0014475
0.0133467 0.00912052 0.00142308
0.0167332 0.00984791 0.00102116
0.0185259 0.00883145 0.000495365
0.0202418 0.00729423 1.78283e-05
0.0219436 0.00574625 -0.00025447
0.0234624 0.00447803 -0.000336957
0.0247341 0.00345468 -0.00030529
0.0257715 0.0026033 -0.000224742
0.026613 0.0018904 -0.000136271
0.0272949 0.00131114 -6.03833e-05
0.0278439 0.000864139 -4.56871e-06
0.0282795 0.000537885 3.05619e-05
0.028619 0.000311417 4.78052e-05
0.0288788 0.000161032 5.16552e-05
0.0290745 6.56283e-05 4.70976e-05
0.0292199 8.61474e-06 3.85455e-05
0.0293263 -2.23843e-05 2.9169e-05
0.0294032 -3.64388e-05 2.07758e-05
0.0294578 -4.00955e-05 1.40919e-05
0.0294959 -3.79334e-05 9.17352e-06
0.0295221 -3.29962e-05 5.75841e-06
0.0295397 -2.71693e-05 3.49291e-06
0.0295514 -2.15137e-05 2.0464e-06
0.0295591 -1.65427e-05 1.15394e-06
0.0295641 -1.24341e-05 6.21208e-07
0.0295673 -9.17882e-06 3.13977e-07
0.0295693 -6.67835e-06 1.43573e-07
0.0295705 -4.80231e-06 5.35486e-08
0.0295713 -3.42036e-06 9.13933e-09
0.0295718 -2.41709e-06 -1.04029e-08
0.0295721 -1.69722e-06 -1.70693e-08
0.0295723 -1.18559e-06 -1.75512e-08
0.0295724 -8.24841e-07 -1.54194e-08
0.0295725 -5.72234e-07 -1.24655e-08
0.0295726 -3.96581e-07 -9.53644e-09
0.0295726 -2.75611e-07 -6.92134e-09
0.0295726 -1.93914e-07 -4.69558e-09
0.0295726 -1.41299e-07 -2.72112e-09
0.0295726 -1.1e-07 -1.3908e-09
0.0295726 -9.53054e-08 -6.03864e-09
0.0295726 -8.13925e-08 -2.11861e-08
0.0295726 -7.09138e-08 -3.13299e-08
0.0196 -2.77027e-06 -2.5152e-06
0.019601 -0.00593658 -0.00274367
0.0190518 -0.0132508 -0.00648814
0.0159231 -0.0163059 -0.00670132
0.0108485 -0.015297 -0.00669719
0.00169843 -0.00630811 -0.0050485
7.10842e-05 -6.52597e-05 -0.00130574
3.2736e-05 -3.2736e-05 -4.16244e-08
-3.19293e-05 3.3118e-05 0.000264887
0.00385798 0.00268204 0.000568353
0.00878725 0.0062246 0.000502386
0.0116788 0.00642458 0.000154165
0.0149182 0.00498896 -0.000230441
0.0180642 0.00366655 -0.000402978
0.0207573 0.00272445 -0.000405949
0.0229368 0.00201185 -0.000327779
0.0246659 0.0014173 -0.000229137
0.0260292 0.000911546 -0.000140178
0.0270967 0.000505518 -7.04472e-05
0.0279202 0.000209741 -2.00875e-05
0.0285412 1.74308e-05 1.30428e-05
0.0289969 -9.2259e-05 3.13308e-05
0.0293226 -0.000144034 3.77706e-05
0.0295496 -0.000159112 3.60949e-05
0.0297043 -0.000152909 3.00867e-05
0.0298075 -0.00013571 2.27519e-05
0.0298749 -0.000114093 1.59464e-05
0.0299178 -9.20877e-05 1.04929e-05
0.0299445 -7.19635e-05 6.52921e-06
0.0299606 -5.47823e-05 3.851e-06
0.02997 -4.08184e-05 2.14568e-06
0.0299753 -2.98848e-05 1.1157e-06
0.0299781 -2.15688e-05 5.25067e-07
0.0299795 -1.53868e-05 2.0527e-07
0.0299801 -1.08739e-05 4.43541e-08
0.0299803 -7.62675e-06 -2.79781e-08
0.0299803 -5.31696e-06 -5.37597e-08
0.0299802 -3.68884e-06 -5.69595e-08
0.0299801 -2.54949e-06 -5.05623e-08
0.02998 -1.75676e-06 -4.1175e-08
0.0299799 -1.20777e-06 -3.18692e-08
0.0299799 -8.29072e-07 -2.38465e-08
0.0299798 -5.6881e-07 -1.73811e-08
0.0299798 -3.9073e-07 -1.23837e-08
0.0299797 -2.69727e-07 -8.63578e-09
0.0299797 -1.88251e-07 -5.99086e-09
0.0299797 -1.3374e-07 -4.47322e-09
0.0299797 -9.51881e-08 -4.07372e-09
0.0299796 -6.36354e-08 -1.08867e-08
0.0299796 -2.19558e-08 -2.38674e-08
0.0299795 4.89669e-09 -3.01066e-08
0.0196 -1.33601e-06 -3.5155e-06
0.0195999 -0.00370351 -0.00312859
0.018749 -0.00814178 -0.0065297
0.017492 -0.00819274 -0.00605934
0.0131499 -0.00437428 -0.00554533
0.00904821 0.00250741 -0.00534071
0.006134 0.00312855 -0.00313079
7.12611e-05 -5.92582e-05 -0.000680871
2.73289e-05 -2.73289e-05 -1.25127e-07
-3.14001e-05 3.24585e-05 9.79253e-05
0.00263355 0.00182067 0.000372338
0.00684335 0.00276784 0.000274246
0.0120596 0.00124146 -0.000166558
0.016665 0.000350641 -0.000373943
0.0202525 3.76126e-05 -0.000389337
0.022938 -9.6465e-05 -0.000316263
0.0249354 -0.000226326 -0.000224919
0.0264184 -0.00036724 -0.000147181
0.0275062 -0.00048055 -8.93964e-05
0.0282827 -0.00053658 -4.80547e-05
0.028815 -0.000532833 -1.92707e-05
0.0291623 -0.00048571 -9.1472e-07
0.0293764 -0.000416174 8.68407e-06
0.0295002 -0.000340819 1.176e-05
0.0295659 -0.000269695 1.08989e-05
0.0295967 -0.000207636 8.34168e-06
0.0296077 -0.000156222 5.563e-06
0.0296084 -0.000115245 3.27735e-06
0.0296043 -8.35916e-05 1.67612e-06
0.0295987 -5.97737e-05 6.84054e-07
0.029593 -4.22421e-05 1.37755e-07
0.0295881 -2.95707e-05 -1.21857e-07
0.0295841 -2.05466e-05 -2.16059e-07
0.029581 -1.41948e-05 -2.25231e-07
0.0295786 -9.76436e-06 -1.97306e-07
0.0295769 -6.69529e-06 -1.58152e-07
0.0295756 -4.5801e-06 -1.20138e-07
0.0295747 -3.12777e-06 -8.81027e-08
0.0295741 -2.1333e-06 -6.30752e-08
0.0295737 -1.45373e-06 -4.44094e-08
0.0295733 -9.90107e-07 -3.09022e-08
0.0295731 -6.74277e-07 -2.13107e-08
0.029573 -4.59474e-07 -1.45728e-08
0.0295729 -3.13585e-07 -9.91422e-09
0.0295728 -2.14365e-07 -6.83097e-09
0.0295727 -1.45869e-07 -5.00837e-09
0.0295727 -9.61158e-08 -4.41808e-09
0.0295727 -5.47135e-08 -4.53109e-09
0.0295726 -1.15174e-08 -1.01938e-08
0.0295726 4.5493e-08 -1.84208e-08
0.0295725 7.92266e-08 -2.10655e-08
0.018 -8.49005e-07 -3.511e-06
0.0180009 -0.00201888 -0.00305186
0.0183105 -0.00391097 -0.00616834
0.0183579 -0.0027285 -0.0052914
0.0173314 0.000555672 -0.00418999
0.0170431 0.00701603 -0.00396576
0.0177753 0.0125499 -0.00301981
0.0109106 0.00692514 -0.00151511
7.26971e-05 -4.58193e-05 -0.000442247
-2.45705e-05 -5.34089e-05 5.47613e-07
7.77822e-06 -0.000766827 0.00075646
0.00819409 -0.00302025 0.00110011
0.0154032 -0.00458929 0.00044952
0.0203059 -0.0041612 0.000109595
0.0234354 -0.00317242 -2.77727e-05
0.0254368 -0.00234194 -7.26232e-05
0.0267358 -0.00180021 -8.22508e-05
0.0275719 -0.00146136 -8.1111e-05
0.0280821 -0.00121844 -7.55519e-05
0.0283577 -0.00100805 -6.56565e-05
0.0284706 -0.000811013 -5.21907e-05
0.0284804 -0.000631309 -3.7805e-05
0.0284339 -0.000477102 -2.5259e-05
0.028364 -0.000352195 -1.59475e-05
0.028291 -0.000255365 -9.82688e-06
0.0282254 -0.00018259 -6.11234e-06
0.0281713 -0.000129089 -3.93076e-06
0.028129 -9.04148e-05 -2.628e-06
0.0280974 -6.28426e-05 -1.80702e-06
0.0280743 -4.34124e-05 -1.25654e-06
0.0280578 -2.98509e-05 -8.71072e-07
0.0280463 -2.04571e-05 -5.9668e-07
0.0280382 -1.39873e-05 -4.02166e-07
0.0280326 -9.54901e-06 -2.66405e-07
0.0280288 -6.51245e-06 -1.73538e-07
0.0280262 -4.43832e-06 -1.11323e-07
0.0280244 -3.02301e-06 -7.04571e-08
0.0280232 -2.05788e-06 -4.40853e-08
0.0280224 -1.40008e-06 -2.73267e-08
0.0280218 -9.52013e-07 -1.68128e-08
0.0280214 -6.47023e-07 -1.02846e-08
0.0280211 -4.39573e-07 -6.25995e-09
0.028021 -2.98439e-07 -3.80091e-09
0.0280208 -2.0199e-07 -2.36393e-09
0.0280207 -1.34947e-07 -1.65205e-09
0.0280207 -8.61322e-08 -1.45003e-09
0.0280206 -4.68802e-08 -1.70282e-09
0.0280206 -9.87025e-09 -1.82322e-09
0.0280206 3.33494e-08 -4.32172e-09
0.0280205 8.71406e-08 -8.10905e-09
0.0280205 1.16527e-07 -9.26655e-09
0.0148 -4.75618e-07 -3.11051e-06
0.0148015 -0.00104279 -0.00283293
0.0162277 -0.00166918 -0.00543319
0.0177809 -7.28108e-05 -0.00429327
0.0190836 0.00311938 -0.00305885
0.0207991 0.00731069 -0.0028335
0.0246057 0.0129704 -0.00240959
0.0278977 0.019499 -0.00152797
0.0229484 0.0112739 -0.000355495
0.0234091 1.43699e-11 0.000619571
0.0265613 -0.00674297 0.0015622
0.0299277 -0.0131749 0.00212243
0.0306455 -0.0110863 0.00164632
0.0299883 -0.00770604 0.00113164
0.0289784 -0.00501634 0.000664497
0.0280435 -0.00326673 0.000310696
0.0272791 -0.00220494 8.60691e-05
0.0266631 -0.00154911 -3.4274e-05
0.0261563 -0.00111127 -8.46504e-05
0.0257334 -0.000794636 -9.3297e-05
0.0253824 -0.000558303 -8.06452e-05
0.0250969 -0.000384757 -6.05581e-05
0.0248713 -0.000261859 -4.11476e-05
0.0246982 -0.000177648 -2.59049e-05
0.0245689 -0.000121014 -1.53622e-05
0.0244745 -8.30507e-05 -8.68167e-06
0.024407 -5.74184e-05 -4.70667e-06
0.0243595 -3.99131e-05 -2.44855e-06
0.0243265 -2.78299e-05 -1.2111e-06
0.0243038 -1.9425e-05 -5.543e-07
0.0242883 -1.35526e-05 -2.17745e-07
0.0242777 -9.44211e-06 -5.35295e-08
0.0242706 -6.5649e-06 2.02054e-08
0.0242657 -4.55333e-06 4.79377e-08
0.0242624 -3.14974e-06 5.34287e-08
0.0242601 -2.17276e-06 4.91062e-08
0.0242586 -1.4946e-06 4.12653e-08
0.0242576 -1.02524e-06 3.29281e-08
0.0242569 -7.01378e-07 2.54056e-08
0.0242564 -4.78586e-07 1.91431e-08
0.0242561 -3.25725e-07 1.41712e-08
0.0242558 -2.2097e-07 1.03473e-08
0.0242557 -1.4896e-07 7.46831e-09
0.0242556 -9.87699e-08 5.32088e-09
0.0242555 -6.24772e-08 3.73164e-09
0.0242555 -3.41391e-08 2.61103e-09
0.0242554 -8.96972e-09 1.93603e-09
0.0242554 1.67186e-08 1.95857e-09
0.0242554 4.67266e-08 1.89252e-09
0.0242554 8.01808e-08 -2.27122e-10
0.0242555 9.69777e-08 -2.03227e-09
0.01 -9.10892e-07 -2.81902e-06
0.0100008 -0.000638728 -0.00230718
0.011317 -0.000724972 -0.00414745
0.013166 0.00053221 -0.00290537
0.0155747 0.00249612 -0.00179622
0.0194429 0.00554247 -0.00180083
0.0253441 0.00835835 -0.00235686
0.0344646 0.0101198 -0.00209423