# vtk DataFile Version 2.0
Tobias Weinzierl: CPU, Manycore and Cluster Computing
ASCII

DATASET STRUCTURED_POINTS
DIMENSIONS  51 11 6

ORIGIN 0 0 0 

SPACING 0.1 0.1 0.1 

POINT_DATA 3366

VECTORS velocity float
0 0 0
3.34034e-13 0 0
-2.07187e-10 0 0
-3.41721e-10 0 0
-1.50177e-09 0 0
1.08089e-09 0 0
1.62414e-09 0 0
1.65029e-09 0 0
1.9045e-09 0 0
2.50056e-09 0 0
3.25332e-09 0 0
3.86343e-09 0 0
4.08323e-09 0 0
3.83548e-09 0 0
3.14813e-09 0 0
2.13799e-09 0 0
1.02487e-09 0 0
4.65326e-11 0 0
-6.9354e-10 0 0
-1.26344e-09 0 0
-1.80207e-09 0 0
-2.40448e-09 0 0
-3.07936e-09 0 0
-3.77338e-09 0 0
-4.41739e-09 0 0
-4.96031e-09 0 0
-5.38063e-09 0 0
-5.68203e-09 0 0
-5.88289e-09 0 0
-6.00672e-09 0 0
-6.07595e-09 0 0
-6.1091e-09 0 0
-6.12005e-09 0 0
-6.11848e-09 0 0
-6.11075e-09 0 0
-6.10077e-09 0 0
-6.09073e-09 0 0
-6.08176e-09 0 0
-6.07428e-09 0 0
-6.06833e-09 0 0
-6.06378e-09 0 0
-6.06039e-09 0 0
-6.05792e-09 0 0
-6.05619e-09 0 0
-6.055e-09 0 0
-6.05422e-09 0 0
-6.05373e-09 0 0
-6.05344e-09 0 0
-6.05335e-09 0 0
-6.05356e-09 0 0
0.00189281 0 0
0 3.80244e-07 0
6.10075e-13 -1.44376e-11 0
-3.15253e-10 -3.40031e-10 0
-1.19236e-10 -1.02129e-10 0
-7.72264e-10 -9.30631e-10 0
3.51623e-09 -8.54334e-10 0
4.12581e-09 9.42042e-10 0
3.96507e-09 7.46026e-10 0
5.02004e-09 -4.96014e-10 0
7.19205e-09 -1.78679e-09 0
9.65415e-09 -2.69632e-09 0
1.15362e-08 -2.96705e-09 0
1.21966e-08 -2.4238e-09 0
1.14507e-08 -1.14844e-09 0
9.62059e-09 3.43651e-10 0
7.28576e-09 1.39907e-09 0
4.94656e-09 1.71653e-09 0
2.84965e-09 1.47337e-09 0
9.63058e-10 1.06357e-09 0
-9.01343e-10 7.77498e-10 0
-2.91139e-09 6.84824e-10 0
-5.10402e-09 7.07917e-10 0
-7.37767e-09 7.41686e-10 0
-9.55677e-09 7.2386e-10 0
-1.1474e-08 6.44702e-10 0
-1.30259e-08 5.25639e-10 0
-1.41869e-08 3.95244e-10 0
-1.49916e-08 2.75308e-10 0
-1.55071e-08 1.77156e-10 0
-1.58082e-08 1.03611e-10 0
-1.59622e-08 5.24673e-11 0
-1.60225e-08 1.93952e-11 0
-1.60282e-08 -2.66254e-13 0
-1.60054e-08 -1.06328e-11 0
-1.59708e-08 -1.49707e-11 0
-1.59339e-08 -1.56858e-11 0
-1.58998e-08 -1.44422e-11 0
-1.58708e-08 -1.23217e-11 0
-1.58474e-08 -9.97853e-12 0
-1.58292e-08 -7.77117e-12 0
-1.58155e-08 -5.866e-12 0
-1.58054e-08 -4.31236e-12 0
-1.57981e-08 -3.09415e-12 0
-1.5793e-08 -2.16373e-12 0
-1.57895e-08 -1.46288e-12 0
-1.57872e-08 -9.33234e-13 0
-1.57857e-08 -5.17384e-13 0
-1.57849e-08 -1.44483e-13 0
-1.57847e-08 3.29282e-13 0
-1.57853e-08 1.22074e-12 0
0.00545276 -1.14672e-08 0
0 -1.85609e-08 0
8.64215e-13 -8.77422e-11 0
3.4432e-10 -1.23852e-09 0
1.89794e-09 -3.01973e-09 0
3.78529e-09 -5.31373e-09 0
6.63841e-09 -3.7632e-09 0
5.14147e-09 9.1008e-11 0
3.93266e-09 -2.64975e-10 0
4.75529e-09 -2.57499e-09 0
7.98774e-09 -4.90273e-09 0
1.18735e-08 -6.94541e-09 0
1.46663e-08 -8.41034e-09 0
1.55054e-08 -8.55185e-09 0
1.41519e-08 -6.84483e-09 0
1.14346e-08 -3.73035e-09 0
8.37328e-09 -2.19317e-10 0
5.53072e-09 2.79959e-09 0
3.00051e-09 4.83658e-09 0
6.6144e-10 5.80661e-09 0
-1.61832e-09 5.92019e-09 0
-3.91237e-09 5.5015e-09 0
-6.22673e-09 4.82225e-09 0
-8.49351e-09 4.04305e-09 0
-1.05872e-08 3.24621e-09 0
-1.23751e-08 2.48406e-09 0
-1.37713e-08 1.79971e-09 0
-1.47601e-08 1.2248e-09 0
-1.53865e-08 7.7341e-10 0
-1.57285e-08 4.41916e-10 0
-1.58703e-08 2.14291e-10 0
-1.58858e-08 6.89358e-11 0
-1.58312e-08 -1.59477e-11 0
-1.57452e-08 -5.92955e-11 0
-1.56518e-08 -7.60234e-11 0
-1.55643e-08 -7.70267e-11 0
-1.54888e-08 -6.97598e-11 0
-1.54273e-08 -5.90003e-11 0
-1.5379e-08 -4.75863e-11 0
-1.53423e-08 -3.70348e-11 0
-1.5315e-08 -2.80175e-11 0
-1.52952e-08 -2.07032e-11 0
-1.5281e-08 -1.49886e-11 0
-1.5271e-08 -1.06457e-11 0
-1.52641e-08 -7.40766e-12 0
-1.52595e-08 -5.01599e-12 0
-1.52564e-08 -3.2363e-12 0
-1.52545e-08 -1.84556e-12 0
-1.52535e-08 -5.67164e-13 0
-1.52533e-08 9.35208e-13 0
-1.52539e-08 2.99219e-12 0
0.00788473 -2.86465e-08 0
0 -6.28375e-07 0
1.29841e-12 -7.69887e-10 0
9.2924e-10 -2.94116e-09 0
3.03433e-09 -5.77085e-09 0
4.33977e-09 -7.7052e-09 0
4.20298e-09 -4.10738e-09 0
2.63999e-09 -2.50756e-12 0
1.61793e-09 -1.09892e-09 0
6.7416e-10 -3.68887e-09 0
2.18321e-09 -7.00375e-09 0
5.54577e-09 -1.08234e-08 0
8.08448e-09 -1.41847e-08 0
8.96161e-09 -1.51906e-08 0
7.62518e-09 -1.28986e-08 0
4.78989e-09 -7.98519e-09 0
1.36676e-09 -1.66296e-09 0
-1.99383e-09 4.55412e-09 0
-4.83061e-09 9.17122e-09 0
-6.81167e-09 1.13746e-08 0
-7.82146e-09 1.13467e-08 0
-8.03306e-09 9.90718e-09 0
-7.80588e-09 7.91379e-09 0
-7.47472e-09 5.92393e-09 0
-7.21076e-09 4.18744e-09 0
-7.0269e-09 2.77471e-09 0
-6.86376e-09 1.68251e-09 0
-6.66702e-09 8.81585e-10 0
-6.41853e-09 3.30685e-10 0
-6.13126e-09 -1.83109e-11 0
-5.83187e-09 -2.14965e-10 0
-5.5461e-09 -3.04805e-10 0
-5.29172e-09 -3.25662e-10 0
-5.07741e-09 -3.06348e-10 0
-4.90458e-09 -2.67116e-10 0
-4.77003e-09 -2.21104e-10 0
-4.66826e-09 -1.76066e-10 0
-4.5931e-09 -1.36001e-10 0
-4.53871e-09 -1.0248e-10 0
-4.50001e-09 -7.56316e-11 0
-4.47289e-09 -5.48293e-11 0
-4.45413e-09 -3.91273e-11 0
-4.44129e-09 -2.75202e-11 0
-4.43262e-09 -1.90782e-11 0
-4.42684e-09 -1.30044e-11 0
-4.42308e-09 -8.64414e-12 0
-4.42073e-09 -5.45945e-12 0
-4.41933e-09 -2.99287e-12 0
-4.41855e-09 -8.33282e-13 0
-4.41816e-09 1.33763e-12 0
-4.41825e-09 3.54963e-12 0
0.00897971 -3.17672e-08 0
0 -1.23444e-06 0
7.07966e-13 -1.49025e-09 0
1.59947e-10 -4.22357e-09 0
8.55671e-10 -5.61564e-09 0
9.60654e-10 -4.5411e-09 0
-2.76066e-13 -1.65942e-09 0
-2.72468e-12 -3.88188e-12 0
3.50767e-12 -3.55949e-12 0
-9.65575e-10 -1.89031e-09 0
-3.26312e-09 -6.78708e-09 0
-4.05209e-09 -1.26835e-08 0
-2.89355e-09 -1.76354e-08 0
-2.61353e-09 -1.94129e-08 0
-3.86778e-09 -1.66354e-08 0
-6.15987e-09 -1.00054e-08 0
-8.87679e-09 -1.19792e-09 0
-1.14437e-08 7.26545e-09 0
-1.32625e-08 1.29975e-08 0
-1.37711e-08 1.49634e-08 0
-1.27132e-08 1.37559e-08 0
-1.03458e-08 1.08246e-08 0
-7.31205e-09 7.51383e-09 0
-4.28464e-09 4.60304e-09 0
-1.68819e-09 2.36029e-09 0
3.47925e-10 7.75957e-10 0
1.88208e-09 -2.56676e-10 0
3.03383e-09 -8.59612e-10 0
3.91015e-09 -1.14612e-09 0
4.58493e-09 -1.21516e-09 0
5.10502e-09 -1.1486e-09 0
5.50185e-09 -1.00952e-09 0
5.79943e-09 -8.42457e-10 0
6.01804e-09 -6.75783e-10 0
6.1753e-09 -5.25291e-10 0
6.28616e-09 -3.97922e-10 0
6.36288e-09 -2.95012e-10 0
6.41508e-09 -2.14751e-10 0
6.45005e-09 -1.53883e-10 0
6.47315e-09 -1.08763e-10 0
6.48821e-09 -7.59404e-11 0
6.4979e-09 -5.24342e-11 0
6.50407e-09 -3.58148e-11 0
6.50793e-09 -2.41783e-11 0
6.5103e-09 -1.6073e-11 0
6.5117e-09 -1.04079e-11 0
6.51247e-09 -6.36801e-12 0
6.51294e-09 -3.35824e-12 0
6.51339e-09 -9.92139e-13 0
6.51405e-09 9.37372e-13 0
6.51461e-09 2.42342e-12 0
0.00942762 -1.63067e-08 0
0 -1.11914e-06 0
5.26958e-14 -1.40227e-09 0
-8.23455e-10 -3.26862e-09 0
-1.0456e-09 -4.2657e-09 0
-1.50485e-09 -4.51931e-09 0
-1.05964e-09 -2.12022e-09 0
-3.07685e-12 2.83607e-12 0
6.73076e-13 -6.73076e-13 0
3.71856e-12 -3.25176e-12 0
-2.15005e-09 -3.05655e-09 0
-7.46011e-09 -1.09717e-08 0
-1.01793e-08 -1.83586e-08 0
-1.21717e-08 -2.04846e-08 0
-1.40967e-08 -1.71035e-08 0
-1.56471e-08 -9.40107e-09 0
-1.66214e-08 3.24289e-10 0
-1.69062e-08 9.01854e-09 0
-1.63599e-08 1.41821e-08 0
-1.47132e-08 1.50382e-08 0
-1.17891e-08 1.25844e-08 0
-7.82041e-09 8.61081e-09 0
-3.43949e-09 4.63355e-09 0
6.50205e-10 1.44882e-09 0
3.98926e-09 -7.46137e-10 0
6.44801e-09 -2.05921e-09 0
8.12725e-09 -2.69147e-09 0
9.21663e-09 -2.84375e-09 0
9.89982e-09 -2.68856e-09 0
1.03179e-08 -2.36341e-09 0
1.05677e-08 -1.96965e-09 0
1.07122e-08 -1.57474e-09 0
1.07918e-08 -1.21766e-09 0
1.08323e-08 -9.1612e-10 0
1.08499e-08 -6.7375e-10 0
1.08548e-08 -4.86146e-10 0
1.08532e-08 -3.45176e-10 0
1.08488e-08 -2.41743e-10 0
1.08435e-08 -1.67312e-10 0
1.08384e-08 -1.14603e-10 0
1.0834e-08 -7.77678e-11 0
1.08303e-08 -5.23063e-11 0
1.08274e-08 -3.48599e-11 0
1.08251e-08 -2.29783e-11 0
1.08234e-08 -1.49036e-11 0
1.08222e-08 -9.39352e-12 0
1.08213e-08 -5.59534e-12 0
1.08209e-08 -2.96025e-12 0
1.08211e-08 -1.17568e-12 0
1.08218e-08 -1.06937e-13 0
1.08225e-08 3.25742e-13 0
0.00954538 9.25418e-09 0
0 -7.70653e-07 0
5.00643e-13 -8.0472e-10 0
-7.88969e-10 -2.09669e-09 0
-8.40419e-10 -2.76969e-09 0
-1.80571e-09 -3.08544e-09 0
-2.35814e-09 -2.65249e-09 0
-1.04722e-09 -1.04463e-09 0
-2.59673e-12 3.06485e-12 0
6.72415e-13 -6.72415e-13 0
4.96526e-12 -2.50638e-12 0
-3.33489e-09 -5.72621e-09 0
-1.02234e-08 -1.50478e-08 0
-1.57667e-08 -1.82172e-08 0
-1.93263e-08 -1.45375e-08 0
-2.09221e-08 -6.63036e-09 0
-2.04913e-08 2.39392e-09 0
-1.83362e-08 9.51818e-09 0
-1.50631e-08 1.28426e-08 0
-1.11537e-08 1.21899e-08 0
-6.87544e-09 8.86232e-09 0
-2.51979e-09 4.65084e-09 0
1.48247e-09 9.03504e-10 0
4.70861e-09 -1.7821e-09 0
6.94025e-09 -3.36521e-09 0
8.21546e-09 -4.05629e-09 0
8.74259e-09 -4.11936e-09 0
8.77902e-09 -3.79152e-09 0
8.54822e-09 -3.26101e-09 0
8.20849e-09 -2.66429e-09 0
7.85539e-09 -2.08973e-09 0
7.53766e-09 -1.58568e-09 0
7.2741e-09 -1.17101e-09 0
7.06672e-09 -8.45692e-10 0
6.90947e-09 -5.99618e-10 0
6.79344e-09 -4.18721e-10 0
6.70955e-09 -2.88711e-10 0
6.64983e-09 -1.96944e-10 0
6.60781e-09 -1.33104e-10 0
6.57851e-09 -8.92127e-11 0
6.5582e-09 -5.93242e-11 0
6.54422e-09 -3.91304e-11 0
6.53463e-09 -2.55708e-11 0
6.52811e-09 -1.65059e-11 0
6.52372e-09 -1.04633e-11 0
6.52082e-09 -6.45224e-12 0
6.51903e-09 -3.82823e-12 0
6.51811e-09 -2.19384e-12 0
6.51795e-09 -1.33086e-12 0
6.51837e-09 -1.20512e-12 0
6.51879e-09 -1.77739e-12 0
0.00942762 3.18796e-08 0
0 -5.39661e-07 0
1.12018e-12 -4.23923e-10 0
-2.99537e-10 -1.21545e-09 0
-3.37208e-10 -2.01032e-09 0
-1.02247e-09 -2.34012e-09 0
-2.50119e-09 -1.65721e-09 0
-2.98019e-09 -4.48035e-10 0
-1.90948e-09 8.78998e-11 0
-3.21753e-12 2.90566e-12 0
5.37538e-12 1.25979e-12 0
2.00809e-12 -3.26466e-09 0
-5.47908e-09 -1.02066e-08 0
-1.37988e-08 -1.31832e-08 0
-2.08367e-08 -8.95438e-09 0
-2.42201e-08 -1.43455e-09 0
-2.3019e-08 5.43353e-09 0
-1.82707e-08 9.37609e-09 0
-1.20925e-08 9.77189e-09 0
-6.30653e-09 7.34405e-09 0
-1.79731e-09 3.62284e-09 0
1.28493e-09 9.51108e-11 0
3.08449e-09 -2.41095e-09 0
3.80261e-09 -3.76079e-09 0
3.6634e-09 -4.20039e-09 0
2.92391e-09 -4.05777e-09 0
1.84936e-09 -3.60165e-09 0
6.68673e-10 -3.01586e-09 0
-4.55817e-10 -2.41545e-09 0
-1.43288e-09 -1.86628e-09 0
-2.22855e-09 -1.39982e-09 0
-2.84618e-09 -1.02446e-09 0
-3.30849e-09 -7.34703e-10 0
-3.64504e-09 -5.18184e-10 0
-3.88485e-09 -3.60481e-10 0
-4.05292e-09 -2.4791e-10 0
-4.16925e-09 -1.68828e-10 0
-4.249e-09 -1.13973e-10 0
-4.3033e-09 -7.6315e-11 0
-4.34008e-09 -5.06845e-11 0
-4.3649e-09 -3.33699e-11 0
-4.38158e-09 -2.17511e-11 0
-4.39274e-09 -1.40042e-11 0
-4.40014e-09 -8.87697e-12 0
-4.40501e-09 -5.52324e-12 0
-4.40814e-09 -3.3818e-12 0
-4.41007e-09 -2.09103e-12 0
-4.41113e-09 -1.43661e-12 0
-4.41156e-09 -1.32997e-12 0
-4.4116e-09 -1.84357e-12 0
-4.41182e-09 -3.00251e-12 0
0.00897971 4.01587e-08 0
0 -4.57221e-07 0
1.23515e-12 -2.09685e-10 0
9.38724e-11 -6.60566e-10 0
-1.43979e-11 -1.14223e-09 0
-1.03999e-09 -1.37764e-09 0
-3.05658e-09 -5.51713e-10 0
-4.49624e-09 9.05334e-10 0
-4.52853e-09 -1.07731e-10 0
-3.02023e-09 -8.7849e-10 0
-2.26856e-09 4.40869e-14 0
-9.88439e-10 -3.21396e-09 0
-4.63028e-09 -7.27731e-09 0
-1.37375e-08 -6.64834e-09 0
-2.24147e-08 -2.38014e-09 0
-2.55762e-08 2.80013e-09 0
-2.20586e-08 6.23549e-09 0
-1.45206e-08 6.89038e-09 0
-6.86533e-09 5.118e-09 0
-1.7156e-09 2.09404e-09 0
3.57873e-10 -8.02761e-10 0
1.10167e-10 -2.67149e-09 0
-1.40523e-09 -3.36653e-09 0
-3.40583e-09 -3.24273e-09 0
-5.46524e-09 -2.74527e-09 0
-7.38989e-09 -2.17713e-09 0
-9.09628e-09 -1.67428e-09 0
-1.05489e-08 -1.26981e-09 0
-1.17399e-08 -9.55231e-10 0
-1.26826e-08 -7.12918e-10 0
-1.34055e-08 -5.27115e-10 0
-1.39448e-08 -3.85607e-10 0
-1.43379e-08 -2.7891e-10 0
-1.46192e-08 -1.99427e-10 0
-1.48173e-08 -1.40972e-10 0
-1.49552e-08 -9.85261e-11 0
-1.50502e-08 -6.80843e-11 0
-1.51152e-08 -4.65088e-11 0
-1.51593e-08 -3.1391e-11 0
-1.51892e-08 -2.09152e-11 0
-1.52093e-08 -1.37365e-11 0
-1.52227e-08 -8.8744e-12 0
-1.52317e-08 -5.62575e-12 0
-1.52375e-08 -3.49486e-12 0
-1.52414e-08 -2.13863e-12 0
-1.52439e-08 -1.3263e-12 0
-1.52454e-08 -9.1438e-13 0
-1.52464e-08 -8.3141e-13 0
-1.5247e-08 -1.06573e-12 0
-1.52475e-08 -1.67123e-12 0
-1.52485e-08 -2.66184e-12 0
0.00788476 2.999e-08 0
0 -4.71014e-07 0
1.40452e-12 -1.07684e-11 0
2.71015e-10 -7.49401e-11 0
8.28974e-11 -1.68138e-10 0
-1.19809e-09 -2.04562e-10 0
-3.62387e-09 -1.39332e-10 0
-5.55623e-09 5.4653e-10 0
-5.65604e-09 5.29948e-10 0
-6.58381e-09 -3.53434e-10 0
-6.11966e-09 -1.01071e-09 0
-4.98913e-09 -1.73803e-09 0
-7.52022e-09 -1.25053e-09 0
-1.21374e-08 3.95771e-10 0
-1.60442e-08 1.82575e-09 0
-1.61318e-08 2.58777e-09 0
-1.19989e-08 2.46933e-09 0
-6.10095e-09 1.54235e-09 0
-1.49333e-09 2.50038e-10 0
2.38456e-10 -8.42864e-10 0
-6.53188e-10 -1.39827e-09 0
-2.98957e-09 -1.42901e-09 0
-5.6543e-09 -1.15997e-09 0
-8.01986e-09 -8.22715e-10 0
-9.89751e-09 -5.47442e-10 0
-1.13276e-08 -3.65718e-10 0
-1.24139e-08 -2.58373e-10 0
-1.32479e-08 -1.95694e-10 0
-1.38927e-08 -1.55416e-10 0
-1.439e-08 -1.2538e-10 0
-1.47698e-08 -1.00436e-10 0
-1.50555e-08 -7.89739e-11 0
-1.5267e-08 -6.06982e-11 0
-1.5421e-08 -4.55711e-11 0
-1.55316e-08 -3.34474e-11 0
-1.56099e-08 -2.40253e-11 0
-1.56647e-08 -1.69039e-11 0
-1.57026e-08 -1.16537e-11 0
-1.57286e-08 -7.86923e-12 0
-1.57463e-08 -5.19788e-12 0
-1.57583e-08 -3.35049e-12 0
-1.57663e-08 -2.10018e-12 0
-1.57716e-08 -1.2752e-12 0
-1.57751e-08 -7.50118e-13 0
-1.57774e-08 -4.369e-13 0
-1.57789e-08 -2.77712e-13 0
-1.57799e-08 -2.39596e-13 0
-1.57806e-08 -3.06183e-13 0
-1.57811e-08 -4.65102e-13 0
-1.57819e-08 -6.95325e-13 0
-1.57831e-08 -1.02507e-12 0
0.0054528 1.02411e-08 0
0 0 0
8.43878e-13 0 0
1.60027e-10 0 0
5.81184e-11 0 0
-5.56368e-10 0 0
-1.76981e-09 0 0
-2.99313e-09 0 0
-3.03717e-09 0 0
-3.56377e-09 0 0
-3.85065e-09 0 0
-3.99876e-09 0 0
-4.34042e-09 0 0
-4.42077e-09 0 0
-4.28029e-09 0 0
-3.51303e-09 0 0
-2.07121e-09 0 0
-5.80175e-10 0 0
2.17155e-10 0 0
4.2658e-11 0 0
-8.49889e-10 0 0
-1.99969e-09 0 0
-3.05319e-09 0 0
-3.86471e-09 0 0
-4.43861e-09 0 0
-4.83753e-09 0 0
-5.12382e-09 0 0
-5.3397e-09 0 0
-5.50866e-09 0 0
-5.64273e-09 0 0
-5.74855e-09 0 0
-5.83072e-09 0 0
-5.89326e-09 0 0
-5.93985e-09 0 0
-5.97388e-09 0 0
-5.99829e-09 0 0
-6.01551e-09 0 0
-6.0275e-09 0 0
-6.03574e-09 0 0
-6.04136e-09 0 0
-6.04515e-09 0 0
-6.04768e-09 0 0
-6.04935e-09 0 0
-6.05045e-09 0 0
-6.05116e-09 0 0
-6.05163e-09 0 0
-6.05196e-09 0 0
-6.05222e-09 0 0
-6.05245e-09 0 0
-6.05278e-09 0 0
-6.05333e-09 0 0
0.00189283 0 0
0 0 5.27425e-07
7.33205e-13 0 2.22472e-10
-6.36322e-10 0 6.82767e-10
-7.48674e-10 0 1.3969e-09
-5.06861e-09 0 -4.92258e-10
1.78288e-09 0 -2.27187e-09
3.8191e-09 0 -1.51141e-09
4.44406e-09 0 -1.02602e-09
5.16984e-09 0 -3.5369e-10
6.25789e-09 0 4.38594e-10
7.6677e-09 0 1.33402e-09
9.60153e-09 0 2.13751e-09
1.19626e-08 0 2.45183e-09
1.40863e-08 0 2.08333e-09
1.49816e-08 0 1.35344e-09
1.40541e-08 0 7.23783e-10
1.15131e-08 0 3.74642e-10
8.12666e-09 0 2.44952e-10
4.6148e-09 0 2.46511e-10
1.2922e-09 0 3.31294e-10
-1.84541e-09 0 4.56585e-10
-4.86424e-09 0 5.69793e-10
-7.73883e-09 0 6.27647e-10
-1.03551e-08 0 6.14612e-10
-1.25872e-08 0 5.42674e-10
-1.43615e-08 0 4.38053e-10
-1.56762e-08 0 3.26945e-10
-1.65856e-08 0 2.27431e-10
-1.71715e-08 0 1.48005e-10
-1.75197e-08 0 8.99014e-11
-1.77049e-08 0 5.03359e-11
-1.77859e-08 0 2.50763e-11
-1.78049e-08 0 9.96884e-12
-1.77905e-08 0 1.60743e-12
-1.7761e-08 0 -2.52878e-12
-1.77272e-08 0 -4.17583e-12
-1.76949e-08 0 -4.46166e-12
-1.76667e-08 0 -4.08067e-12
-1.76437e-08 0 -3.43637e-12
-1.76256e-08 0 -2.74677e-12
-1.76118e-08 0 -2.11753e-12
-1.76016e-08 0 -1.58981e-12
-1.75942e-08 0 -1.1698e-12
-1.7589e-08 0 -8.46968e-13
-1.75854e-08 0 -6.05585e-13
-1.7583e-08 0 -4.30986e-13
-1.75815e-08 0 -3.146e-13
-1.75806e-08 0 -2.63638e-13
-1.75803e-08 0 -2.79311e-13
-1.75808e-08 0 -1.7733e-13
0.00538004 0 -6.64648e-10
0.0036 -3.0155e-07 -6.1098e-08
0.0035998 -0.00138935 -2.12573e-05
0.00669792 -0.00393824 0.000115329
0.0136105 -0.00587394 -0.000486996
0.0234992 -0.0144971 -0.00426452
0.0464145 -0.0134772 -0.00489129
0.0499569 -0.00195481 -0.00164796
0.0497017 0.0026193 -0.000165244
0.0447269 0.00494097 0.000572059
0.0391356 0.00510053 0.000569778
0.0340507 0.0044249 0.000315702
0.0297891 0.00353653 5.40978e-05
0.0264145 0.00266924 -0.000135579
0.0238495 0.00192453 -0.000238256
0.0219352 0.0013451 -0.000265187
0.0204997 0.000928358 -0.000238653
0.0194046 0.000644512 -0.000183383
0.0185558 0.000456861 -0.000120729
0.017895 0.000332703 -6.55045e-05
0.0173853 0.000247469 -2.49767e-05
0.0170001 0.000185248 -3.82189e-08
0.0167168 0.000137219 1.2228e-05
0.0165152 9.918e-05 1.59987e-05
0.0163768 6.92678e-05 1.50629e-05
0.0162857 4.64258e-05 1.21452e-05
0.0162285 2.9676e-05 8.87023e-06
0.0161946 1.7934e-05 6.0191e-06
0.016176 1.00792e-05 3.84291e-06
0.016167 5.07692e-06 2.31924e-06
0.0161636 2.06189e-06 1.31932e-06
0.0161633 3.65713e-07 6.97733e-07
0.0161645 -4.96351e-07 3.30561e-07
0.0161663 -8.57896e-07 1.25434e-07
0.0161682 -9.38114e-07 1.87921e-08
0.0161698 -8.74655e-07 -3.07191e-08
0.0161713 -7.49735e-07 -4.8819e-08
0.0161724 -6.09468e-07 -5.08547e-08
0.0161733 -4.77443e-07 -4.55948e-08
0.016174 -3.63853e-07 -3.77908e-08
0.0161745 -2.7141e-07 -2.98324e-08
0.0161748 -1.98998e-07 -2.27759e-08
0.0161751 -1.43848e-07 -1.69626e-08
0.0161753 -1.02743e-07 -1.23839e-08
0.0161754 -7.26393e-08 -8.89081e-09
0.0161755 -5.0934e-08 -6.29227e-09
0.0161756 -3.55204e-08 -4.36778e-09
0.0161756 -2.47551e-08 -2.81505e-09
0.0161756 -1.74815e-08 -8.84234e-10
0.0161757 -1.39836e-08 2.14873e-09
0.0161757 -2.4103e-08 5.02969e-10
0.0161757 -3.48478e-08 -2.97387e-09
0.01 -1.34073e-07 -1.43346e-06
0.0100007 -0.00298336 -0.000597972
0.014787 -0.0099703 -0.000792851
0.0241988 -0.0177727 -0.00122612
0.0386487 -0.0326711 -0.00333145
0.0593764 -0.0249892 -0.000809799
0.0565923 -0.00278381 0.00319524
0.0560256 0.00504931 0.00339287
0.0502564 0.0100051 0.00300448
0.0448135 0.0101278 0.00212917
0.0403445 0.00901639 0.00121243
0.0366692 0.00757387 0.000492162
0.0337301 0.00610675 -1.47367e-05
0.0314729 0.00479137 -0.000320774
0.0297431 0.00370971 -0.000447578
0.0283907 0.00285728 -0.00044233
0.0273126 0.00218996 -0.000361066
0.0264503 0.00166379 -0.000252501
0.025772 0.00124721 -0.000150245
0.0252547 0.000919163 -7.13986e-05
0.024875 0.000664175 -1.98003e-05
0.0246077 0.000469228 8.52604e-06
0.0244279 0.000322921 2.04321e-05
0.0243132 0.000215442 2.25265e-05
0.0242447 0.000138485 1.98116e-05
0.0242076 8.50391e-05 1.54638e-05
0.0241907 4.92097e-05 1.11727e-05
0.0241858 2.61425e-05 7.63677e-06
0.0241876 1.19768e-05 5.00146e-06
0.0241924 3.77431e-06 3.162e-06
0.0241982 -6.01608e-07 1.93694e-06
0.0242038 -2.63634e-06 1.15021e-06
0.0242088 -3.31899e-06 6.60331e-07
0.0242128 -3.28021e-06 3.63966e-07
0.0242161 -2.90352e-06 1.89925e-07
0.0242185 -2.40942e-06 9.11106e-08
0.0242204 -1.91521e-06 3.73211e-08
0.0242217 -1.47596e-06 9.70058e-09
0.0242227 -1.11108e-06 -3.22549e-09
0.0242234 -8.21174e-07 -8.25628e-09
0.0242239 -5.98018e-07 -9.30145e-09
0.0242243 -4.30286e-07 -8.52327e-09
0.0242245 -3.06543e-07 -7.06324e-09
0.0242247 -2.16644e-07 -5.49998e-09
0.0242248 -1.52226e-07 -4.09864e-09
0.0242249 -1.06758e-07 -2.88406e-09
0.0242249 -7.54202e-08 -1.55788e-09
0.024225 -5.66065e-08 5.34112e-10
0.024225 -5.19588e-08 3.52575e-09
0.0242251 -7.03071e-08 -2.53978e-09
0.0242251 -8.71321e-08 -1.0259e-08
0.0148 -9.43233e-07 -1.72263e-06
0.0148023 -0.00530104 -0.00112395
0.0204125 -0.0164655 -0.00244974
0.0276308 -0.0289512 -0.00394428
0.0323133 -0.0464031 -0.00578158
0.030759 -0.0286358 -0.00142315
0.0269392 -1.2185e-05 0.00331357
0.0263741 0.00704221 0.00352833
0.0298547 0.0143373 0.00343519
0.0302064 0.0136992 0.00247986
0.0294326 0.0118659 0.00154024
0.0286266 0.0099867 0.000727334
0.0280275 0.0081162 0.000138099
0.0277322 0.00642268 -0.000220352
0.0276131 0.00503519 -0.000369813
0.0275636 0.0039264 -0.000374147
0.0275367 0.0030281 -0.000300883
0.0275224 0.00229081 -0.000201668
0.0275243 0.00168964 -0.000108676
0.027545 0.0012115 -3.72703e-05
0.0275824 0.000843536 9.01653e-06
0.0276314 0.0005694 3.33715e-05
0.027686 0.000370989 4.17347e-05
0.0277416 0.000231268 4.02627e-05
0.0277944 0.00013577 3.39759e-05
0.0278421 7.28152e-05 2.62853e-05
0.0278833 3.31708e-05 1.91019e-05
0.0279176 9.66902e-06 1.32337e-05
0.027945 -3.10974e-06 8.82428e-06
0.0279664 -9.11396e-06 5.69788e-06
0.0279826 -1.10954e-05 3.57505e-06
0.0279946 -1.08804e-05 2.18249e-06
0.0280033 -9.61834e-06 1.29546e-06
0.0280095 -7.9881e-06 7.45477e-07
0.0280139 -6.35946e-06 4.13416e-07
0.0280169 -4.90947e-06 2.18478e-07
0.028019 -3.70227e-06 1.07611e-07
0.0280204 -2.74094e-06 4.69485e-08
0.0280214 -1.99944e-06 1.54255e-08
0.0280221 -1.44108e-06 2.72053e-10
0.0280225 -1.02841e-06 -6.05049e-09
0.0280228 -7.2796e-07 -7.85735e-09
0.028023 -5.11884e-07 -7.53261e-09
0.0280232 -3.58145e-07 -6.35505e-09
0.0280232 -2.49904e-07 -4.94262e-09
0.0280233 -1.74959e-07 -3.50529e-09
0.0280234 -1.25071e-07 -1.75994e-09
0.0280234 -9.62126e-08 2.74e-10
0.0280234 -8.82393e-08 3.04635e-10
0.0280234 -9.59203e-08 -1.09482e-08
0.0280234 -1.0222e-07 -2.12282e-08
0.018 -1.90305e-06 -1.66784e-06
0.0180029 -0.00702176 -0.00187273
0.0208033 -0.0190818 -0.00492771
0.0207706 -0.0251331 -0.00635442
0.0161189 -0.0271444 -0.00764266
-1.58407e-06 -0.0140809 -0.0043442
9.55141e-05 2.55401e-05 9.1553e-07
-3.24992e-05 3.38203e-05 0.000655667
0.00654856 0.0040315 0.00144725
0.0133368 0.00910199 0.00142268
0.0167201 0.00981574 0.00102147
0.0185151 0.00878807 0.00049812
0.0202339 0.00724668 2.33033e-05
0.0219374 0.00570695 -0.000248047
0.023456 0.00445778 -0.000331839
0.0247251 0.00345931 -0.000302828
0.0257577 0.0026315 -0.000225028
0.0265938 0.00193418 -0.000138625
0.0272718 0.00135962 -6.39143e-05
0.02782 0.000908182 -8.38426e-06
0.0282585 0.000572596 2.72895e-05
0.0286036 0.000335881 4.56761e-05
0.0288706 0.000176619 5.087e-05
0.029074 7.44294e-05 4.74584e-05
0.0292265 1.26049e-05 3.96312e-05
0.0293394 -2.15991e-05 3.05443e-05
0.0294216 -3.76249e-05 2.21212e-05
0.0294805 -4.23386e-05 1.52341e-05
0.0295221 -4.059e-05 1.00556e-05
0.0295509 -3.56479e-05 6.39355e-06
0.0295704 -2.95758e-05 3.92509e-06
0.0295836 -2.35638e-05 2.32635e-06
0.0295922 -1.82108e-05 1.32699e-06
0.0295978 -1.37441e-05 7.23092e-07
0.0296014 -1.01792e-05 3.70665e-07
0.0296037 -7.42506e-06 1.72845e-07
0.0296052 -5.34923e-06 6.69863e-08
0.0296061 -3.81466e-06 1.39479e-08
0.0296066 -2.69759e-06 -9.93913e-09
0.029607 -1.89447e-06 -1.85266e-08
0.0296072 -1.3229e-06 -1.96398e-08
0.0296073 -9.19524e-07 -1.75125e-08
0.0296074 -6.36885e-07 -1.43019e-08
0.0296075 -4.4019e-07 -1.10403e-08
0.0296075 -3.04458e-07 -8.11135e-09
0.0296075 -2.12246e-07 -5.63148e-09
0.0296075 -1.51851e-07 -3.47393e-09
0.0296076 -1.14495e-07 -1.97175e-09
0.0296076 -9.48577e-08 -5.89324e-09
0.0296075 -7.70298e-08 -1.91549e-08
0.0296075 -6.48872e-08 -2.80398e-08
0.0196 -2.77077e-06 -2.51459e-06
0.019601 -0.00593916 -0.00274356
0.019051 -0.0132572 -0.00648906
0.0159205 -0.0163158 -0.00670313
0.0108433 -0.0153087 -0.00669839
0.00169464 -0.00631371 -0.00504895
7.10587e-05 -6.52349e-05 -0.00130577
3.27356e-05 -3.27356e-05 -4.16894e-08
-3.19042e-05 3.30942e-05 0.000265146
0.00385167 0.00267285 0.000569061
0.00876593 0.00619442 0.000503478
0.0116522 0.00637716 0.000156069
0.0148893 0.00493823 -0.000228156
0.0180335 0.00362692 -0.000401883
0.0207248 0.00270733 -0.000406671
0.0229021 0.00202236 -0.000329631
0.0246292 0.00145211 -0.000231064
0.0259925 0.000960222 -0.000141729
0.0270632 0.00055531 -7.18822e-05
0.0278936 0.000250815 -2.17564e-05
0.0285247 4.5428e-05 1.12272e-05
0.0289921 -7.69543e-05 2.98188e-05
0.0293294 -0.000138589 3.69676e-05
0.0295667 -0.000160232 3.60924e-05
0.02973 -0.000157828 3.0687e-05
0.0298399 -0.000142425 2.36461e-05
0.0299122 -0.000121267 1.68686e-05
0.0299588 -9.88972e-05 1.12841e-05
0.0299879 -7.79624e-05 7.13029e-06
0.0300057 -5.97897e-05 4.26673e-06
0.0300162 -4.48276e-05 2.41067e-06
0.0300221 -3.29893e-05 1.27138e-06
0.0300253 -2.3908e-05 6.08111e-07
0.0300269 -1.71103e-05 2.43642e-07
0.0300276 -1.21205e-05 5.7365e-08
0.0300278 -8.51452e-06 -2.80062e-08
0.0300278 -5.94114e-06 -5.95207e-08
0.0300277 -4.123e-06 -6.44545e-08
0.0300276 -2.84875e-06 -5.7821e-08
0.0300275 -1.96141e-06 -4.73855e-08
0.0300274 -1.34673e-06 -3.68298e-08
0.0300273 -9.22753e-07 -2.76445e-08
0.0300272 -6.3145e-07 -2.02128e-08
0.0300272 -4.32123e-07 -1.44564e-08
0.0300271 -2.96517e-07 -1.01305e-08
0.0300271 -2.04908e-07 -7.04138e-09
0.0300271 -1.43309e-07 -5.16345e-09
0.0300271 -9.98647e-08 -4.42983e-09
0.030027 -6.52153e-08 -1.03563e-08
0.030027 -2.20751e-08 -2.14797e-08
0.0300269 5.11496e-09 -2.65781e-08
0.0196 -1.33631e-06 -3.51533e-06
0.0195999 -0.00370489 -0.00312876
0.0187471 -0.00814616 -0.00653074
0.0174891 -0.00819939 -0.00606036
0.0131448 -0.00438272 -0.00554584
0.00904236 0.00249862 -0.00534175
0.00613215 0.00312456 -0.00313245
7.12365e-05 -5.92333e-05 -0.000681849
2.7329e-05 -2.7329e-05 -1.25167e-07
-3.13726e-05 3.24359e-05 9.81877e-05
0.00262364 0.00180484 0.000374366
0.00681861 0.00272837 0.000277524
0.0120246 0.00119589 -0.000165417
0.0166232 0.000315775 -0.000376664
0.0202062 2.50548e-05 -0.000394965
0.0228898 -8.27143e-05 -0.000322368
0.0248887 -0.000191261 -0.000229286
0.0263773 -0.000322375 -0.000149066
0.0274751 -0.0004386 -8.95467e-05
0.028265 -0.000506318 -4.77065e-05
0.028812 -0.000517033 -1.91786e-05
0.029173 -0.000482449 -1.13564e-06
0.0293982 -0.000421497 8.42618e-06
0.0295299 -0.000350828 1.16851e-05
0.0296008 -0.00028146 1.10393e-05
0.0296344 -0.000219283 8.6074e-06
0.0296466 -0.000166712 5.84489e-06
0.0296474 -0.000124113 3.50453e-06
0.029643 -9.07423e-05 1.82419e-06
0.0296368 -6.53274e-05 7.59677e-07
0.0296306 -4.64258e-05 1.60687e-07
0.0296251 -3.26446e-05 -1.30787e-07
0.0296206 -2.27593e-05 -2.40436e-07
0.029617 -1.57612e-05 -2.54249e-07
0.0296144 -1.08583e-05 -2.24916e-07
0.0296124 -7.4509e-06 -1.81628e-07
0.029611 -5.09737e-06 -1.38761e-07
0.02961 -3.47927e-06 -1.02195e-07
0.0296092 -2.37065e-06 -7.33838e-08
0.0296087 -1.61311e-06 -5.17658e-08
0.0296084 -1.09653e-06 -3.60577e-08
0.0296081 -7.44898e-07 -2.48801e-08
0.0296079 -5.05949e-07 -1.70244e-08
0.0296078 -3.43791e-07 -1.15794e-08
0.0296077 -2.33626e-07 -7.9313e-09
0.0296077 -1.57833e-07 -5.68183e-09
0.0296076 -1.03379e-07 -4.7533e-09
0.0296076 -5.92396e-08 -4.57799e-09
0.0296076 -1.51313e-08 -9.52831e-09
0.0296075 4.08803e-08 -1.62131e-08
0.0296075 7.36392e-08 -1.78888e-08
0.018 -8.49034e-07 -3.51116e-06
0.0180009 -0.00201956 -0.00305211
0.0183097 -0.00391366 -0.00616928
0.018356 -0.00273422 -0.00529214
0.0173287 0.000547714 -0.00418955
0.0170392 0.00700812 -0.00396585
0.0177707 0.0125452 -0.00302197
0.0109069 0.00692402 -0.00151754
7.2671e-05 -4.57955e-05 -0.000443108
-2.45425e-05 -5.33883e-05 5.4779e-07
7.78201e-06 -0.000774415 0.000758774
0.00818354 -0.00304423 0.0011047
0.0153767 -0.00462144 0.000452114
0.0202639 -0.00418458 0.000107668
0.0233829 -0.00317633 -3.40015e-05
0.0253817 -0.00232491 -8.05901e-05
0.0266861 -0.0017692 -8.86761e-05
0.0275339 -0.00142769 -8.40583e-05
0.0280596 -0.00119236 -7.52518e-05
0.0283513 -0.000994728 -6.36976e-05
0.028478 -0.000810057 -5.01414e-05
0.0284977 -0.000639019 -3.64469e-05
0.0284565 -0.0004892 -2.46504e-05
0.0283882 -0.000365404 -1.58319e-05
0.028314 -0.000267748 -9.94379e-06
0.0282457 -0.000193253 -6.3028e-06
0.0281884 -0.000137779 -4.12369e-06
0.028143 -9.72198e-05 -2.79929e-06
0.0281086 -6.80066e-05 -1.95106e-06
0.0280833 -4.7232e-05 -1.37356e-06
0.0280651 -3.2617e-05 -9.63172e-07
0.0280522 -2.24259e-05 -6.66848e-07
0.0280432 -1.5369e-05 -4.53931e-07
0.028037 -1.05079e-05 -3.03443e-07
0.0280327 -7.17183e-06 -1.99304e-07
0.0280298 -4.88838e-06 -1.288e-07
0.0280277 -3.32827e-06 -8.20485e-08
0.0280264 -2.26377e-06 -5.16236e-08
0.0280254 -1.53821e-06 -3.21464e-08
0.0280248 -1.04418e-06 -1.98497e-08
0.0280244 -7.08136e-07 -1.21744e-08
0.0280241 -4.79785e-07 -7.42357e-09
0.0280239 -3.24641e-07 -4.5063e-09
0.0280237 -2.1887e-07 -2.76936e-09
0.0280236 -1.45726e-07 -1.84893e-09
0.0280236 -9.30688e-08 -1.4907e-09
0.0280235 -5.16427e-08 -1.62863e-09
0.0280235 -1.38432e-08 -1.65464e-09
0.0280234 2.85887e-08 -3.8018e-09
0.0280234 7.97263e-08 -6.53587e-09
0.0280234 1.07312e-07 -6.94243e-09
0.0148 -4.75422e-07 -3.11065e-06
0.0148015 -0.00104335 -0.00283336
0.0162275 -0.00167136 -0.00543415
0.0177797 -7.7353e-05 -0.00429382
0.0190799 0.00311279 -0.003058
0.0207924 0.00730458 -0.00283182
0.0245974 0.0129684 -0.0024092
0.0278889 0.0194969 -0.00152958
0.0229423 0.0112714 -0.000357085
0.0234044 4.92282e-12 0.000618731
0.0265586 -0.00674976 0.00156285
0.0299187 -0.0131901 0.00212541
0.0306186 -0.0111002 0.00164946
0.0299428 -0.00771102 0.00113202
0.0289233 -0.00500915 0.00066047
0.0279916 -0.00324962 0.000303952
0.02724 -0.00218454 8.03187e-05
0.02664 -0.00153301 -3.64636e-05
0.0261474 -0.00110427 -8.33962e-05
0.025734 -0.00079696 -9.04125e-05
0.0253871 -0.000566859 -7.78935e-05
0.0251014 -0.00039568 -5.87687e-05
0.0248727 -0.000272359 -4.033e-05
0.0246949 -0.000186434 -2.57187e-05
0.0245605 -0.000127849 -1.54666e-05
0.0244613 -8.81848e-05 -8.86174e-06
0.0243896 -6.12176e-05 -4.86495e-06
0.0243387 -4.27064e-05 -2.5579e-06
0.0243031 -2.98739e-05 -1.27537e-06
0.0242784 -2.09122e-05 -5.86152e-07
0.0242614 -1.4627e-05 -2.2937e-07
0.0242498 -1.02121e-05 -5.39335e-08
0.0242418 -7.11205e-06 2.51917e-08
0.0242365 -4.93881e-06 5.48825e-08
0.0242328 -3.419e-06 6.04943e-08
0.0242303 -2.35925e-06 5.54294e-08
0.0242286 -1.62268e-06 4.65368e-08
0.0242275 -1.11247e-06 3.71283e-08
0.0242267 -7.60259e-07 2.86485e-08
0.0242262 -5.17959e-07 2.15901e-08
0.0242258 -3.51784e-07 1.59866e-08
0.0242256 -2.38026e-07 1.16776e-08
0.0242254 -1.60004e-07 8.43714e-09
0.0242253 -1.05881e-07 6.02999e-09
0.0242252 -6.71185e-08 4.25709e-09
0.0242252 -3.73856e-08 3.00658e-09
0.0242251 -1.16985e-08 2.2276e-09
0.0242251 1.3664e-08 2.17088e-09
0.0242251 4.23067e-08 2.1492e-09
0.0242251 7.32285e-08 6.63514e-10
0.0242252 8.84789e-08 -5.80635e-10
0.01 -9.10939e-07 -2.81922e-06
0.0100008 -0.00063909 -0.00230759
0.0113165 -0.000726181 -0.00414806
0.0131638 0.000530001 -0.00290503
0.0155692 0.002493 -0.00179418
0.0194327 0.00553884 -0.00179762
0.0253306 0.00835702 -0.00235446
0.0344519 0.0101196 -0.00209352
0.0460581 0.00481144 -0.000517429