# vtk DataFile Version 2.0
Tobias Weinzierl: CPU, Manycore and Cluster Computing
ASCII

DATASET STRUCTURED_POINTS
DIMENSIONS  51 11 6

ORIGIN 0 0 0 

SPACING 0.1 0.1 0.1 

POINT_DATA 3366

VECTORS velocity float
0 0 0
-2.82001e-13 0 0
5.40037e-09 0 0
6.14526e-09 0 0
-1.53498e-08 0 0
1.29564e-09 0 0
3.03221e-09 0 0
1.45101e-09 0 0
-2.7233e-10 0 0
-2.12229e-09 0 0
-2.10407e-09 0 0
-1.70942e-09 0 0
-4.12779e-09 0 0
-9.55336e-09 0 0
-1.49764e-08 0 0
-1.79243e-08 0 0
-1.85606e-08 0 0
-1.8437e-08 0 0
-1.87058e-08 0 0
-1.96179e-08 0 0
-2.09034e-08 0 0
-2.22151e-08 0 0
-2.33316e-08 0 0
-2.4174e-08 0 0
-2.47546e-08 0 0
-2.51249e-08 0 0
-2.53436e-08 0 0
-2.54611e-08 0 0
-2.55156e-08 0 0
-2.55333e-08 0 0
-2.55316e-08 0 0
-2.55209e-08 0 0
-2.55072e-08 0 0
-2.54936e-08 0 0
-2.54816e-08 0 0
-2.54717e-08 0 0
-2.54637e-08 0 0
-2.54574e-08 0 0
-2.54526e-08 0 0
-2.54488e-08 0 0
-2.54459e-08 0 0
-2.54435e-08 0 0
-2.54416e-08 0 0
-2.544e-08 0 0
-2.54388e-08 0 0
-2.54378e-08 0 0
-2.54372e-08 0 0
-2.54369e-08 0 0
-2.5437e-08 0 0
-2.54379e-08 0 0
0.00200651 0 0
0 3.80484e-07 0
-3.33482e-12 -4.85642e-09 0
8.65996e-09 -1.01468e-08 0
1.36447e-08 -2.33426e-09 0
-1.39365e-08 -1.45585e-08 0
1.61479e-08 -1.88441e-08 0
1.54632e-08 3.95408e-09 0
8.21138e-09 1.171e-08 0
4.29154e-09 1.25503e-08 0
2.37713e-10 9.548e-09 0
-1.99879e-09 5.36149e-09 0
-3.39313e-09 5.41168e-09 0
-8.61744e-09 8.89369e-09 0
-1.81282e-08 1.04541e-08 0
-2.69713e-08 7.87464e-09 0
-3.15885e-08 3.71839e-09 0
-3.32105e-08 1.00601e-09 0
-3.48588e-08 3.82625e-10 0
-3.81058e-08 8.67487e-10 0
-4.26984e-08 1.43886e-09 0
-4.76379e-08 1.66224e-09 0
-5.20656e-08 1.54568e-09 0
-5.5559e-08 1.24735e-09 0
-5.80629e-08 9.08352e-10 0
-5.97219e-08 6.08268e-10 0
-6.07447e-08 3.76126e-10 0
-6.13282e-08 2.12254e-10 0
-6.16289e-08 1.04865e-10 0
-6.17592e-08 3.93914e-11 0
-6.17938e-08 2.71225e-12 0
-6.17797e-08 -1.54474e-11 0
-6.17447e-08 -2.24669e-11 0
-6.17042e-08 -2.33049e-11 0
-6.16658e-08 -2.10968e-11 0
-6.16326e-08 -1.77019e-11 0
-6.16056e-08 -1.41387e-11 0
-6.15844e-08 -1.0904e-11 0
-6.15679e-08 -8.18943e-12 0
-6.15554e-08 -6.02236e-12 0
-6.15458e-08 -4.35075e-12 0
-6.15384e-08 -3.09194e-12 0
-6.15327e-08 -2.15895e-12 0
-6.15282e-08 -1.4733e-12 0
-6.15246e-08 -9.66796e-13 0
-6.15217e-08 -5.80988e-13 0
-6.15197e-08 -2.70947e-13 0
-6.15185e-08 2.13041e-14 0
-6.15183e-08 3.88352e-13 0
-6.15193e-08 1.27737e-12 0
-6.15225e-08 4.22109e-12 0
0.00573706 -4.19838e-08 0
0 -2.20638e-08 0
-3.6031e-12 -4.13269e-09 0
9.15674e-09 -1.49334e-08 0
2.44849e-08 -2.38772e-08 0
1.97332e-08 -4.90032e-08 0
4.74624e-08 -4.10597e-08 0
3.78638e-08 -2.03195e-09 0
2.52222e-08 2.52944e-09 0
8.13403e-09 -4.33083e-09 0
-5.93296e-09 -7.3746e-09 0
-1.27002e-08 -4.22364e-09 0
-1.27055e-08 2.05269e-09 0
-1.47443e-08 6.94024e-09 0
-2.23819e-08 9.1531e-09 0
-2.99183e-08 1.05767e-08 0
-3.31734e-08 1.243e-08 0
-3.34351e-08 1.40103e-08 0
-3.38991e-08 1.44007e-08 0
-3.63056e-08 1.34569e-08 0
-4.04634e-08 1.15536e-08 0
-4.52719e-08 9.20135e-09 0
-4.96986e-08 6.84744e-09 0
-5.31883e-08 4.78767e-09 0
-5.56325e-08 3.15382e-09 0
-5.7179e-08 1.95382e-09 0
-5.80617e-08 1.12733e-09 0
-5.85031e-08 5.9036e-10 0
-5.86762e-08 2.61507e-10 0
-5.87008e-08 7.34418e-11 0
-5.8653e-08 -2.44898e-11 0
-5.85774e-08 -6.79043e-11 0
-5.84979e-08 -8.04821e-11 0
-5.84261e-08 -7.71584e-11 0
-5.8366e-08 -6.68424e-11 0
-5.83181e-08 -5.45058e-11 0
-5.82812e-08 -4.26769e-11 0
-5.82532e-08 -3.2449e-11 0
-5.82323e-08 -2.41269e-11 0
-5.82168e-08 -1.76214e-11 0
-5.82052e-08 -1.26763e-11 0
-5.81965e-08 -8.98985e-12 0
-5.81899e-08 -6.27481e-12 0
-5.81848e-08 -4.28284e-12 0
-5.81808e-08 -2.80793e-12 0
-5.81778e-08 -1.66794e-12 0
-5.81758e-08 -6.89738e-13 0
-5.81748e-08 3.81072e-13 0
-5.81751e-08 2.09808e-12 0
-5.81766e-08 4.98199e-12 0
-5.81799e-08 9.14713e-12 0
0.00815602 -9.0017e-08 0
0 -6.3078e-07 0
2.92969e-12 -6.85783e-09 0
1.17191e-08 -2.34791e-08 0
2.99395e-08 -4.33583e-08 0
2.07416e-08 -5.83467e-08 0
3.26102e-08 -3.16165e-08 0
2.54302e-08 -9.01586e-12 0
1.84616e-08 -3.7706e-09 0
-9.21981e-09 -1.52079e-08 0
-2.72618e-08 -2.68824e-08 0
-2.99421e-08 -3.26626e-08 0
-2.83643e-08 -3.17575e-08 0
-3.17864e-08 -2.07322e-08 0
-4.21656e-08 -2.46265e-09 0
-5.09749e-08 1.47423e-08 0
-5.28425e-08 2.48572e-08 0
-4.84191e-08 2.71197e-08 0
-4.14191e-08 2.4489e-08 0
-3.53585e-08 2.00818e-08 0
-3.18039e-08 1.55389e-08 0
-3.05048e-08 1.14316e-08 0
-3.0468e-08 7.95151e-09 0
-3.08232e-08 5.18086e-09 0
-3.11067e-08 3.11972e-09 0
-3.11831e-08 1.69013e-09 0
-3.10809e-08 7.67424e-10 0
-3.08759e-08 2.1735e-10 0
-3.06353e-08 -7.89605e-11 0
-3.0403e-08 -2.14473e-10 0
-3.0201e-08 -2.55658e-10 0
-3.00365e-08 -2.46671e-10 0
-2.99084e-08 -2.14891e-10 0
-2.98117e-08 -1.76071e-10 0
-2.97404e-08 -1.38441e-10 0
-2.96885e-08 -1.05677e-10 0
-2.96513e-08 -7.88893e-11 0
-2.96246e-08 -5.78775e-11 0
-2.96056e-08 -4.18716e-11 0
-2.95919e-08 -2.9937e-11 0
-2.95819e-08 -2.1177e-11 0
-2.95745e-08 -1.48162e-11 0
-2.95689e-08 -1.02223e-11 0
-2.95645e-08 -6.89148e-12 0
-2.95611e-08 -4.42381e-12 0
-2.95585e-08 -2.48197e-12 0
-2.95568e-08 -6.99685e-13 0
-2.95558e-08 1.31578e-12 0
-2.95554e-08 3.74708e-12 0
-2.95553e-08 6.43274e-12 0
-2.95558e-08 8.91639e-12 0
0.00909204 -9.12959e-08 0
0 -1.22767e-06 0
7.79398e-13 -1.26284e-08 0
4.91108e-09 -3.42101e-08 0
1.03707e-08 -4.40633e-08 0
-8.91587e-10 -3.51578e-08 0
-1.43976e-12 -1.26781e-08 0
-1.21037e-10 -1.175e-10 0
1.16934e-10 -1.16052e-10 0
-1.27902e-08 -1.43322e-08 0
-4.04486e-08 -4.0944e-08 0
-4.8223e-08 -5.57302e-08 0
-4.77571e-08 -5.15448e-08 0
-5.4427e-08 -2.9894e-08 0
-6.41677e-08 -6.044e-10 0
-7.05942e-08 2.1979e-08 0
-7.06912e-08 3.14328e-08 0
-6.36565e-08 2.96507e-08 0
-5.15507e-08 2.28081e-08 0
-3.85391e-08 1.57826e-08 0
-2.79717e-08 1.03102e-08 0
-2.08465e-08 6.33848e-09 0
-1.65075e-08 3.47867e-09 0
-1.38952e-08 1.47808e-09 0
-1.22163e-08 1.79292e-10 0
-1.10382e-08 -5.656e-10 0
-1.01634e-08 -9.10544e-10 0
-9.50434e-09 -9.96748e-10 0
-9.01345e-09 -9.36138e-10 0
-8.65558e-09 -8.06936e-10 0
-8.40052e-09 -6.57886e-10 0
-8.22238e-09 -5.15778e-10 0
-8.09998e-09 -3.92874e-10 0
-8.01691e-09 -2.92782e-10 0
-7.96098e-09 -2.14524e-10 0
-7.92347e-09 -1.55102e-10 0
-7.89829e-09 -1.10948e-10 0
-7.88128e-09 -7.86728e-11 0
-7.86963e-09 -5.53749e-11 0
-7.86147e-09 -3.87165e-11 0
-7.85556e-09 -2.68868e-11 0
-7.85111e-09 -1.85175e-11 0
-7.84759e-09 -1.25907e-11 0
-7.8447e-09 -8.35277e-12 0
-7.84228e-09 -5.22412e-12 0
-7.84022e-09 -2.74545e-12 0
-7.83849e-09 -6.17516e-13 0
-7.83691e-09 1.25303e-12 0
-7.83524e-09 2.78203e-12 0
-7.83341e-09 3.90813e-12 0
-7.8325e-09 4.89819e-12 0
0.00940058 -5.0917e-08 0
0 -1.10789e-06 0
-7.52186e-12 -1.38866e-08 0
-3.33141e-09 -2.96445e-08 0
-4.15547e-09 -3.44642e-08 0
-1.44622e-08 -3.61073e-08 0
-1.30084e-08 -1.74034e-08 0
-1.19058e-10 1.18425e-10 0
-1.01152e-12 1.01152e-12 0
1.15695e-10 -1.18203e-10 0
-2.14799e-08 -2.28263e-08 0
-5.75037e-08 -5.86741e-08 0
-5.97974e-08 -6.216e-08 0
-6.2333e-08 -3.44663e-08 0
-6.41775e-08 1.83147e-10 0
-6.58669e-08 2.55333e-08 0
-6.75332e-08 3.42804e-08 0
-6.48323e-08 2.88944e-08 0
-5.49475e-08 1.78871e-08 0
-4.0736e-08 8.15281e-09 0
-2.71533e-08 1.87445e-09 0
-1.70116e-08 -1.55882e-09 0
-1.04908e-08 -3.22293e-09 0
-6.59702e-09 -3.84016e-09 0
-4.30691e-09 -3.82646e-09 0
-2.93387e-09 -3.45233e-09 0
-2.08921e-09 -2.91184e-09 0
-1.56224e-09 -2.33752e-09 0
-1.23407e-09 -1.80765e-09 0
-1.03262e-09 -1.35851e-09 0
-9.11717e-10 -9.98832e-10 0
-8.41158e-10 -7.22144e-10 0
-8.01314e-10 -5.15437e-10 0
-7.79671e-10 -3.6431e-10 0
-7.68457e-10 -2.55576e-10 0
-7.62977e-10 -1.78268e-10 0
-7.60476e-10 -1.23785e-10 0
-7.59386e-10 -8.56341e-11 0
-7.58845e-10 -5.90447e-11 0
-7.584e-10 -4.05718e-11 0
-7.5783e-10 -2.77592e-11 0
-7.57041e-10 -1.88691e-11 0
-7.56014e-10 -1.2672e-11 0
-7.54767e-10 -8.29757e-12 0
-7.53322e-10 -5.15222e-12 0
-7.51696e-10 -2.87332e-12 0
-7.4995e-10 -1.26447e-12 0
-7.48083e-10 -2.09979e-13 0
-7.46139e-10 3.53017e-13 0
-7.44345e-10 3.99903e-13 0
-7.43671e-10 2.58639e-13 0
0.00946801 7.63862e-09 0
0 -7.66902e-07 0
-3.18135e-12 -8.88405e-09 0
-3.65121e-09 -2.25256e-08 0
-4.00707e-09 -2.88872e-08 0
-2.20393e-08 -2.74405e-08 0
-3.2477e-08 -1.51354e-08 0
-1.34044e-08 -2.93924e-09 0
-1.1831e-10 1.18595e-10 0
-2.40794e-12 2.40794e-12 0
1.09035e-10 -1.22473e-10 0
-2.64173e-08 -3.42636e-08 0
-4.35856e-08 -6.01988e-08 0
-5.03917e-08 -3.29356e-08 0
-4.86673e-08 2.84764e-09 0
-4.47443e-08 2.85543e-08 0
-4.5471e-08 3.63769e-08 0
-4.81244e-08 2.82226e-08 0
-4.54758e-08 1.3674e-08 0
-3.63933e-08 1.3683e-09 0
-2.5387e-08 -5.76608e-09 0
-1.65378e-08 -8.65955e-09 0
-1.10375e-08 -9.0431e-09 0
-8.23307e-09 -8.1828e-09 0
-7.06863e-09 -6.82444e-09 0
-6.7399e-09 -5.38418e-09 0
-6.77732e-09 -4.07812e-09 0
-6.94474e-09 -2.99593e-09 0
-7.13575e-09 -2.15142e-09 0
-7.30814e-09 -1.51946e-09 0
-7.44915e-09 -1.06043e-09 0
-7.55854e-09 -7.33978e-10 0
-7.64064e-09 -5.05199e-10 0
-7.70089e-09 -3.46472e-10 0
-7.74437e-09 -2.37072e-10 0
-7.77533e-09 -1.61981e-10 0
-7.79709e-09 -1.10563e-10 0
-7.81216e-09 -7.53978e-11 0
-7.8224e-09 -5.13581e-11 0
-7.82916e-09 -3.49208e-11 0
-7.83341e-09 -2.36712e-11 0
-7.83584e-09 -1.59568e-11 0
-7.83693e-09 -1.06541e-11 0
-7.83704e-09 -7.01182e-12 0
-7.83643e-09 -4.53557e-12 0
-7.83533e-09 -2.90201e-12 0
-7.834e-09 -1.90494e-12 0
-7.8326e-09 -1.4343e-12 0
-7.83125e-09 -1.52066e-12 0
-7.83019e-09 -2.42367e-12 0
-7.83008e-09 -4.09598e-12 0
0.00940054 6.32283e-08 0
0 -5.38119e-07 0
2.80515e-12 -6.72659e-09 0
-1.87006e-09 -1.67997e-08 0
-5.86492e-09 -2.15363e-08 0
-2.29108e-08 -1.84722e-08 0
-4.04205e-08 -7.34742e-09 0
-3.60938e-08 -6.38212e-10 0
-1.89396e-08 -3.00187e-10 0
-1.26484e-10 1.10696e-10 0
1.06921e-10 1.09386e-10 0
9.95729e-13 -1.84534e-08 0
-2.76363e-08 -3.18621e-08 0
-4.88322e-08 -1.28236e-08 0
-5.00394e-08 1.20295e-08 0
-3.49139e-08 2.74284e-08 0
-2.21371e-08 2.97031e-08 0
-2.15252e-08 2.08953e-08 0
-2.60151e-08 7.75597e-09 0
-2.74576e-08 -3.00484e-09 0
-2.54727e-08 -8.8237e-09 0
-2.31052e-08 -1.0547e-08 0
-2.21269e-08 -9.92574e-09 0
-2.25449e-08 -8.30985e-09 0
-2.3706e-08 -6.48037e-09 0
-2.50387e-08 -4.81799e-09 0
-2.62351e-08 -3.46511e-09 0
-2.71896e-08 -2.43597e-09 0
-2.79028e-08 -1.68693e-09 0
-2.84153e-08 -1.15735e-09 0
-2.87753e-08 -7.898e-10 0
-2.90246e-08 -5.37547e-10 0
-2.9196e-08 -3.65493e-10 0
-2.93131e-08 -2.48481e-10 0
-2.9393e-08 -1.68975e-10 0
-2.94474e-08 -1.14941e-10 0
-2.94843e-08 -7.81886e-11 0
-2.95092e-08 -5.31671e-11 0
-2.95259e-08 -3.61162e-11 0
-2.95369e-08 -2.44877e-11 0
-2.95439e-08 -1.65547e-11 0
-2.95482e-08 -1.11485e-11 0
-2.95505e-08 -7.47926e-12 0
-2.95514e-08 -5.0129e-12 0
-2.95514e-08 -3.39293e-12 0
-2.95508e-08 -2.39478e-12 0
-2.955e-08 -1.90358e-12 0
-2.95492e-08 -1.90763e-12 0
-2.95485e-08 -2.54727e-12 0
-2.95482e-08 -4.32302e-12 0
-2.9549e-08 -7.61136e-12 0
0.00909199 9.48746e-08 0
0 -4.58064e-07 0
3.71788e-12 -3.61332e-09 0
-9.67786e-10 -9.90691e-09 0
-9.14679e-09 -1.41766e-08 0
-2.93443e-08 -1.29947e-08 0
-4.92305e-08 -1.84421e-09 0
-4.97018e-08 5.57232e-09 0
-4.19866e-08 -9.50658e-09 0
-2.62091e-08 -1.18115e-08 0
-2.39217e-08 4.02535e-13 0
-2.68409e-08 -3.44732e-09 0
-4.89678e-08 2.67e-10 0
-6.84848e-08 1.40039e-08 0
-6.35708e-08 2.06985e-08 0
-3.56614e-08 1.69791e-08 0
-1.19491e-08 8.80639e-09 0
-1.05015e-08 1.22297e-09 0
-2.31333e-08 -3.70226e-09 0
-3.52031e-08 -5.75798e-09 0
-4.17901e-08 -5.86751e-09 0
-4.49406e-08 -5.14609e-09 0
-4.71183e-08 -4.24781e-09 0
-4.92381e-08 -3.39708e-09 0
-5.1296e-08 -2.64449e-09 0
-5.31e-08 -2.00479e-09 0
-5.45458e-08 -1.48403e-09 0
-5.56339e-08 -1.07753e-09 0
-5.64197e-08 -7.71079e-10 0
-5.69727e-08 -5.45981e-10 0
-5.73558e-08 -3.83651e-10 0
-5.7619e-08 -2.68062e-10 0
-5.77988e-08 -1.86475e-10 0
-5.79214e-08 -1.2925e-10 0
-5.80048e-08 -8.93016e-11 0
-5.80615e-08 -6.15178e-11 0
-5.80999e-08 -4.22541e-11 0
-5.81258e-08 -2.89338e-11 0
-5.81432e-08 -1.97468e-11 0
-5.81546e-08 -1.34279e-11 0
-5.81619e-08 -9.09703e-12 0
-5.81663e-08 -6.14404e-12 0
-5.81688e-08 -4.14885e-12 0
-5.81698e-08 -2.82645e-12 0
-5.817e-08 -1.99333e-12 0
-5.81696e-08 -1.54524e-12 0
-5.81691e-08 -1.44644e-12 0
-5.81687e-08 -1.74866e-12 0
-5.81687e-08 -2.61085e-12 0
-5.81696e-08 -4.53876e-12 0
-5.81723e-08 -8.16722e-12 0
0.008156 8.30392e-08 0
0 -4.73628e-07 0
7.86427e-12 -8.31564e-10 0
-6.13177e-10 -3.12522e-09 0
-1.15087e-08 -5.41231e-09 0
-3.28023e-08 -5.45919e-09 0
-5.31649e-08 -3.30875e-09 0
-5.52281e-08 -2.63941e-10 0
-4.851e-08 -4.47033e-09 0
-5.59146e-08 -5.85733e-09 0
-5.2913e-08 3.72146e-09 0
-4.86362e-08 1.14894e-08 0
-4.84674e-08 1.4656e-08 0
-4.703e-08 1.35109e-08 0
-3.56612e-08 8.96276e-09 0
-1.58216e-08 1.9722e-09 0
-5.45352e-09 -5.51812e-09 0
-1.39442e-08 -9.57783e-09 0
-3.15376e-08 -8.52412e-09 0
-4.5636e-08 -4.79012e-09 0
-5.27182e-08 -1.53732e-09 0
-5.53216e-08 7.1688e-11 0
-5.63049e-08 4.48672e-10 0
-5.70259e-08 3.02412e-10 0
-5.78064e-08 6.81051e-11 0
-5.85998e-08 -9.55639e-11 0
-5.93154e-08 -1.70938e-10 0
-5.99052e-08 -1.84992e-10 0
-6.03629e-08 -1.67086e-10 0
-6.0704e-08 -1.3729e-10 0
-6.09514e-08 -1.06542e-10 0
-6.11277e-08 -7.96599e-11 0
-6.12517e-08 -5.80644e-11 0
-6.13381e-08 -4.15652e-11 0
-6.13978e-08 -2.93597e-11 0
-6.14389e-08 -2.05258e-11 0
-6.14669e-08 -1.42299e-11 0
-6.14858e-08 -9.79376e-12 0
-6.14984e-08 -6.69598e-12 0
-6.15066e-08 -4.54956e-12 0
-6.15117e-08 -3.07404e-12 0
-6.15147e-08 -2.07017e-12 0
-6.15161e-08 -1.39913e-12 0
-6.15165e-08 -9.67087e-13 0
-6.15163e-08 -7.16414e-13 0
-6.15157e-08 -6.18658e-13 0
-6.15152e-08 -6.73574e-13 0
-6.1515e-08 -9.25074e-13 0
-6.15154e-08 -1.42845e-12 0
-6.1517e-08 -2.3005e-12 0
-6.1521e-08 -3.9931e-12 0
0.00573709 3.31959e-08 0
0 0 0
5.3116e-12 0 0
-2.8474e-10 0 0
-5.79178e-09 0 0
-1.54784e-08 0 0
-2.48848e-08 0 0
-2.82164e-08 0 0
-2.54628e-08 0 0
-2.97138e-08 0 0
-2.89935e-08 0 0
-2.17943e-08 0 0
-1.29331e-08 0 0
-6.4235e-09 0 0
-1.83089e-09 0 0
1.34603e-09 0 0
-3.45941e-10 0 0
-7.65316e-09 0 0
-1.62821e-08 0 0
-2.2147e-08 0 0
-2.46165e-08 0 0
-2.50808e-08 0 0
-2.48792e-08 0 0
-2.46636e-08 0 0
-2.46014e-08 0 0
-2.46658e-08 0 0
-2.47921e-08 0 0
-2.49314e-08 0 0
-2.50578e-08 0 0
-2.51614e-08 0 0
-2.52414e-08 0 0
-2.53008e-08 0 0
-2.53438e-08 0 0
-2.53743e-08 0 0
-2.53957e-08 0 0
-2.54104e-08 0 0
-2.54205e-08 0 0
-2.54273e-08 0 0
-2.54317e-08 0 0
-2.54346e-08 0 0
-2.54363e-08 0 0
-2.54372e-08 0 0
-2.54375e-08 0 0
-2.54374e-08 0 0
-2.54371e-08 0 0
-2.54367e-08 0 0
-2.54364e-08 0 0
-2.54363e-08 0 0
-2.54365e-08 0 0
-2.54374e-08 0 0
-2.54393e-08 0 0
0.00200654 0 0
0 0 5.28153e-07
-3.80468e-12 0 -5.46009e-10
8.55781e-09 0 3.99982e-09
1.83047e-08 0 2.30837e-08
-4.31776e-08 0 1.94078e-08
-2.29369e-09 0 4.61773e-10
5.077e-09 0 -4.10979e-09
8.02955e-09 0 -8.40595e-09
1.26442e-08 0 -8.9777e-09
1.63821e-08 0 -7.71742e-09
2.24327e-08 0 -5.77607e-09
2.83263e-08 0 -3.39016e-09
2.66992e-08 0 -1.05235e-09
1.49163e-08 0 3.91599e-10
-1.53405e-09 0 4.9333e-10
-1.56062e-08 0 -1.37047e-10
-2.51228e-08 0 -4.9591e-10
-3.19305e-08 0 -2.39581e-10
-3.81185e-08 0 3.11734e-10
-4.43207e-08 0 7.57591e-10
-5.01637e-08 0 9.34581e-10
-5.51231e-08 0 8.82879e-10
-5.89421e-08 0 7.12392e-10
-6.16515e-08 0 5.15823e-10
-6.34431e-08 0 3.44143e-10
-6.45525e-08 0 2.14531e-10
-6.51929e-08 0 1.25521e-10
-6.55306e-08 0 6.85425e-11
-6.56844e-08 0 3.41621e-11
-6.57335e-08 0 1.45743e-11
-6.57278e-08 0 4.12633e-12
-6.56974e-08 0 -9.53843e-13
-6.56591e-08 0 -3.04393e-12
-6.56215e-08 0 -3.57344e-12
-6.55885e-08 0 -3.36352e-12
-6.55612e-08 0 -2.86247e-12
-6.55396e-08 0 -2.29934e-12
-6.55227e-08 0 -1.77959e-12
-6.55098e-08 0 -1.34255e-12
-6.54999e-08 0 -9.94279e-13
-6.54923e-08 0 -7.25511e-13
-6.54863e-08 0 -5.21483e-13
-6.54817e-08 0 -3.67842e-13
-6.54779e-08 0 -2.4994e-13
-6.5475e-08 0 -1.52145e-13
-6.54729e-08 0 -6.72494e-14
-6.54716e-08 0 1.21928e-14
-6.54712e-08 0 5.21231e-14
-6.5472e-08 0 1.89202e-13
-6.5475e-08 0 1.74273e-12
0.00568868 0 -8.9394e-09
0.0036 -3.05682e-07 -6.30562e-08
0.00359981 -0.00137195 -1.63808e-05
0.00672449 -0.0038808 0.000105795
0.0135966 -0.00596866 -0.000609845
0.0235887 -0.0143942 -0.00436753
0.0462032 -0.013149 -0.00489038
0.0496667 -0.00180687 -0.00166121
0.0494144 0.00273127 -0.000183546
0.0444098 0.00504598 0.000535339
0.038762 0.00520585 0.000497213
0.0336 0.004544 0.000217936
0.0292717 0.00365219 -4.95552e-05
0.0258747 0.00272924 -0.000233383
0.0233306 0.00189117 -0.000319187
0.0214637 0.00123299 -0.000312686
0.0200955 0.00078606 -0.00024247
0.0190939 0.000512157 -0.000152172
0.0183681 0.000347831 -7.62303e-05
0.0178531 0.000242659 -2.7423e-05
0.0174981 0.000169023 -2.539e-06
0.0172616 0.000114999 6.99551e-06
0.0171098 7.55586e-05 8.71375e-06
0.0170159 4.76916e-05 7.34704e-06
0.0169603 2.88021e-05 5.27412e-06
0.016929 1.65281e-05 3.44453e-06
0.0169123 8.87978e-06 2.1032e-06
0.0169043 4.3177e-06 1.21375e-06
0.0169011 1.72982e-06 6.62154e-07
0.0169003 3.55e-07 3.37562e-07
0.0169008 -3.05269e-07 1.55546e-07
0.0169017 -5.64977e-07 5.87211e-08
0.0169027 -6.14498e-07 1.06599e-08
0.0169036 -5.64608e-07 -1.06851e-08
0.0169044 -4.76645e-07 -1.81378e-08
0.016905 -3.82346e-07 -1.88783e-08
0.0169055 -2.96445e-07 -1.67609e-08
0.0169059 -2.2439e-07 -1.37455e-08
0.0169062 -1.66897e-07 -1.07513e-08
0.0169064 -1.22539e-07 -8.1488e-09
0.0169065 -8.91337e-08 -6.03388e-09
0.0169066 -6.4447e-08 -4.37896e-09
0.0169067 -4.65084e-08 -3.12199e-09
0.0169067 -3.37145e-08 -2.20112e-09
0.0169068 -2.48256e-08 -1.55255e-09
0.0169068 -1.89805e-08 -1.15338e-09
0.0169068 -1.55697e-08 -8.80166e-10
0.0169068 -1.42566e-08 -3.24975e-10
0.0169069 -1.52764e-08 2.02111e-09
0.0169069 -2.47042e-08 5.82597e-09
0.016907 -7.90155e-08 -1.27095e-08
0.0169071 -1.25075e-07 -3.31257e-08
0.01 -1.38561e-07 -1.4358e-06
0.0100007 -0.00299057 -0.00058967
0.0148038 -0.00991939 -0.00076965
0.0241467 -0.0176981 -0.00130333
0.0383864 -0.0322985 -0.00339268
0.0589057 -0.0245182 -0.000807698
0.0561842 -0.00261096 0.00313522
0.0556503 0.00521167 0.00332179
0.0498817 0.0102535 0.00289381
0.0443876 0.0104496 0.00195668
0.0398718 0.00937751 0.00099899
0.0361578 0.00789678 0.000264844
0.0331806 0.00630865 -0.000242368
0.0308869 0.00482972 -0.000514877
0.0291312 0.00358563 -0.000556991
0.0277948 0.00260129 -0.000444684
0.0268001 0.00184858 -0.000282774
0.0260839 0.00128704 -0.000144454
0.0255865 0.000876773 -5.48277e-05
0.0252539 0.000582873 -8.28276e-06
0.0250405 0.000376912 1.04185e-05
0.02491 0.000236298 1.46803e-05
0.0248345 0.000143097 1.29977e-05
0.0247939 8.3248e-05 9.71607e-06
0.0247741 4.60711e-05 6.63463e-06
0.0247662 2.37842e-05 4.2791e-06
0.0247645 1.09537e-05 2.651e-06
0.0247658 3.93101e-06 1.59166e-06
0.0247682 3.51554e-07 9.30129e-07
0.0247707 -1.26768e-06 5.29669e-07
0.0247731 -1.82686e-06 2.93494e-07
0.024775 -1.8536e-06 1.57538e-07
0.0247766 -1.64476e-06 8.11744e-08
0.0247778 -1.35876e-06 3.94379e-08
0.0247786 -1.07381e-06 1.73705e-08
0.0247793 -8.23616e-07 6.21018e-09
0.0247798 -6.18462e-07 9.33153e-10
0.0247801 -4.57292e-07 -1.27738e-09
0.0247804 -3.34333e-07 -1.96179e-09
0.0247805 -2.42523e-07 -1.93508e-09
0.0247807 -1.75137e-07 -1.60982e-09
0.0247807 -1.26453e-07 -1.20092e-09
0.0247808 -9.19377e-08 -8.33544e-10
0.0247809 -6.81473e-08 -5.33255e-10
0.0247809 -5.26933e-08 -3.1754e-10
0.0247809 -4.42878e-08 5.41608e-11
0.024781 -4.33079e-08 1.50181e-09
0.024781 -5.75633e-08 4.93228e-09
0.0247811 -1.01624e-07 6.50265e-09
0.0247812 -1.98922e-07 -3.06758e-08
0.0247813 -2.64879e-07 -6.71556e-08
0.0148 -9.47596e-07 -1.71909e-06
0.0148023 -0.0052849 -0.00112531
0.0203332 -0.0163495 -0.00242337
0.0273777 -0.0285979 -0.00395475
0.0319528 -0.0457994 -0.00573888
0.0304595 -0.0282853 -0.0013605
0.0267404 -1.2052e-05 0.0032788
0.0262022 0.00712684 0.00346726
0.0298223 0.014614 0.00332589
0.0302224 0.0141363 0.00232809
0.029422 0.0123939 0.00134203
0.0285708 0.0105455 0.000490918
0.027887 0.00857433 -0.000108278
0.0275306 0.00663168 -0.00042315
0.0274041 0.00492265 -0.000472427
0.0274067 0.00352431 -0.000363934
0.0274703 0.00244589 -0.000212356
0.0275508 0.00165511 -8.6422e-05
0.0276256 0.00109516 -7.79066e-06
0.0276886 0.000707065 2.91541e-05
0.0277412 0.000442832 3.91229e-05
0.0277859 0.000266956 3.565e-05
0.0278241 0.000153357 2.75995e-05
0.027856 8.26238e-05 1.94687e-05
0.0278819 4.04223e-05 1.29288e-05
0.0279021 1.64939e-05 8.22889e-06
0.0279175 3.79487e-06 5.07217e-06
0.0279288 -2.30447e-06 3.04595e-06
0.027937 -4.72096e-06 1.78781e-06
0.0279428 -5.21673e-06 1.02693e-06
0.0279469 -4.81012e-06 5.77067e-07
0.0279497 -4.05971e-06 3.16548e-07
0.0279517 -3.25128e-06 1.68733e-07
0.027953 -2.51568e-06 8.66535e-08
0.027954 -1.90028e-06 4.21782e-08
0.0279546 -1.41064e-06 1.87953e-08
0.027955 -1.03377e-06 6.99415e-09
0.0279553 -7.50382e-07 1.39823e-09
0.0279555 -5.40953e-07 -9.72399e-10
0.0279557 -3.8828e-07 -1.7302e-09
0.0279558 -2.78302e-07 -1.72132e-09
0.0279558 -2.00064e-07 -1.3882e-09
0.0279559 -1.45364e-07 -9.76533e-10
0.0279559 -1.08372e-07 -5.36165e-10
0.027956 -8.52749e-08 4.61645e-11
0.027956 -7.51381e-08 1.04756e-09
0.027956 -8.06979e-08 3.14536e-09
0.0279561 -1.07873e-07 4.73606e-09
0.0279561 -1.62611e-07 -4.37111e-09
0.0279561 -2.35178e-07 -5.59754e-08
0.0279561 -2.72934e-07 -9.83331e-08
0.018 -1.91454e-06 -1.67981e-06
0.0180029 -0.00694686 -0.00188491
0.0207121 -0.0188047 -0.00491372
0.0206247 -0.0246745 -0.00631943
0.0160252 -0.0267532 -0.0075929
-1.56599e-06 -0.013946 -0.00430329
9.62478e-05 2.6467e-05 8.96688e-07
-3.33273e-05 3.46967e-05 0.000636032
0.00666574 0.00420991 0.00138102
0.0137244 0.00961913 0.00132692
0.0171758 0.0105533 0.000906218
0.0188928 0.00957527 0.000349791
0.0205499 0.00786475 -0.000132466
0.0222483 0.00593481 -0.000362935
0.0238086 0.00423613 -0.000376825
0.025143 0.00288277 -0.000280558
0.0262274 0.00188333 -0.000156958
0.0270646 0.00119295 -5.17011e-05
0.0276791 0.00073607 1.69712e-05
0.0281127 0.000438943 4.93231e-05
0.0284114 0.000247576 5.57058e-05
0.0286151 0.000127028 4.8404e-05
0.0287531 5.43649e-05 3.66293e-05
0.0288459 1.34933e-05 2.53942e-05
0.0289079 -7.19733e-06 1.65707e-05
0.0289486 -1.58588e-05 1.03415e-05
0.0289752 -1.79026e-05 6.23197e-06
0.0289922 -1.66921e-05 3.64642e-06
0.029003 -1.41741e-05 2.07702e-06
0.0290098 -1.13858e-05 1.15193e-06
0.0290141 -8.81865e-06 6.20552e-07
0.0290168 -6.6594e-06 3.22749e-07
0.0290184 -4.93779e-06 1.60067e-07
0.0290195 -3.61223e-06 7.37563e-08
0.0290201 -2.616e-06 2.96228e-08
0.0290205 -1.88021e-06 8.20813e-09
0.0290208 -1.34374e-06 -1.32589e-09
0.0290209 -9.56434e-07 -4.8827e-09
0.029021 -6.79022e-07 -5.59725e-09
0.0290211 -4.81689e-07 -5.07754e-09
0.0290211 -3.42317e-07 -4.10795e-09
0.0290212 -2.44834e-07 -3.05861e-09
0.0290212 -1.77784e-07 -2.08518e-09
0.0290212 -1.33426e-07 -1.15727e-09
0.0290212 -1.0735e-07 -1.8978e-10
0.0290212 -9.76067e-08 6.46629e-10
0.0290212 -1.03028e-07 1.03554e-09
0.0290213 -1.1981e-07 -1.39616e-09
0.0290212 -1.43841e-07 -2.06296e-08
0.0290212 -1.59795e-07 -7.60486e-08
0.0290211 -1.6216e-07 -1.14727e-07
0.0196 -2.75286e-06 -2.5425e-06
0.0196009 -0.00582677 -0.00274474
0.0190681 -0.0130009 -0.00645765
0.0159948 -0.0159649 -0.00666395
0.010987 -0.0149352 -0.00668139
0.00178831 -0.00614718 -0.00501797
7.18306e-05 -6.59742e-05 -0.00128517
3.26469e-05 -3.26469e-05 -3.9171e-08
-3.26979e-05 3.39566e-05 0.000241398
0.0040679 0.00294551 0.000509737
0.00937921 0.00693232 0.00043701
0.0122993 0.00726427 9.30068e-05
0.0155439 0.00558255 -0.000274995
0.0186967 0.00381259 -0.000412154
0.0213948 0.00240315 -0.000390332
0.0235795 0.00136002 -0.000303677
0.0252934 0.000658985 -0.00019762
0.0265859 0.000246848 -9.60002e-05
0.0275126 3.54609e-05 -1.79496e-05
0.0281454 -6.07972e-05 2.71573e-05
0.0285619 -9.85175e-05 4.32722e-05
0.0288292 -0.000107073 4.15268e-05
0.0289979 -0.000100729 3.24429e-05
0.0291025 -8.72396e-05 2.24857e-05
0.0291665 -7.13658e-05 1.43849e-05
0.0292048 -5.59788e-05 8.67935e-06
0.0292274 -4.25513e-05 4.99854e-06
0.0292404 -3.15945e-05 2.76319e-06
0.0292478 -2.30546e-05 1.46665e-06
0.0292518 -1.66098e-05 7.43133e-07
0.029254 -1.18566e-05 3.53817e-07
0.0292551 -8.40795e-06 1.52329e-07
0.0292557 -5.93473e-06 5.29431e-08
0.0292559 -4.1756e-06 7.21891e-09
0.029256 -2.93159e-06 -1.13769e-08
0.029256 -2.05541e-06 -1.69474e-08
0.029256 -1.44008e-06 -1.67472e-08
0.029256 -1.00889e-06 -1.43592e-08
0.0292559 -7.07332e-07 -1.14528e-08
0.0292559 -4.9695e-07 -8.72747e-09
0.0292559 -3.50734e-07 -6.40622e-09
0.0292559 -2.49867e-07 -4.52028e-09
0.0292559 -1.81467e-07 -3.0556e-09
0.0292558 -1.36852e-07 -1.98235e-09
0.0292558 -1.09859e-07 -1.45441e-09
0.0292558 -9.50484e-08 -1.8794e-09
0.0292558 -8.69344e-08 -3.66473e-09
0.0292558 -7.88371e-08 -8.31444e-09
0.0292557 -6.25404e-08 -3.04344e-08
0.0292557 -2.3767e-08 -8.2462e-08
0.0292555 3.74768e-09 -1.15754e-07
0.0196 -1.31725e-06 -3.52454e-06
0.0195999 -0.0036432 -0.00311837
0.0188126 -0.00795683 -0.00649319
0.0175733 -0.00791339 -0.00605282
0.0132982 -0.00406783 -0.00556231
0.00920639 0.00273744 -0.00529153
0.0061843 0.00320682 -0.00304228
7.1976e-05 -5.99723e-05 -0.000638736
2.72744e-05 -2.72744e-05 -1.25407e-07
-3.21212e-05 3.32746e-05 8.4226e-05
0.00291479 0.0022113 0.000344467
0.00737165 0.00353017 0.000268408
0.0127167 0.00179331 -0.000118255
0.0173759 0.000468847 -0.000282567
0.0209576 -0.000295771 -0.000305609
0.023591 -0.000740287 -0.000280784
0.0254957 -0.000938979 -0.000231454
0.0268367 -0.000930425 -0.000160169
0.0277349 -0.000795422 -8.48535e-05
0.0283013 -0.000621853 -2.76243e-05
0.0286388 -0.00046274 3.56283e-06
0.0288304 -0.00033547 1.43733e-05
0.0289343 -0.000239394 1.43563e-05
0.028988 -0.000168751 1.06183e-05
0.029014 -0.000117689 6.71129e-06
0.0290253 -8.13448e-05 3.80368e-06
0.0290292 -5.5845e-05 1.96185e-06
0.0290297 -3.81711e-05 9.11287e-07
0.0290287 -2.60334e-05 3.60858e-07
0.0290274 -1.7748e-05 9.63683e-08
0.029026 -1.21105e-05 -1.68614e-08
0.0290248 -8.27832e-06 -5.5804e-08
0.0290239 -5.6715e-06 -6.14072e-08
0.0290232 -3.89508e-06 -5.40728e-08
0.0290226 -2.68167e-06 -4.32416e-08
0.0290222 -1.8507e-06 -3.28397e-08
0.029022 -1.28023e-06 -2.41883e-08
0.0290217 -8.87783e-07 -1.74751e-08
0.0290216 -6.17427e-07 -1.24604e-08
0.0290215 -4.31132e-07 -8.79081e-09
0.0290214 -3.02993e-07 -6.1299e-09
0.0290214 -2.15312e-07 -4.24033e-09
0.0290213 -1.558e-07 -3.03162e-09
0.0290213 -1.15522e-07 -2.49039e-09
0.0290213 -8.74757e-08 -2.7531e-09
0.0290212 -6.55709e-08 -3.9544e-09
0.0290212 -4.39389e-08 -6.12191e-09
0.0290212 -1.54279e-08 -1.03456e-08
0.0290211 3.28291e-08 -2.91458e-08
0.0290211 1.16094e-07 -7.40227e-08
0.029021 1.6814e-07 -1.03e-07
0.018 -8.49113e-07 -3.50496e-06
0.0180009 -0.0019742 -0.0030406
0.0183358 -0.00376483 -0.00613918
0.0184264 -0.00248144 -0.00529185
0.0174538 0.000834525 -0.00423844
0.017206 0.0072206 -0.00396846
0.0179367 0.0126314 -0.0029298
0.0110381 0.00693524 -0.00142582
7.34736e-05 -4.6471e-05 -0.000415568
-2.52873e-05 -5.39868e-05 5.4439e-07
7.72183e-06 -0.000564108 0.000746081
0.00849995 -0.00257797 0.00110102
0.0160053 -0.00425489 0.000511318
0.0210924 -0.00415836 0.000237261
0.0242518 -0.0035023 0.000108852
0.0261335 -0.00287005 -5.71978e-06
0.0272164 -0.00232366 -0.000108814
0.027804 -0.0018072 -0.000155746
0.0280853 -0.00132642 -0.000140735
0.0281864 -0.000923998 -9.67514e-05
0.0281932 -0.000621373 -5.5094e-05
0.0281597 -0.000409779 -2.75924e-05
0.0281154 -0.000267651 -1.28524e-05
0.0280742 -0.00017406 -5.93294e-06
0.0280408 -0.000113055 -2.91076e-06
0.0280155 -7.35157e-05 -1.59431e-06
0.0279973 -4.79607e-05 -9.72781e-07
0.0279845 -3.14452e-05 -6.34821e-07
0.0279756 -2.07442e-05 -4.25098e-07
0.0279695 -1.37773e-05 -2.84955e-07
0.0279653 -9.21266e-06 -1.89226e-07
0.0279624 -6.20027e-06 -1.24176e-07
0.0279604 -4.19751e-06 -8.06267e-08
0.027959 -2.85648e-06 -5.19331e-08
0.0279581 -1.95268e-06 -3.32852e-08
0.0279575 -1.3401e-06 -2.12909e-08
0.027957 -9.22924e-07 -1.36287e-08
0.0279567 -6.37767e-07 -8.7512e-09
0.0279565 -4.42348e-07 -5.64947e-09
0.0279563 -3.08247e-07 -3.67741e-09
0.0279562 -2.16172e-07 -2.43597e-09
0.0279562 -1.52799e-07 -1.7197e-09
0.0279561 -1.08666e-07 -1.46314e-09
0.0279561 -7.67593e-08 -1.61277e-09
0.027956 -5.14826e-08 -2.2003e-09
0.027956 -2.77258e-08 -3.22091e-09
0.027956 5.66951e-11 -4.58609e-09
0.0279559 3.91737e-08 -7.1906e-09
0.0279559 1.05153e-07 -1.87586e-08
0.0279559 2.11113e-07 -5.37348e-08
0.0279559 2.74578e-07 -7.89902e-08
0.0148 -4.76768e-07 -3.10412e-06
0.0148015 -0.00100894 -0.00281524
0.0162507 -0.00155705 -0.00540729
0.0178716 0.000121666 -0.00431029
0.0192852 0.00334893 -0.00313202
0.0211012 0.00745944 -0.00289746
0.0249215 0.0129716 -0.00240313
0.0282012 0.0195523 -0.00146654
0.0231575 0.0113614 -0.000307731
0.0235884 2.55215e-11 0.000633585
0.0267472 -0.0066566 0.00156373
0.0303676 -0.0130381 0.00211622
0.031403 -0.0110897 0.00166942
0.030889 -0.00789734 0.00122572
0.0298012 -0.00531403 0.000799996
0.0286453 -0.0035507 0.000386688
0.0276253 -0.00237696 4.57903e-05
0.0268032 -0.00156759 -0.000147367
0.0261794 -0.00100293 -0.000192955
0.025727 -0.000623659 -0.000156302
0.0254099 -0.000382349 -0.000100902
0.0251938 -0.000234609 -5.69307e-05
0.0250497 -0.000145413 -2.95484e-05
0.0249552 -9.13494e-05 -1.45721e-05
0.0248939 -5.81778e-05 -6.97323e-06
0.0248544 -3.7533e-05 -3.27983e-06
0.024829 -2.45032e-05 -1.52509e-06
0.0248126 -1.61693e-05 -6.99866e-07
0.024802 -1.07714e-05 -3.13206e-07
0.024795 -7.23418e-06 -1.32618e-07
0.0247905 -4.89187e-06 -4.91212e-08
0.0247874 -3.32664e-06 -1.15816e-08
0.0247854 -2.27265e-06 4.18809e-09
0.024784 -1.55841e-06 9.75461e-09
0.024783 -1.07192e-06 1.06991e-08
0.0247824 -7.39238e-07 9.71724e-09
0.0247819 -5.11029e-07 8.092e-09
0.0247816 -3.54139e-07 6.40737e-09
0.0247814 -2.46106e-07 4.90088e-09
0.0247813 -1.71579e-07 3.64194e-09
0.0247812 -1.19953e-07 2.62252e-09
0.0247811 -8.37559e-08 1.79062e-09
0.024781 -5.75572e-08 1.07628e-09
0.024781 -3.71611e-08 4.52398e-10
0.024781 -1.89414e-08 -1.47483e-10
0.024781 7.29116e-10 -7.16567e-10
0.024781 2.62627e-08 -1.09105e-09
0.0247809 6.31633e-08 -1.98666e-09
0.024781 1.22374e-07 -6.80707e-09
0.024781 2.10511e-07 -3.27877e-08
0.0247811 2.61488e-07 -5.47337e-08
0.01 -9.09935e-07 -2.80589e-06
0.0100007 -0.000620142 -0.002294
0.0113517 -0.000666935 -0.00414099
0.0132942 0.000625778 -0.0029502
0.0158496 0.0026025 -0.0018903
0.0198673 0.00563045 -0.00189168