# vtk DataFile Version 2.0
Tobias Weinzierl: CPU, Manycore and Cluster Computing
ASCII

DATASET STRUCTURED_POINTS
DIMENSIONS  51 11 6

ORIGIN 0 0 0 

SPACING 0.1 0.1 0.1 

POINT_DATA 3366

VECTORS velocity float
0 0 0
-3.98493e-13 0 0
3.30005e-09 0 0
4.88666e-09 0 0
-8.75813e-09 0 0
4.25091e-09 0 0
5.56054e-09 0 0
4.12336e-09 0 0
3.0645e-09 0 0
1.2117e-09 0 0
-1.00913e-10 0 0
-3.87378e-10 0 0
-1.50103e-09 0 0
-4.78159e-09 0 0
-9.00485e-09 0 0
-1.20407e-08 0 0
-1.32301e-08 0 0
-1.34279e-08 0 0
-1.36803e-08 0 0
-1.44305e-08 0 0
-1.558e-08 0 0
-1.6841e-08 0 0
-1.79778e-08 0 0
-1.88768e-08 0 0
-1.95221e-08 0 0
-1.99501e-08 0 0
-2.02135e-08 0 0
-2.03629e-08 0 0
-2.04386e-08 0 0
-2.04696e-08 0 0
-2.04757e-08 0 0
-2.04692e-08 0 0
-2.04576e-08 0 0
-2.04449e-08 0 0
-2.04331e-08 0 0
-2.04232e-08 0 0
-2.04151e-08 0 0
-2.04089e-08 0 0
-2.04041e-08 0 0
-2.04005e-08 0 0
-2.03978e-08 0 0
-2.03959e-08 0 0
-2.03944e-08 0 0
-2.03934e-08 0 0
-2.03928e-08 0 0
-2.03923e-08 0 0
-2.03921e-08 0 0
-2.03921e-08 0 0
-2.03923e-08 0 0
-2.03932e-08 0 0
0.00197923 0 0
0 3.79955e-07 0
-2.72588e-12 -3.06356e-09 0
5.14491e-09 -7.16266e-09 0
1.05372e-08 -2.13557e-09 0
-6.11338e-09 -1.09124e-08 0
1.78022e-08 -1.43931e-08 0
1.85188e-08 9.18198e-10 0
1.32558e-08 5.27864e-09 0
1.09231e-08 6.11442e-09 0
7.94086e-09 5.41864e-09 0
4.66796e-09 3.0617e-09 0
2.23364e-09 2.60369e-09 0
-1.53469e-09 5.24664e-09 0
-8.28383e-09 7.69291e-09 0
-1.57165e-08 7.05816e-09 0
-2.06567e-08 4.19885e-09 0
-2.28794e-08 1.62828e-09 0
-2.44252e-08 5.96191e-10 0
-2.69925e-08 7.42642e-10 0
-3.08496e-08 1.22412e-09 0
-3.53276e-08 1.51359e-09 0
-3.96154e-08 1.49706e-09 0
-4.31887e-08 1.27127e-09 0
-4.58706e-08 9.66823e-10 0
-4.77213e-08 6.7385e-10 0
-4.89072e-08 4.34381e-10 0
-4.96129e-08 2.57924e-10 0
-4.99973e-08 1.37725e-10 0
-5.01808e-08 6.14227e-11 0
-5.02467e-08 1.65098e-11 0
-5.02496e-08 -7.44508e-12 0
-5.02226e-08 -1.82779e-11 0
-5.01849e-08 -2.14617e-11 0
-5.01468e-08 -2.05894e-11 0
-5.01128e-08 -1.78799e-11 0
-5.00846e-08 -1.46107e-11 0
-5.00622e-08 -1.1452e-11 0
-5.0045e-08 -8.70435e-12 0
-5.00321e-08 -6.45864e-12 0
-5.00225e-08 -4.69748e-12 0
-5.00154e-08 -3.35521e-12 0
-5.00102e-08 -2.35162e-12 0
-5.00065e-08 -1.60998e-12 0
-5.00039e-08 -1.06266e-12 0
-5.00022e-08 -6.50051e-13 0
-5.00012e-08 -3.24255e-13 0
-5.00008e-08 -3.20573e-14 0
-5.0001e-08 3.1395e-13 0
-5.00021e-08 1.07765e-12 0
-5.00048e-08 3.45548e-12 0
0.00567064 -3.49808e-08 0
0 -2.14373e-08 0
-2.92436e-12 -2.74613e-09 0
5.60556e-09 -1.08484e-08 0
1.7994e-08 -1.72796e-08 0
1.76446e-08 -3.44132e-08 0
3.82221e-08 -2.90624e-08 0
3.23065e-08 -2.00321e-09 0
2.66758e-08 8.88337e-10 0
1.76029e-08 -5.3516e-09 0
7.45317e-09 -1.03474e-08 0
-1.19044e-09 -1.00959e-08 0
-4.55571e-09 -4.47941e-09 0
-6.62081e-09 2.49517e-09 0
-1.20628e-08 7.04278e-09 0
-1.8638e-08 9.20821e-09 0
-2.27242e-08 1.06869e-08 0
-2.40524e-08 1.1939e-08 0
-2.47163e-08 1.24851e-08 0
-2.65135e-08 1.20416e-08 0
-2.98347e-08 1.07342e-08 0
-3.4035e-08 8.89129e-09 0
-3.82138e-08 6.87678e-09 0
-4.17308e-08 4.98791e-09 0
-4.43362e-08 3.40307e-09 0
-4.60706e-08 2.18369e-09 0
-4.71129e-08 1.30984e-09 0
-4.76688e-08 7.21361e-10 0
-4.79144e-08 3.48021e-10 0
-4.79796e-08 1.26022e-10 0
-4.79509e-08 4.38955e-12 0
-4.78815e-08 -5.4354e-11 0
-4.78012e-08 -7.60886e-11 0
-4.77255e-08 -7.772e-11 0
-4.76606e-08 -6.97005e-11 0
-4.76082e-08 -5.81054e-11 0
-4.75675e-08 -4.61942e-11 0
-4.75367e-08 -3.55112e-11 0
-4.75138e-08 -2.66183e-11 0
-4.74971e-08 -1.95585e-11 0
-4.74849e-08 -1.41333e-11 0
-4.74762e-08 -1.00582e-11 0
-4.74699e-08 -7.04296e-12 0
-4.74655e-08 -4.82787e-12 0
-4.74624e-08 -3.19572e-12 0
-4.74604e-08 -1.95869e-12 0
-4.74593e-08 -9.40482e-13 0
-4.74591e-08 9.18298e-14 0
-4.74596e-08 1.60564e-12 0
-4.74612e-08 4.08321e-12 0
-4.7464e-08 7.73125e-12 0
0.00809309 -7.7247e-08 0
0 -6.30273e-07 0
1.72861e-12 -5.03819e-09 0
7.77666e-09 -1.74171e-08 0
2.24597e-08 -3.22918e-08 0
1.91113e-08 -4.38979e-08 0
2.46709e-08 -2.39889e-08 0
1.93395e-08 -1.01582e-11 0
1.75433e-08 -2.82415e-09 0
9.40323e-10 -1.2529e-08 0
-1.35194e-08 -2.31761e-08 0
-1.91808e-08 -2.85345e-08 0
-1.97624e-08 -2.84964e-08 0
-2.11657e-08 -2.07432e-08 0
-2.82973e-08 -6.45587e-09 0
-3.65155e-08 8.82171e-09 0
-4.06604e-08 1.96883e-08 0
-3.94666e-08 2.38666e-08 0
-3.48374e-08 2.2803e-08 0
-2.96481e-08 1.92717e-08 0
-2.58931e-08 1.5207e-08 0
-2.4052e-08 1.14146e-08 0
-2.35897e-08 8.13947e-09 0
-2.37452e-08 5.46317e-09 0
-2.39874e-08 3.4055e-09 0
-2.40884e-08 1.92617e-09 0
-2.40186e-08 9.35457e-10 0
-2.38313e-08 3.21317e-10 0
-2.35916e-08 -2.51872e-11 0
-2.33483e-08 -1.95168e-10 0
-2.31298e-08 -2.57256e-10 0
-2.29477e-08 -2.59105e-10 0
-2.28035e-08 -2.315e-10 0
-2.26936e-08 -1.9292e-10 0
-2.26119e-08 -1.53524e-10 0
-2.25524e-08 -1.18214e-10 0
-2.25098e-08 -8.88047e-11 0
-2.24795e-08 -6.54442e-11 0
-2.24582e-08 -4.74925e-11 0
-2.24432e-08 -3.40257e-11 0
-2.24326e-08 -2.41014e-11 0
-2.24252e-08 -1.68795e-11 0
-2.242e-08 -1.16637e-11 0
-2.24164e-08 -7.89716e-12 0
-2.2414e-08 -5.13942e-12 0
-2.24125e-08 -3.02909e-12 0
-2.24117e-08 -1.2072e-12 0
-2.24115e-08 7.08736e-13 0
-2.24117e-08 2.96708e-12 0
-2.24119e-08 5.50671e-12 0
-2.24126e-08 7.86778e-12 0
0.00906116 -7.99738e-08 0
0 -1.22968e-06 0
1.27025e-13 -9.49387e-09 0
3.20912e-09 -2.59791e-08 0
8.22063e-09 -3.38606e-08 0
2.09372e-09 -2.72527e-08 0
-1.55093e-12 -9.88077e-09 0
-1.29659e-10 -1.16701e-10 0
1.10211e-10 -1.18621e-10 0
-8.80403e-09 -1.10176e-08 0
-3.07907e-08 -3.27053e-08 0
-3.79506e-08 -4.69982e-08 0
-3.6393e-08 -4.69318e-08 0
-4.00529e-08 -3.17583e-08 0
-4.77109e-08 -7.4704e-09 0
-5.42973e-08 1.44544e-08 0
-5.67522e-08 2.676e-08 0
-5.3606e-08 2.83875e-08 0
-4.52964e-08 2.34288e-08 0
-3.45239e-08 1.67713e-08 0
-2.44981e-08 1.10595e-08 0
-1.69906e-08 6.83266e-09 0
-1.20883e-08 3.82175e-09 0
-9.06036e-09 1.72006e-09 0
-7.14318e-09 3.28966e-10 0
-5.8366e-09 -5.01999e-10 0
-4.88337e-09 -9.16158e-10 0
-4.1655e-09 -1.04832e-09 0
-3.62512e-09 -1.0113e-09 0
-3.2253e-09 -8.88502e-10 0
-2.93609e-09 -7.34855e-10 0
-2.7315e-09 -5.82456e-10 0
-2.58958e-09 -4.47326e-10 0
-2.4927e-09 -3.35354e-10 0
-2.42739e-09 -2.46716e-10 0
-2.38376e-09 -1.78816e-10 0
-2.35477e-09 -1.28058e-10 0
-2.33554e-09 -9.08155e-11 0
-2.32277e-09 -6.38786e-11 0
-2.31422e-09 -4.46077e-11 0
-2.30844e-09 -3.09321e-11 0
-2.30449e-09 -2.1276e-11 0
-2.30175e-09 -1.44644e-11 0
-2.29988e-09 -9.63067e-12 0
-2.29862e-09 -6.1229e-12 0
-2.29781e-09 -3.43157e-12 0
-2.29728e-09 -1.19688e-12 0
-2.29674e-09 7.47009e-13 0
-2.29587e-09 2.36439e-12 0
-2.2946e-09 3.57337e-12 0
-2.29396e-09 4.49685e-12 0
0.00939472 -4.47321e-08 0
0 -1.11136e-06 0
-6.57921e-12 -1.04633e-08 0
-3.02609e-09 -2.26577e-08 0
-3.33956e-09 -2.63464e-08 0
-9.64598e-09 -2.67466e-08 0
-8.5496e-09 -1.25971e-08 0
-1.22491e-10 1.19395e-10 0
-9.1359e-12 9.1359e-12 0
1.06071e-10 -1.14298e-10 0
-1.65474e-08 -1.82626e-08 0
-4.58902e-08 -4.92486e-08 0
-4.83302e-08 -5.63692e-08 0
-5.05942e-08 -3.66187e-08 0
-5.23164e-08 -7.80292e-09 0
-5.2998e-08 1.68391e-08 0
-5.36971e-08 2.94101e-08 0
-5.24311e-08 2.88158e-08 0
-4.61614e-08 2.0468e-08 0
-3.53101e-08 1.09963e-08 0
-2.33449e-08 3.91185e-09 0
-1.33566e-08 -3.69847e-10 0
-6.39447e-09 -2.62452e-09 0
-2.03402e-09 -3.61428e-09 0
5.7235e-10 -3.83328e-09 0
2.12606e-09 -3.59619e-09 0
3.06934e-09 -3.12186e-09 0
3.65197e-09 -2.56344e-09 0
4.01346e-09 -2.01831e-09 0
4.23556e-09 -1.53841e-09 0
4.36912e-09 -1.14339e-09 0
4.447e-09 -8.33213e-10 0
4.49063e-09 -5.9791e-10 0
4.51378e-09 -4.23943e-10 0
4.52514e-09 -2.978e-10 0
4.52999e-09 -2.07673e-10 0
4.5315e-09 -1.43996e-10 0
4.53143e-09 -9.93833e-11 0
4.53078e-09 -6.83219e-11 0
4.53004e-09 -4.67904e-11 0
4.52941e-09 -3.19046e-11 0
4.52898e-09 -2.16195e-11 0
4.52873e-09 -1.44927e-11 0
4.52863e-09 -9.50609e-12 0
4.52865e-09 -5.95577e-12 0
4.52882e-09 -3.39385e-12 0
4.52922e-09 -1.57298e-12 0
4.52997e-09 -3.61611e-13 0
4.53115e-09 3.15458e-13 0
4.53254e-09 4.40105e-13 0
4.53308e-09 2.61282e-13 0
0.00947049 7.88267e-09 0
0 -7.68082e-07 0
-3.72442e-12 -6.47352e-09 0
-3.23915e-09 -1.64629e-08 0
-3.04531e-09 -2.13687e-08 0
-1.46513e-08 -2.0724e-08 0
-2.15858e-08 -1.19705e-08 0
-9.32539e-09 -2.62461e-09 0
-1.21305e-10 1.17491e-10 0
-1.13422e-11 1.13422e-11 0
1.00509e-10 -1.11609e-10 0
-2.11612e-08 -2.89637e-08 0
-3.69446e-08 -5.37509e-08 0
-4.41728e-08 -3.49019e-08 0
-4.41825e-08 -5.72319e-09 0
-3.97749e-08 1.83337e-08 0
-3.66618e-08 2.98908e-08 0
-3.63196e-08 2.76279e-08 0
-3.44833e-08 1.70235e-08 0
-2.82821e-08 5.56281e-09 0
-1.95068e-08 -2.4939e-09 0
-1.14518e-08 -6.65235e-09 0
-5.87423e-09 -8.04244e-09 0
-2.77031e-09 -7.84743e-09 0
-1.38288e-09 -6.87891e-09 0
-9.55566e-10 -5.63179e-09 0
-9.79698e-10 -4.3905e-09 0
-1.17505e-09 -3.29934e-09 0
-1.40718e-09 -2.41127e-09 0
-1.6201e-09 -1.72563e-09 0
-1.7957e-09 -1.2158e-09 0
-1.93257e-09 -8.46843e-10 0
-2.03565e-09 -5.85002e-10 0
-2.11154e-09 -4.01762e-10 0
-2.16652e-09 -2.74788e-10 0
-2.20586e-09 -1.87402e-10 0
-2.23373e-09 -1.27538e-10 0
-2.2533e-09 -8.66513e-11 0
-2.2669e-09 -5.87746e-11 0
-2.27624e-09 -3.97836e-11 0
-2.28258e-09 -2.68433e-11 0
-2.2868e-09 -1.80123e-11 0
-2.28954e-09 -1.19696e-11 0
-2.29124e-09 -7.83033e-12 0
-2.29221e-09 -5.01455e-12 0
-2.29263e-09 -3.14818e-12 0
-2.29264e-09 -1.993e-12 0
-2.2923e-09 -1.41311e-12 0
-2.29164e-09 -1.39868e-12 0
-2.2909e-09 -2.16928e-12 0
-2.29091e-09 -3.72037e-12 0
0.00939469 5.74311e-08 0
0 -5.38807e-07 0
7.35947e-13 -4.78281e-09 0
-1.44794e-09 -1.21371e-08 0
-3.68201e-09 -1.59902e-08 0
-1.47431e-08 -1.42436e-08 0
-2.73484e-08 -6.11476e-09 0
-2.5727e-08 -3.56141e-10 0
-1.40752e-08 1.50039e-10 0
-1.27825e-10 1.0714e-10 0
9.61778e-11 1.09277e-10 0
-2.71994e-12 -1.5927e-08 0
-2.29387e-08 -3.00417e-08 0
-4.17271e-08 -1.66329e-08 0
-4.65175e-08 4.70165e-09 0
-3.65381e-08 1.92992e-08 0
-2.27092e-08 2.38702e-08 0
-1.62071e-08 1.9364e-08 0
-1.65826e-08 9.77791e-09 0
-1.76726e-08 3.22622e-10 0
-1.68266e-08 -5.88073e-09 0
-1.52326e-08 -8.56835e-09 0
-1.44218e-08 -8.8453e-09 0
-1.47679e-08 -7.86815e-09 0
-1.58799e-08 -6.42222e-09 0
-1.72501e-08 -4.95041e-09 0
-1.85428e-08 -3.66422e-09 0
-1.96118e-08 -2.63446e-09 0
-2.04314e-08 -1.85565e-09 0
-2.10314e-08 -1.28887e-09 0
-2.14584e-08 -8.86981e-10 0
-2.17568e-08 -6.06855e-10 0
-2.19632e-08 -4.13722e-10 0
-2.21051e-08 -2.81452e-10 0
-2.22022e-08 -1.91215e-10 0
-2.22685e-08 -1.29785e-10 0
-2.23137e-08 -8.80118e-11 0
-2.23445e-08 -5.96194e-11 0
-2.23654e-08 -4.03251e-11 0
-2.23794e-08 -2.72126e-11 0
-2.23888e-08 -1.83004e-11 0
-2.23951e-08 -1.22469e-11 0
-2.23991e-08 -8.14838e-12 0
-2.24017e-08 -5.39732e-12 0
-2.24032e-08 -3.58835e-12 0
-2.24041e-08 -2.46178e-12 0
-2.24046e-08 -1.87411e-12 0
-2.24049e-08 -1.78818e-12 0
-2.24048e-08 -2.30964e-12 0
-2.24049e-08 -3.85461e-12 0
-2.24058e-08 -6.73582e-12 0
0.00906112 8.40448e-08 0
0 -4.57852e-07 0
9.01936e-13 -2.52617e-09 0
-4.42981e-10 -6.97118e-09 0
-5.46057e-09 -1.01955e-08 0
-1.91852e-08 -9.78881e-09 0
-3.4224e-08 -1.73953e-09 0
-3.63398e-08 4.60963e-09 0
-3.1501e-08 -6.23081e-09 0
-1.97224e-08 -8.54138e-09 0
-1.74813e-08 -8.45088e-14 0
-1.96984e-08 -4.76932e-09 0
-3.86371e-08 -5.02267e-09 0
-5.62366e-08 6.5096e-09 0
-5.63406e-08 1.58991e-08 0
-3.72493e-08 1.59731e-08 0
-1.50714e-08 9.7569e-09 0
-6.70584e-09 2.40981e-09 0
-1.23434e-08 -2.99396e-09 0
-2.19728e-08 -5.50045e-09 0
-2.90404e-08 -5.76062e-09 0
-3.3083e-08 -4.99478e-09 0
-3.57036e-08 -4.04464e-09 0
-3.79387e-08 -3.21032e-09 0
-4.0024e-08 -2.52019e-09 0
-4.18741e-08 -1.94708e-09 0
-4.33959e-08 -1.47442e-09 0
-4.45713e-08 -1.09435e-09 0
-4.5439e-08 -7.98213e-10 0
-4.60603e-08 -5.74047e-10 0
-4.64966e-08 -4.0826e-10 0
-4.67992e-08 -2.87804e-10 0
-4.70076e-08 -2.01444e-10 0
-4.71505e-08 -1.40158e-10 0
-4.72483e-08 -9.70136e-11 0
-4.7315e-08 -6.68396e-11 0
-4.73606e-08 -4.58524e-11 0
-4.73915e-08 -3.13234e-11 0
-4.74125e-08 -2.13064e-11 0
-4.74266e-08 -1.44267e-11 0
-4.7436e-08 -9.72065e-12 0
-4.74422e-08 -6.51852e-12 0
-4.74463e-08 -4.3584e-12 0
-4.74488e-08 -2.92602e-12 0
-4.74505e-08 -2.01609e-12 0
-4.74516e-08 -1.50857e-12 0
-4.74524e-08 -1.35378e-12 0
-4.7453e-08 -1.58214e-12 0
-4.74536e-08 -2.32214e-12 0
-4.74547e-08 -3.95987e-12 0
-4.74573e-08 -6.94843e-12 0
0.00809308 7.1544e-08 0
0 -4.72838e-07 0
3.68745e-12 -5.00434e-10 0
9.64712e-11 -1.96575e-09 0
-6.77617e-09 -3.57345e-09 0
-2.17885e-08 -3.81261e-09 0
-3.77227e-08 -2.44852e-09 0
-4.11191e-08 1.68384e-10 0
-3.67965e-08 -2.67884e-09 0
-4.23559e-08 -4.38646e-09 0
-3.98361e-08 1.93474e-09 0
-3.71983e-08 7.61789e-09 0
-3.94565e-08 1.05264e-08 0
-3.99826e-08 1.0259e-08 0
-3.24974e-08 7.47142e-09 0
-1.69594e-08 3.13176e-09 0
-4.86775e-09 -2.1772e-09 0
-6.21363e-09 -6.22266e-09 0
-1.78942e-08 -6.93354e-09 0
-3.04343e-08 -4.91172e-09 0
-3.85556e-08 -2.33102e-09 0
-4.24895e-08 -6.19366e-10 0
-4.42496e-08 7.51047e-11 0
-4.52703e-08 1.70722e-10 0
-4.6125e-08 5.64362e-11 0
-4.69258e-08 -6.79075e-11 0
-4.76444e-08 -1.40963e-10 0
-4.82469e-08 -1.64083e-10 0
-4.87243e-08 -1.5564e-10 0
-4.90871e-08 -1.32495e-10 0
-4.9355e-08 -1.05543e-10 0
-4.95485e-08 -8.04398e-11 0
-4.96864e-08 -5.94407e-11 0
-4.97835e-08 -4.29462e-11 0
-4.98514e-08 -3.05076e-11 0
-4.98984e-08 -2.13873e-11 0
-4.99308e-08 -1.48338e-11 0
-4.9953e-08 -1.01953e-11 0
-4.99681e-08 -6.95048e-12 0
-4.99782e-08 -4.70243e-12 0
-4.99849e-08 -3.15872e-12 0
-4.99893e-08 -2.10953e-12 0
-4.99921e-08 -1.40802e-12 0
-4.99939e-08 -9.54399e-13 0
-4.9995e-08 -6.8582e-13 0
-4.99958e-08 -5.70175e-13 0
-4.99965e-08 -6.01516e-13 0
-4.99972e-08 -8.09761e-13 0
-4.99982e-08 -1.23569e-12 0
-5e-08 -1.9424e-12 0
-5.00035e-08 -3.23668e-12 0
0.00567066 2.77082e-08 0
0 0 0
2.86523e-12 0 0
1.11411e-10 0 0
-3.39632e-09 0 0
-1.03234e-08 0 0
-1.78093e-08 0 0
-2.11824e-08 0 0
-1.93688e-08 0 0
-2.26438e-08 0 0
-2.23592e-08 0 0
-1.75025e-08 0 0
-1.13363e-08 0 0
-6.42015e-09 0 0
-2.83392e-09 0 0
2.36845e-10 0 0
6.58998e-10 0 0
-3.28384e-09 0 0
-9.6336e-09 0 0
-1.5085e-08 0 0
-1.81592e-08 0 0
-1.93179e-08 0 0
-1.955e-08 0 0
-1.95282e-08 0 0
-1.95275e-08 0 0
-1.96005e-08 0 0
-1.97217e-08 0 0
-1.98567e-08 0 0
-1.99824e-08 0 0
-2.00882e-08 0 0
-2.01718e-08 0 0
-2.02352e-08 0 0
-2.02819e-08 0 0
-2.03155e-08 0 0
-2.03394e-08 0 0
-2.03561e-08 0 0
-2.03677e-08 0 0
-2.03756e-08 0 0
-2.0381e-08 0 0
-2.03846e-08 0 0
-2.03869e-08 0 0
-2.03884e-08 0 0
-2.03894e-08 0 0
-2.03899e-08 0 0
-2.03903e-08 0 0
-2.03906e-08 0 0
-2.03909e-08 0 0
-2.03912e-08 0 0
-2.03917e-08 0 0
-2.03926e-08 0 0
-2.03944e-08 0 0
0.00197926 0 0
0 0 5.2762e-07
-3.01507e-12 0 -2.37777e-10
4.47906e-09 0 2.27456e-09
1.2794e-08 0 1.4193e-08
-2.70006e-08 0 1.15477e-08
5.63135e-09 0 7.43953e-11
1.13335e-08 0 -7.9043e-10
1.09284e-08 0 -2.78212e-09
1.31931e-08 0 -3.20208e-09
1.54717e-08 0 -2.25247e-09
1.88857e-08 0 -1.46193e-09
2.34885e-08 0 -1.20311e-09
2.48486e-08 0 -8.52322e-10
1.89163e-08 0 -1.894e-10
7.31338e-09 0 2.00233e-10
-4.6636e-09 0 2.53934e-11
-1.37557e-08 0 -2.42399e-10
-2.03267e-08 0 -1.47478e-10
-2.6014e-08 0 2.58453e-10
-3.1686e-08 0 6.73961e-10
-3.72247e-08 0 8.95312e-10
-4.21521e-08 0 8.99365e-10
-4.61216e-08 0 7.63353e-10
-4.90535e-08 0 5.76483e-10
-5.10641e-08 0 3.98627e-10
-5.23535e-08 0 2.56492e-10
-5.31268e-08 0 1.54651e-10
-5.35553e-08 0 8.71833e-11
-5.3767e-08 0 4.52324e-11
-5.38507e-08 0 2.06275e-11
-5.38643e-08 0 7.07641e-12
-5.38435e-08 0 2.01272e-13
-5.38091e-08 0 -2.84823e-12
-5.37724e-08 0 -3.83424e-12
-5.37389e-08 0 -3.79641e-12
-5.37107e-08 0 -3.31871e-12
-5.36881e-08 0 -2.71e-12
-5.36706e-08 0 -2.12001e-12
-5.36573e-08 0 -1.61069e-12
-5.36474e-08 0 -1.19848e-12
-5.36401e-08 0 -8.77783e-13
-5.36347e-08 0 -6.33864e-13
-5.36309e-08 0 -4.50923e-13
-5.36282e-08 0 -3.14174e-13
-5.36264e-08 0 -2.07777e-13
-5.36253e-08 0 -1.22651e-13
-5.36248e-08 0 -5.56484e-14
-5.36248e-08 0 -3.41545e-14
-5.36257e-08 0 3.0739e-14
-5.36282e-08 0 1.12214e-12
0.00561772 0 -5.80466e-09
0.0036 -3.0491e-07 -6.27236e-08
0.0035998 -0.00138111 -2.04562e-05
0.00671911 -0.00390197 0.000106526
0.0136026 -0.00593103 -0.00056598
0.023551 -0.014411 -0.00432438
0.0462503 -0.0132411 -0.00488095
0.049731 -0.00185087 -0.00165128
0.0494728 0.00269845 -0.000174275
0.0444796 0.00502248 0.000549439
0.0388548 0.00518648 0.000516118
0.033714 0.00452112 0.000232724
0.0293876 0.003635 -4.04823e-05
0.0259744 0.00273461 -0.000224357
0.0234107 0.00192126 -0.000309669
0.021527 0.00127292 -0.000309023
0.0201413 0.000820522 -0.000248158
0.0191163 0.000536531 -0.000163438
0.0183612 0.00036528 -8.69417e-05
0.0178141 0.00025712 -3.41692e-05
0.0174281 0.000182117 -5.19393e-06
0.0171646 0.000126591 7.02151e-06
0.0169913 8.51023e-05 9.95045e-06
0.0168818 5.49521e-05 8.8333e-06
0.0168154 3.39412e-05 6.55595e-06
0.016777 1.99364e-05 4.39129e-06
0.0167562 1.10022e-05 2.73831e-06
0.0167457 5.55107e-06 1.61078e-06
0.0167413 2.3847e-06 8.95836e-07
0.01674 6.5486e-07 4.66968e-07
0.0167403 -2.09505e-07 2.22026e-07
0.0167412 -5.76791e-07 8.91395e-08
0.0167424 -6.75435e-07 2.15575e-08
0.0167434 -6.41433e-07 -9.58445e-09
0.0167444 -5.52009e-07 -2.13799e-08
0.0167451 -4.48402e-07 -2.35701e-08
0.0167457 -3.5068e-07 -2.14844e-08
0.0167461 -2.67035e-07 -1.78947e-08
0.0167465 -1.99406e-07 -1.41427e-08
0.0167467 -1.46744e-07 -1.08009e-08
0.0167469 -1.06818e-07 -8.04795e-09
0.016747 -7.71539e-08 -5.87577e-09
0.0167471 -5.54861e-08 -4.21094e-09
0.0167472 -3.99293e-08 -2.97416e-09
0.0167472 -2.89964e-08 -2.08025e-09
0.0167472 -2.16045e-08 -1.4685e-09
0.0167473 -1.69844e-08 -1.01345e-09
0.0167473 -1.46451e-08 -3.25859e-10
0.0167473 -1.46419e-08 1.94105e-09
0.0167473 -2.16934e-08 5.85319e-09
0.0167474 -6.57896e-08 -7.39495e-09
0.0167475 -1.03478e-07 -2.27632e-08
0.01 -1.37907e-07 -1.43482e-06
0.0100007 -0.0029902 -0.000595965
0.0147938 -0.00993389 -0.000780988
0.024153 -0.0177025 -0.00127505
0.0384495 -0.0323886 -0.0033732
0.0590354 -0.0246503 -0.000814293
0.0562975 -0.00265975 0.00315741
0.055744 0.00516149 0.00336149
0.0499661 0.0101787 0.00295149
0.0444774 0.0103669 0.00201982
0.0399623 0.00931148 0.00105222
0.0362447 0.00786816 0.000309869
0.0332702 0.00631838 -0.000199194
0.0309869 0.00486749 -0.000482394
0.0292383 0.00364338 -0.000549052
0.0278928 0.00267324 -0.000461089
0.0268716 0.00192735 -0.000310096
0.0261193 0.00136464 -0.000169068
0.0255847 0.000947047 -7.04889e-05
0.0252189 0.000642244 -1.52402e-05
0.0249785 0.000424016 9.19856e-06
0.0248277 0.000271499 1.62323e-05
0.0247381 0.00016794 1.53637e-05
0.0246884 9.98439e-05 1.19261e-05
0.0246633 5.65674e-05 8.35648e-06
0.0246527 3.00433e-05 5.49505e-06
0.0246498 1.4428e-05 3.45779e-06
0.0246508 5.66971e-06 2.1038e-06
0.0246534 1.06819e-06 1.24406e-06
0.0246563 -1.11228e-06 7.162e-07
0.0246591 -1.94966e-06 4.00928e-07
0.0246614 -2.09009e-06 2.17301e-07
0.0246633 -1.90571e-06 1.13016e-07
0.0246648 -1.60049e-06 5.5414e-08
0.0246658 -1.27881e-06 2.46448e-08
0.0246667 -9.88326e-07 8.9235e-09
0.0246672 -7.46039e-07 1.40688e-09
0.0246677 -5.53515e-07 -1.78899e-09
0.024668 -4.05446e-07 -2.81365e-09
0.0246682 -2.94221e-07 -2.81939e-09
0.0246683 -2.12178e-07 -2.39555e-09
0.0246685 -1.52601e-07 -1.83909e-09
0.0246685 -1.1005e-07 -1.31756e-09
0.0246686 -8.03242e-08 -8.84127e-10
0.0246686 -6.03779e-08 -5.37063e-10
0.0246687 -4.83353e-08 -7.82623e-11
0.0246687 -4.3875e-08 1.3073e-09
0.0246687 -5.29563e-08 4.56023e-09
0.0246688 -8.76663e-08 6.91047e-09
0.0246689 -1.69704e-07 -2.14273e-08
0.024669 -2.26383e-07 -4.99447e-08
0.0148 -9.47119e-07 -1.72006e-06
0.0148023 -0.00528862 -0.00112773
0.0203534 -0.0163792 -0.00243408
0.0274473 -0.0286864 -0.00394527
0.0320502 -0.0459586 -0.00575399
0.0305449 -0.028382 -0.00139143
0.0267996 -1.20918e-05 0.00328853
0.0262489 0.00710099 0.00350032
0.0298144 0.0145422 0.00338091
0.0301881 0.0140413 0.00238596
0.0293861 0.0122942 0.00139904
0.028549 0.0104524 0.000550287
0.0278925 0.00851781 -5.24139e-05
0.0275514 0.00664223 -0.000387628
0.0274209 0.0050031 -0.000468272
0.0274066 0.00364909 -0.00038459
0.0274532 0.00258101 -0.000241974
0.0275248 0.00177719 -0.000111842
0.0275989 0.00119531 -2.32241e-05
0.0276654 0.00078493 2.34147e-05
0.0277228 0.000500886 3.99028e-05
0.0277723 0.00030827 3.95301e-05
0.0278151 0.000181167 3.21814e-05
0.0278515 0.000100157 2.35253e-05
0.0278815 5.06331e-05 1.60551e-05
0.0279054 2.18274e-05 1.04463e-05
0.0279239 6.09951e-06 6.55992e-06
0.0279377 -1.73745e-06 4.00447e-06
0.0279478 -5.0508e-06 2.38572e-06
0.0279551 -5.93229e-06 1.38956e-06
0.0279603 -5.62367e-06 7.91252e-07
0.0279638 -4.82525e-06 4.39698e-07
0.0279663 -3.90704e-06 2.37482e-07
0.027968 -3.04631e-06 1.23709e-07
0.0279692 -2.31352e-06 6.12546e-08
0.02797 -1.72373e-06 2.79734e-08
0.0279706 -1.26615e-06 1.09182e-08
0.0279709 -9.20115e-07 2.66655e-09
0.0279712 -6.63337e-07 -9.50563e-10
0.0279714 -4.75553e-07 -2.22074e-09
0.0279715 -3.39884e-07 -2.36051e-09
0.0279716 -2.42999e-07 -2.00339e-09
0.0279717 -1.74777e-07 -1.49853e-09
0.0279717 -1.2786e-07 -9.70137e-10
0.0279717 -9.72153e-08 -3.2905e-10
0.0279718 -8.06452e-08 6.60984e-10
0.0279718 -7.93654e-08 2.70018e-09
0.0279718 -9.82133e-08 4.67253e-09
0.0279719 -1.43156e-07 -1.97556e-09
0.0279719 -2.05974e-07 -4.32657e-08
0.0279719 -2.39172e-07 -7.73616e-08
0.018 -1.91084e-06 -1.67618e-06
0.0180029 -0.00696793 -0.00188227
0.0207393 -0.0188826 -0.00491798
0.020668 -0.0247989 -0.00632434
0.0160522 -0.0268557 -0.00760515
-1.57239e-06 -0.013981 -0.00431752
9.60624e-05 2.62019e-05 9.01617e-07
-3.30962e-05 3.44436e-05 0.000644943
0.0066276 0.00416271 0.00140695
0.0136164 0.00949325 0.0013601
0.0170606 0.010394 0.00094176
0.0187996 0.00943354 0.000389531
0.0204659 0.00779358 -9.80871e-05
0.0221572 0.00596835 -0.000345319
0.0237031 0.00435689 -0.000378567
0.025026 0.00304231 -0.00029646
0.026112 0.00203402 -0.000179294
0.026969 0.00131023 -7.29102e-05
0.0276163 0.00081804 2.37623e-06
0.0280863 0.000493521 4.31011e-05
0.0284181 0.000282812 5.62305e-05
0.0286487 0.000148519 5.26491e-05
0.0288076 6.59999e-05 4.19619e-05
0.0289164 1.83284e-05 3.02662e-05
0.0289901 -6.66438e-06 2.03849e-05
0.0290395 -1.77069e-05 1.30595e-05
0.0290722 -2.07952e-05 8.04849e-06
0.0290934 -1.98e-05 4.80384e-06
0.0291072 -1.7049e-05 2.78656e-06
0.0291159 -1.38323e-05 1.57242e-06
0.0291214 -1.07919e-05 8.61814e-07
0.0291249 -8.19263e-06 4.56586e-07
0.0291271 -6.09707e-06 2.31488e-07
0.0291284 -4.47098e-06 1.10013e-07
0.0291293 -3.24221e-06 4.67201e-08
0.0291298 -2.33128e-06 1.5274e-08
0.0291301 -1.6655e-06 7.61116e-10
0.0291303 -1.18414e-06 -5.07045e-09
0.0291305 -8.3908e-07 -6.67262e-09
0.0291305 -5.93486e-07 -6.37186e-09
0.0291306 -4.19859e-07 -5.32749e-09
0.0291306 -2.98088e-07 -4.09089e-09
0.0291307 -2.13735e-07 -2.91624e-09
0.0291307 -1.56799e-07 -1.83656e-09
0.0291307 -1.21039e-07 -7.36132e-10
0.0291307 -1.0318e-07 2.82933e-10
0.0291307 -1.01463e-07 1.06937e-09
0.0291307 -1.12242e-07 -2.5417e-10
0.0291307 -1.31794e-07 -1.61041e-08
0.0291307 -1.43856e-07 -6.13762e-08
0.0291306 -1.44154e-07 -9.24707e-08
0.0196 -2.75854e-06 -2.53389e-06
0.019601 -0.00586055 -0.00274495
0.0190642 -0.0130747 -0.00646586
0.0159761 -0.016061 -0.00667011
0.0109539 -0.0150352 -0.00668164
0.00176642 -0.00619107 -0.00502941
7.16239e-05 -6.57765e-05 -0.00129454
3.26802e-05 -3.26802e-05 -3.95465e-08
-3.24833e-05 3.37092e-05 0.000248969
0.0040102 0.00287775 0.000527499
0.00922926 0.00676834 0.000455264
0.0121524 0.0071038 0.000107946
0.0153992 0.00551384 -0.000266264
0.0185537 0.00386085 -0.000411685
0.0212532 0.00254168 -0.00039368
0.0234371 0.00153071 -0.000309286
0.0251575 0.000804249 -0.000208168
0.0264753 0.000339101 -0.000111332
0.0274447 7.9014e-05 -3.30087e-05
0.0281264 -4.84652e-05 1.74292e-05
0.0285874 -0.000102231 4.01379e-05
0.0288903 -0.00011795 4.31062e-05
0.0290852 -0.000114273 3.61002e-05
0.0292084 -0.000101081 2.63306e-05
0.029285 -8.41587e-05 1.75317e-05
0.0293317 -6.70137e-05 1.09279e-05
0.0293597 -5.15822e-05 6.4687e-06
0.029376 -3.86885e-05 3.66341e-06
0.0293854 -2.8452e-05 1.98886e-06
0.0293906 -2.0616e-05 1.03122e-06
0.0293935 -1.4774e-05 5.04448e-07
0.0293949 -1.05018e-05 2.2598e-07
0.0293957 -7.42095e-06 8.5465e-08
0.029396 -5.22177e-06 1.89244e-08
0.0293961 -3.66337e-06 -9.46227e-09
0.0293962 -2.56484e-06 -1.91083e-08
0.0293961 -1.7934e-06 -2.01852e-08
0.0293961 -1.25318e-06 -1.78144e-08
0.0293961 -8.75764e-07 -1.444e-08
0.029396 -6.12694e-07 -1.11302e-08
0.029396 -4.29897e-07 -8.26406e-09
0.029396 -3.03555e-07 -5.91496e-09
0.029396 -2.17237e-07 -4.07085e-09
0.029396 -1.59784e-07 -2.68678e-09
0.029396 -1.23473e-07 -1.81027e-09
0.029396 -1.02024e-07 -1.77313e-09
0.0293959 -8.94745e-08 -2.92622e-09
0.0293959 -7.87553e-08 -6.35634e-09
0.0293959 -6.18338e-08 -2.51697e-08
0.0293958 -2.34677e-08 -6.72803e-08
0.0293957 3.92033e-09 -9.31166e-08
0.0196 -1.32295e-06 -3.52156e-06
0.0195999 -0.00366225 -0.00312189
0.0187949 -0.00801496 -0.00650298
0.0175523 -0.00799983 -0.00604923
0.013259 -0.00415612 -0.00555242
0.00916407 0.00268087 -0.00530941
0.00617056 0.00319119 -0.00307357
7.17773e-05 -5.97757e-05 -0.000652128
2.72923e-05 -2.72923e-05 -1.25156e-07
-3.1931e-05 3.30356e-05 8.81083e-05
0.00284306 0.00212042 0.000348659
0.00725406 0.00337685 0.000262698
0.0125786 0.00172638 -0.000135766
0.0172355 0.000515836 -0.000303329
0.0208291 -0.000158053 -0.000314923
0.0234788 -0.000569505 -0.00027481
0.0254023 -0.000801675 -0.000222018
0.0267719 -0.000862224 -0.000159245
0.0277096 -0.00078965 -9.2705e-05
0.0283179 -0.000651815 -3.74019e-05
0.0286909 -0.000505047 -2.99328e-06
0.0289081 -0.000377238 1.18957e-05
0.0290284 -0.000275515 1.45068e-05
0.0290917 -0.000197971 1.17842e-05
0.0291227 -0.000140336 7.93246e-06
0.0291363 -9.83383e-05 4.71933e-06
0.029141 -6.82708e-05 2.53689e-06
0.0291415 -4.7072e-05 1.22729e-06
0.0291403 -3.23093e-05 5.1237e-07
0.0291385 -2.21218e-05 1.55706e-07
0.0291368 -1.51337e-05 -3.54127e-09
0.0291353 -1.03564e-05 -6.23315e-08
0.0291341 -7.09507e-06 -7.43846e-08
0.0291332 -4.86828e-06 -6.73942e-08
0.0291325 -3.34627e-06 -5.45945e-08
0.029132 -2.30432e-06 -4.17021e-08
0.0291316 -1.58975e-06 -3.07742e-08
0.0291314 -1.0989e-06 -2.22265e-08
0.0291312 -7.61316e-07 -1.5827e-08
0.029131 -5.29028e-07 -1.11517e-08
0.0291309 -3.69353e-07 -7.77208e-09
0.0291309 -2.59974e-07 -5.35373e-09
0.0291308 -1.85513e-07 -3.72791e-09
0.0291308 -1.3501e-07 -2.83016e-09
0.0291307 -1.00138e-07 -2.71316e-09
0.0291307 -7.39383e-08 -3.50299e-09
0.0291307 -5.00177e-08 -5.21241e-09
0.0291306 -2.11123e-08 -8.40824e-09
0.0291306 2.46849e-08 -2.42123e-08
0.0291305 1.02091e-07 -5.93174e-08
0.0291305 1.50443e-07 -8.07461e-08
0.018 -8.49441e-07 -3.50652e-06
0.0180009 -0.00198985 -0.0030441
0.0183282 -0.00381325 -0.00614672
0.0184045 -0.00255755 -0.00528707
0.0174139 0.000755153 -0.0042191
0.0171552 0.00717034 -0.00396794
0.0178895 0.0126167 -0.0029596
0.0110016 0.00693483 -0.00145316
7.32571e-05 -4.62943e-05 -0.000423094
-2.51007e-05 -5.38272e-05 5.4531e-07
7.73051e-06 -0.00061273 0.00074343
0.00842354 -0.00266121 0.00108993
0.0158666 -0.00428098 0.000486138
0.020925 -0.00410419 0.000202121
0.024099 -0.00338924 8.55983e-05
0.0260283 -0.00273907 2.00236e-06
0.0271687 -0.0022255 -7.89103e-05
0.0278059 -0.00177237 -0.000128486
0.0281219 -0.00134801 -0.000129659
0.0282419 -0.000974794 -9.86992e-05
0.0282547 -0.000677595 -6.16757e-05
0.0282187 -0.000459247 -3.35322e-05
0.0281678 -0.00030678 -1.67122e-05
0.0281188 -0.000203283 -8.08033e-06
0.0280782 -0.00013412 -4.03502e-06
0.028047 -8.83392e-05 -2.19108e-06
0.0280242 -5.82173e-05 -1.3109e-06
0.028008 -3.84618e-05 -8.417e-07
0.0279967 -2.55111e-05 -5.58716e-07
0.0279889 -1.70043e-05 -3.73213e-07
0.0279835 -1.13947e-05 -2.47484e-07
0.0279799 -7.67618e-06 -1.62145e-07
0.0279773 -5.19693e-06 -1.04944e-07
0.0279756 -3.53418e-06 -6.72264e-08
0.0279744 -2.41284e-06 -4.27387e-08
0.0279736 -1.65287e-06 -2.70433e-08
0.0279731 -1.13565e-06 -1.70798e-08
0.0279727 -7.82447e-07 -1.07949e-08
0.0279724 -5.40676e-07 -6.84381e-09
0.0279722 -3.74959e-07 -4.36288e-09
0.0279721 -2.61312e-07 -2.80969e-09
0.027972 -1.83257e-07 -1.87903e-09
0.0279719 -1.29205e-07 -1.45332e-09
0.0279719 -9.0712e-08 -1.46243e-09
0.0279718 -6.126e-08 -1.88074e-09
0.0279718 -3.52331e-08 -2.6987e-09
0.0279718 -6.95449e-09 -3.79805e-09
0.0279717 3.05304e-08 -5.60071e-09
0.0279717 9.09479e-08 -1.48211e-08
0.0279717 1.85249e-07 -4.08686e-08
0.0279717 2.41186e-07 -5.89063e-08
0.0148 -4.76979e-07 -3.10633e-06
0.0148015 -0.00102051 -0.00282047
0.0162416 -0.00159401 -0.00541291
0.0178392 6.10819e-05 -0.00429949
0.0192184 0.00328338 -0.00310516
0.0210068 0.00742463 -0.00287959
0.0248281 0.0129783 -0.00240937
0.0281144 0.0195382 -0.00148616
0.0230979 0.0113362 -0.000320706
0.0235352 2.13532e-11 0.000630701
0.0266834 -0.00666835 0.00155934
0.0302316 -0.0130403 0.0021106
0.0312108 -0.0110444 0.00165701
0.0306968 -0.00782117 0.00119527
0.0296505 -0.00524441 0.000768927
0.0285529 -0.0035096 0.000388999
0.0275866 -0.00237123 8.38507e-05
0.0267979 -0.00159206 -0.000103482
0.0261831 -0.00104268 -0.000167152
0.0257216 -0.000663752 -0.000150056
0.0253866 -0.000415157 -0.000104783
0.0251505 -0.000258973 -6.30242e-05
0.0249882 -0.000162868 -3.44589e-05
0.024879 -0.000103743 -1.77211e-05
0.0248066 -6.69581e-05 -8.76739e-06
0.0247592 -4.37345e-05 -4.23228e-06
0.0247282 -2.88648e-05 -2.007e-06
0.0247081 -1.92238e-05 -9.34017e-07
0.0246949 -1.29027e-05 -4.21747e-07
0.0246863 -8.71719e-06 -1.79303e-07
0.0246805 -5.92139e-06 -6.62726e-08
0.0246767 -4.03992e-06 -1.52582e-08
0.0246742 -2.76586e-06 6.16073e-09
0.0246724 -1.89879e-06 1.36651e-08
0.0246713 -1.30637e-06 1.48698e-08
0.0246705 -9.00366e-07 1.34614e-08
0.0246699 -6.21517e-07 1.1193e-08
0.0246695 -4.29714e-07 8.8607e-09
0.0246693 -2.97658e-07 6.78757e-09
0.0246691 -2.06649e-07 5.0679e-09
0.024669 -1.43758e-07 3.69301e-09
0.0246689 -9.99181e-08 2.60298e-09
0.0246688 -6.86126e-08 1.70983e-09
0.0246688 -4.494e-08 9.67831e-10
0.0246688 -2.48703e-08 3.34931e-10
0.0246687 -4.6222e-09 -1.99738e-10
0.0246687 2.00518e-08 -4.60843e-10
0.0246687 5.40744e-08 -8.41935e-10
0.0246687 1.06386e-07 -4.15367e-09
0.0246688 1.81188e-07 -2.28264e-08
0.0246689 2.23685e-07 -3.85476e-08
0.01 -9.10068e-07 -2.81052e-06
0.0100007 -0.000626399 -0.00229738
0.011339 -0.000686018 -0.00414026
0.0132498 0.000596537 -0.00293269
0.01576 0.00257237 -0.00186069
0.0197377 0.00560992 -0.00186881