# vtk DataFile Version 2.0
Tobias Weinzierl: CPU, Manycore and Cluster Computing
ASCII

DATASET STRUCTURED_POINTS
DIMENSIONS  51 11 6

ORIGIN 0 0 0 

SPACING 0.1 0.1 0.1 

POINT_DATA 3366

VECTORS velocity float
0 0 0
4.57829e-13 0 0
9.57311e-10 0 0
2.04536e-09 0 0
-4.06372e-09 0 0
4.40861e-09 0 0
5.96032e-09 0 0
5.19914e-09 0 0
4.84773e-09 0 0
4.41507e-09 0 0
3.47691e-09 0 0
2.51774e-09 0 0
1.60785e-09 0 0
5.20564e-11 0 0
-2.36911e-09 0 0
-4.81462e-09 0 0
-6.40565e-09 0 0
-7.10462e-09 0 0
-7.47487e-09 0 0
-8.0226e-09 0 0
-8.8948e-09 0 0
-9.96783e-09 0 0
-1.10435e-08 0 0
-1.19743e-08 0 0
-1.26962e-08 0 0
-1.32093e-08 0 0
-1.35473e-08 0 0
-1.37541e-08 0 0
-1.38701e-08 0 0
-1.39274e-08 0 0
-1.39493e-08 0 0
-1.39516e-08 0 0
-1.39441e-08 0 0
-1.39329e-08 0 0
-1.39212e-08 0 0
-1.39106e-08 0 0
-1.39017e-08 0 0
-1.38947e-08 0 0
-1.38893e-08 0 0
-1.38854e-08 0 0
-1.38825e-08 0 0
-1.38805e-08 0 0
-1.38791e-08 0 0
-1.38783e-08 0 0
-1.38778e-08 0 0
-1.38777e-08 0 0
-1.38776e-08 0 0
-1.38776e-08 0 0
-1.38776e-08 0 0
-1.38777e-08 0 0
0.00194214 0 0
0 3.79849e-07 0
-9.65073e-15 -1.12094e-09 0
1.43235e-09 -3.29238e-09 0
4.84595e-09 -1.05781e-09 0
-1.62645e-09 -5.40884e-09 0
1.33901e-08 -7.32134e-09 0
1.56812e-08 8.26588e-12 0
1.40963e-08 1.05219e-09 0
1.38898e-08 2.48159e-10 0
1.37929e-08 -1.28356e-10 0
1.24351e-08 -5.86636e-10 0
1.02183e-08 -5.57124e-10 0
7.24132e-09 1.1027e-09 0
2.96503e-09 3.5812e-09 0
-2.23375e-09 4.79596e-09 0
-6.78446e-09 4.01246e-09 0
-9.70217e-09 2.3306e-09 0
-1.1528e-08 1.08702e-09 0
-1.34569e-08 7.17063e-10 0
-1.61962e-08 9.00823e-10 0
-1.96745e-08 1.17632e-09 0
-2.33842e-08 1.28856e-09 0
-2.67995e-08 1.20353e-09 0
-2.9597e-08 9.94185e-10 0
-3.16816e-08 7.4582e-10 0
-3.31149e-08 5.15918e-10 0
-3.40294e-08 3.30621e-10 0
-3.45687e-08 1.94723e-10 0
-3.48567e-08 1.02254e-10 0
-3.49874e-08 4.35761e-11 0
-3.50267e-08 9.11359e-12 0
-3.50176e-08 -9.11181e-12 0
-3.49866e-08 -1.71258e-11 0
-3.49488e-08 -1.91705e-11 0
-3.49122e-08 -1.80559e-11 0
-3.48804e-08 -1.55323e-11 0
-3.48545e-08 -1.26156e-11 0
-3.48343e-08 -9.84065e-12 0
-3.4819e-08 -7.44619e-12 0
-3.48078e-08 -5.5008e-12 0
-3.47997e-08 -3.98387e-12 0
-3.4794e-08 -2.83436e-12 0
-3.479e-08 -1.97943e-12 0
-3.47875e-08 -1.34938e-12 0
-3.47861e-08 -8.8085e-13 0
-3.47855e-08 -5.18854e-13 0
-3.47853e-08 -2.09909e-13 0
-3.47853e-08 1.25143e-13 0
-3.47856e-08 7.46489e-13 0
-3.47865e-08 2.43716e-12 0
0.00557869 -2.52596e-08 0
0 -2.02862e-08 0
-1.84113e-13 -1.17708e-09 0
2.1764e-09 -5.84087e-09 0
9.46678e-09 -9.96573e-09 0
1.24183e-08 -1.84558e-08 0
2.37919e-08 -1.50815e-08 0
2.00813e-08 -1.41629e-09 0
1.9516e-08 -6.09498e-10 0
1.9311e-08 -4.66236e-09 0
1.80919e-08 -9.33542e-09 0
1.35076e-08 -1.24145e-08 0
8.72881e-09 -1.12713e-08 0
5.14828e-09 -5.73963e-09 0
9.18993e-10 7.69305e-10 0
-4.11571e-09 5.37728e-09 0
-8.44235e-09 7.92495e-09 0
-1.11319e-08 9.27352e-09 0
-1.27114e-08 9.85069e-09 0
-1.4311e-08 9.74843e-09 0
-1.66675e-08 9.05259e-09 0
-1.9809e-08 7.9065e-09 0
-2.32833e-08 6.49332e-09 0
-2.65432e-08 5.01241e-09 0
-2.92136e-08 3.63803e-09 0
-3.11627e-08 2.48249e-09 0
-3.24427e-08 1.58785e-09 0
-3.31954e-08 9.42532e-10 0
-3.35785e-08 5.05949e-10 0
-3.3727e-08 2.2872e-10 0
-3.3741e-08 6.47621e-11 0
-3.36875e-08 -2.34932e-11 0
-3.36076e-08 -6.41204e-11 0
-3.35243e-08 -7.67577e-11 0
-3.34489e-08 -7.43651e-11 0
-3.33859e-08 -6.50113e-11 0
-3.33358e-08 -5.33965e-11 0
-3.32973e-08 -4.2027e-11 0
-3.32686e-08 -3.20588e-11 0
-3.32476e-08 -2.38707e-11 0
-3.32326e-08 -1.74314e-11 0
-3.32219e-08 -1.25216e-11 0
-3.32145e-08 -8.85927e-12 0
-3.32095e-08 -6.16494e-12 0
-3.32063e-08 -4.19197e-12 0
-3.32044e-08 -2.72931e-12 0
-3.32036e-08 -1.58652e-12 0
-3.32033e-08 -5.47012e-13 0
-3.32035e-08 7.57642e-13 0
-3.32041e-08 2.74643e-12 0
-3.32052e-08 5.71228e-12 0
0.00800558 -5.83458e-08 0
0 -6.29422e-07 0
1.80532e-12 -2.8761e-09 0
3.78886e-09 -1.01661e-08 0
1.26818e-08 -1.92603e-08 0
1.41464e-08 -2.67051e-08 0
1.48106e-08 -1.47453e-08 0
1.03738e-08 -1.086e-11 0
1.06186e-08 -1.61569e-09 0
6.55814e-09 -8.54632e-09 0
1.69603e-09 -1.75887e-08 0
-2.36539e-09 -2.31591e-08 0
-5.45867e-09 -2.43206e-08 0
-7.19394e-09 -1.98633e-08 0
-1.12159e-08 -1.04963e-08 0
-1.71445e-08 9.99862e-10 0
-2.23653e-08 1.13336e-08 0
-2.48419e-08 1.76491e-08 0
-2.42603e-08 1.92443e-08 0
-2.17348e-08 1.75385e-08 0
-1.88556e-08 1.44366e-08 0
-1.67405e-08 1.11674e-08 0
-1.56771e-08 8.2283e-09 0
-1.53772e-08 5.75552e-09 0
-1.54089e-08 3.77517e-09 0
-1.54645e-08 2.27497e-09 0
-1.54141e-08 1.20932e-09 0
-1.52489e-08 5.05298e-10 0
-1.50116e-08 7.81945e-11 0
-1.47507e-08 -1.52853e-10 0
-1.45019e-08 -2.55331e-10 0
-1.42851e-08 -2.80219e-10 0
-1.41073e-08 -2.63029e-10 0
-1.39679e-08 -2.26706e-10 0
-1.38622e-08 -1.84938e-10 0
-1.37841e-08 -1.45102e-10 0
-1.37276e-08 -1.10569e-10 0
-1.36874e-08 -8.23571e-11 0
-1.36591e-08 -6.02328e-11 0
-1.36395e-08 -4.33942e-11 0
-1.36261e-08 -3.08659e-11 0
-1.36169e-08 -2.1704e-11 0
-1.36107e-08 -1.50862e-11 0
-1.36067e-08 -1.0337e-11 0
-1.36042e-08 -6.91697e-12 0
-1.36029e-08 -4.39287e-12 0
-1.36025e-08 -2.38045e-12 0
-1.36025e-08 -5.01839e-13 0
-1.36025e-08 1.56125e-12 0
-1.36023e-08 3.90476e-12 0
-1.36019e-08 6.1705e-12 0
0.00902247 -6.23225e-08 0
0 -1.23205e-06 0
4.32187e-14 -5.60945e-09 0
1.47325e-09 -1.55664e-08 0
4.81554e-09 -2.05577e-08 0
3.07678e-09 -1.66655e-08 0
-3.18012e-12 -6.07279e-09 0
-4.73327e-11 -8.84631e-11 0
7.70988e-11 -8.51435e-11 0
-3.71111e-09 -6.60544e-09 0
-1.66646e-08 -2.12394e-08 0
-2.2547e-08 -3.35702e-08 0
-2.1439e-08 -3.75723e-08 0
-2.24696e-08 -3.08486e-08 0
-2.67983e-08 -1.51791e-08 0
-3.20623e-08 2.79872e-09 0
-3.60028e-08 1.69559e-08 0
-3.70275e-08 2.35433e-08 0
-3.42599e-08 2.28937e-08 0
-2.82048e-08 1.82167e-08 0
-2.07078e-08 1.27332e-08 0
-1.37506e-08 8.1075e-09 0
-8.40206e-09 4.68839e-09 0
-4.73767e-09 2.29509e-09 0
-2.33534e-09 6.86937e-10 0
-7.28413e-10 -3.2137e-10 0
4.06816e-10 -8.77085e-10 0
1.24876e-09 -1.10979e-09 0
1.88665e-09 -1.13225e-09 0
2.36834e-09 -1.03461e-09 0
2.726e-09 -8.81829e-10 0
2.98585e-09 -7.15774e-10 0
3.17056e-09 -5.60214e-10 0
3.29926e-09 -4.26279e-10 0
3.3874e-09 -3.17198e-10 0
3.44688e-09 -2.31814e-10 0
3.48653e-09 -1.6694e-10 0
3.51268e-09 -1.18769e-10 0
3.52977e-09 -8.36415e-11 0
3.54085e-09 -5.83919e-11 0
3.54796e-09 -4.04481e-11 0
3.55248e-09 -2.78059e-11 0
3.55531e-09 -1.89463e-11 0
3.55699e-09 -1.27387e-11 0
3.55783e-09 -8.34381e-12 0
3.55806e-09 -5.12482e-12 0
3.55794e-09 -2.60796e-12 0
3.55791e-09 -4.97078e-13 0
3.55849e-09 1.29229e-12 0
3.5598e-09 2.71524e-12 0
3.56137e-09 3.71892e-12 0
0.00939697 -3.48208e-08 0
0 -1.11547e-06 0
-4.34563e-12 -6.03024e-09 0
-2.24207e-09 -1.3414e-08 0
-2.43996e-09 -1.59349e-08 0
-5.25172e-09 -1.57277e-08 0
-4.20773e-09 -7.17885e-09 0
-6.3929e-11 5.74656e-11 0
1.97745e-11 -1.97745e-11 0
6.93729e-11 -8.45641e-11 0
-9.64678e-09 -1.161e-08 0
-2.90617e-08 -3.40872e-08 0
-3.21811e-08 -4.40853e-08 0
-3.43316e-08 -3.50704e-08 0
-3.62686e-08 -1.62628e-08 0
-3.69001e-08 3.97384e-09 0
-3.67361e-08 1.89595e-08 0
-3.59048e-08 2.47654e-08 0
-3.29986e-08 2.21204e-08 0
-2.69168e-08 1.51549e-08 0
-1.85754e-08 7.95849e-09 0
-1.01086e-08 2.54656e-09 0
-3.17309e-09 -8.43781e-10 0
1.72352e-09 -2.68111e-09 0
4.87149e-09 -3.47687e-09 0
6.80206e-09 -3.61148e-09 0
7.97132e-09 -3.35379e-09 0
8.68335e-09 -2.89652e-09 0
9.11996e-09 -2.37319e-09 0
9.38712e-09 -1.86751e-09 0
9.54824e-09 -1.42374e-09 0
9.64277e-09 -1.05842e-09 0
9.696e-09 -7.71153e-10 0
9.72421e-09 -5.52847e-10 0
9.73775e-09 -3.91229e-10 0
9.74309e-09 -2.73978e-10 0
9.74411e-09 -1.90249e-10 0
9.74306e-09 -1.31195e-10 0
9.74119e-09 -8.99461e-11 0
9.73915e-09 -6.13523e-11 0
9.73725e-09 -4.16444e-11 0
9.73562e-09 -2.81134e-11 0
9.73427e-09 -1.88355e-11 0
9.73316e-09 -1.2451e-11 0
9.73219e-09 -8.00537e-12 0
9.73134e-09 -4.85459e-12 0
9.73076e-09 -2.60777e-12 0
9.73073e-09 -1.05844e-12 0
9.73157e-09 -1.0208e-13 0
9.73314e-09 2.64303e-13 0
9.73482e-09 1.82309e-13 0
0.00948705 8.15726e-09 0
0 -7.6942e-07 0
-2.69733e-12 -3.58657e-09 0
-2.3356e-09 -9.12762e-09 0
-2.06663e-09 -1.19912e-08 0
-7.39712e-09 -1.21457e-08 0
-1.05346e-08 -7.88591e-09 0
-4.80063e-09 -2.18903e-09 0
-6.02705e-11 5.46265e-11 0
1.5001e-11 -1.5001e-11 0
5.99916e-11 -7.88752e-11 0
-1.34297e-08 -1.99227e-08 0
-2.6849e-08 -4.0595e-08 0
-3.40115e-08 -3.2841e-08 0
-3.60825e-08 -1.38391e-08 0
-3.38008e-08 5.36635e-09 0
-2.93158e-08 1.86119e-08 0
-2.53928e-08 2.27712e-08 0
-2.21579e-08 1.87698e-08 0
-1.7867e-08 1.0752e-08 0
-1.19641e-08 2.95478e-09 0
-5.69158e-09 -2.49825e-09 0
-5.537e-10 -5.4338e-09 0
2.80341e-09 -6.50005e-09 0
4.55933e-09 -6.40754e-09 0
5.22777e-09 -5.69569e-09 0
5.29399e-09 -4.72915e-09 0
5.0893e-09 -3.73576e-09 0
4.80057e-09 -2.84089e-09 0
4.51781e-09 -2.09765e-09 0
4.27639e-09 -1.51387e-09 0
4.08443e-09 -1.07347e-09 0
3.9382e-09 -7.50964e-10 0
3.82987e-09 -5.19955e-10 0
3.75113e-09 -3.5719e-10 0
3.69466e-09 -2.43902e-10 0
3.65455e-09 -1.65763e-10 0
3.62624e-09 -1.12227e-10 0
3.60634e-09 -7.5729e-11 0
3.59241e-09 -5.09361e-11 0
3.58266e-09 -3.41376e-11 0
3.57587e-09 -2.2771e-11 0
3.57114e-09 -1.50783e-11 0
3.56786e-09 -9.86683e-12 0
3.56554e-09 -6.3443e-12 0
3.5639e-09 -3.99913e-12 0
3.56286e-09 -2.50828e-12 0
3.5625e-09 -1.67995e-12 0
3.56296e-09 -1.44133e-12 0
3.56404e-09 -1.93226e-12 0
3.56523e-09 -3.17446e-12 0
0.00939694 4.80185e-08 0
0 -5.39435e-07 0
3.45783e-13 -2.46816e-09 0
-8.94355e-10 -6.48865e-09 0
-1.62765e-09 -9.05793e-09 0
-6.63538e-09 -8.66702e-09 0
-1.33769e-08 -4.3187e-09 0
-1.37022e-08 -3.36998e-10 0
-8.01373e-09 3.51574e-10 0
-6.18524e-11 4.72332e-11 0
5.88617e-11 3.31242e-11 0
7.12708e-12 -1.10672e-08 0
-1.65282e-08 -2.4364e-08 0
-3.16771e-08 -1.9222e-08 0
-3.8464e-08 -3.5332e-09 0
-3.52755e-08 9.8534e-09 0
-2.51956e-08 1.63333e-08 0
-1.52622e-08 1.5975e-08 0
-9.71721e-09 1.07893e-08 0
-7.59899e-09 3.92696e-09 0
-6.47922e-09 -1.83284e-09 0
-5.46735e-09 -5.31036e-09 0
-4.90926e-09 -6.69759e-09 0
-5.15265e-09 -6.69435e-09 0
-6.10567e-09 -5.94954e-09 0
-7.42994e-09 -4.9104e-09 0
-8.80125e-09 -3.84555e-09 0
-1.00204e-08 -2.89571e-09 0
-1.10084e-08 -2.11667e-09 0
-1.17626e-08 -1.51312e-09 0
-1.23158e-08 -1.06401e-09 0
-1.27109e-08 -7.39313e-10 0
-1.2988e-08 -5.09288e-10 0
-1.31801e-08 -3.48643e-10 0
-1.33123e-08 -2.37559e-10 0
-1.34029e-08 -1.61273e-10 0
-1.34647e-08 -1.09138e-10 0
-1.35069e-08 -7.36353e-11 0
-1.35357e-08 -4.95273e-11 0
-1.35554e-08 -3.31952e-11 0
-1.35688e-08 -2.21544e-11 0
-1.35779e-08 -1.4708e-11 0
-1.35841e-08 -9.70569e-12 0
-1.35884e-08 -6.37315e-12 0
-1.35913e-08 -4.19187e-12 0
-1.35934e-08 -2.82136e-12 0
-1.35948e-08 -2.05499e-12 0
-1.35956e-08 -1.80162e-12 0
-1.35957e-08 -2.10451e-12 0
-1.35954e-08 -3.25371e-12 0
-1.35951e-08 -5.45335e-12 0
0.00902244 6.73057e-08 0
0 -4.57565e-07 0
5.74139e-13 -1.28742e-09 0
-1.44964e-11 -3.61645e-09 0
-1.99501e-09 -5.48587e-09 0
-8.66586e-09 -5.6542e-09 0
-1.73175e-08 -1.35072e-09 0
-2.01106e-08 3.05576e-09 0
-1.82955e-08 -2.71286e-09 0
-1.17214e-08 -4.62205e-09 0
-9.70651e-09 4.79767e-13 0
-9.71385e-09 -5.01865e-09 0
-2.35775e-08 -8.91792e-09 0
-3.98347e-08 -2.46827e-09 0
-4.50543e-08 7.22989e-09 0
-3.62052e-08 1.22511e-08 0
-2.00506e-08 1.07759e-08 0
-7.48498e-09 5.56148e-09 0
-4.06444e-09 -6.66461e-11 0
-7.40147e-09 -3.8657e-09 0
-1.26065e-08 -5.25988e-09 0
-1.69757e-08 -4.99252e-09 0
-2.01872e-08 -4.0908e-09 0
-2.27171e-08 -3.1789e-09 0
-2.49004e-08 -2.44912e-09 0
-2.68141e-08 -1.89075e-09 0
-2.84301e-08 -1.45461e-09 0
-2.97271e-08 -1.10689e-09 0
-3.07215e-08 -8.29791e-10 0
-3.14569e-08 -6.1243e-10 0
-3.19866e-08 -4.45514e-10 0
-3.23612e-08 -3.19986e-10 0
-3.26227e-08 -2.27297e-10 0
-3.28037e-08 -1.59904e-10 0
-3.29283e-08 -1.11533e-10 0
-3.30138e-08 -7.7193e-11 0
-3.30723e-08 -5.30419e-11 0
-3.31123e-08 -3.61965e-11 0
-3.31396e-08 -2.45337e-11 0
-3.31582e-08 -1.65151e-11 0
-3.31709e-08 -1.10409e-11 0
-3.31795e-08 -7.33414e-12 0
-3.31854e-08 -4.85199e-12 0
-3.31894e-08 -3.21934e-12 0
-3.31922e-08 -2.183e-12 0
-3.31943e-08 -1.58434e-12 0
-3.31959e-08 -1.34263e-12 0
-3.3197e-08 -1.45131e-12 0
-3.31976e-08 -1.98742e-12 0
-3.31982e-08 -3.18684e-12 0
-3.31992e-08 -5.2785e-12 0
0.00800558 5.48101e-08 0
0 -4.71887e-07 0
2.05749e-12 -1.91399e-10 0
4.86586e-10 -8.17537e-10 0
-2.34821e-09 -1.59632e-09 0
-1.00333e-08 -1.83833e-09 0
-1.96941e-08 -1.2686e-09 0
-2.34729e-08 5.98727e-10 0
-2.18061e-08 -6.63089e-10 0
-2.52463e-08 -2.38995e-09 0
-2.33938e-08 -1.93482e-10 0
-2.13489e-08 2.20278e-09 0
-2.56494e-08 4.73233e-09 0
-2.99754e-08 6.2414e-09 0
-2.80187e-08 5.67482e-09 0
-1.8491e-08 3.76558e-09 0
-7.19528e-09 8.95547e-10 0
-1.82045e-09 -2.12891e-09 0
-4.71087e-09 -3.94755e-09 0
-1.21634e-08 -3.945e-09 0
-1.94936e-08 -2.7709e-09 0
-2.45805e-08 -1.45983e-09 0
-2.75751e-08 -5.83999e-10 0
-2.93319e-08 -1.84181e-10 0
-3.05101e-08 -7.75926e-11 0
-3.14272e-08 -8.95522e-11 0
-3.21896e-08 -1.22255e-10 0
-3.28214e-08 -1.39793e-10 0
-3.33297e-08 -1.37811e-10 0
-3.37251e-08 -1.2268e-10 0
-3.40238e-08 -1.01745e-10 0
-3.42443e-08 -8.02076e-11 0
-3.44041e-08 -6.08962e-11 0
-3.45182e-08 -4.4926e-11 0
-3.45989e-08 -3.24039e-11 0
-3.46553e-08 -2.29477e-11 0
-3.46946e-08 -1.6003e-11 0
-3.47218e-08 -1.10114e-11 0
-3.47405e-08 -7.48577e-12 0
-3.47534e-08 -5.03247e-12 0
-3.47622e-08 -3.34908e-12 0
-3.47682e-08 -2.21113e-12 0
-3.47724e-08 -1.45706e-12 0
-3.47752e-08 -9.73934e-13 0
-3.47773e-08 -6.86547e-13 0
-3.47789e-08 -5.51785e-13 0
-3.47803e-08 -5.5225e-13 0
-3.47814e-08 -6.97095e-13 0
-3.47823e-08 -1.00436e-12 0
-3.47834e-08 -1.48567e-12 0
-3.4785e-08 -2.29168e-12 0
0.00557872 2.02439e-08 0
0 0 0
1.65957e-12 0 0
3.14509e-10 0 0
-1.15416e-09 0 0
-4.76878e-09 0 0
-9.42316e-09 0 0
-1.22671e-08 0 0
-1.15216e-08 0 0
-1.3532e-08 0 0
-1.36887e-08 0 0
-1.16277e-08 0 0
-8.98e-09 0 0
-6.37697e-09 0 0
-4.03817e-09 0 0
-1.49178e-09 0 0
3.49341e-10 0 0
-8.86901e-11 0 0
-2.91672e-09 0 0
-6.61174e-09 0 0
-9.6315e-09 0 0
-1.14497e-08 0 0
-1.23247e-08 0 0
-1.26996e-08 0 0
-1.28858e-08 0 0
-1.30275e-08 0 0
-1.31671e-08 0 0
-1.33049e-08 0 0
-1.34315e-08 0 0
-1.35401e-08 0 0
-1.36281e-08 0 0
-1.36964e-08 0 0
-1.37478e-08 0 0
-1.37856e-08 0 0
-1.38128e-08 0 0
-1.38321e-08 0 0
-1.38457e-08 0 0
-1.38552e-08 0 0
-1.38618e-08 0 0
-1.38663e-08 0 0
-1.38694e-08 0 0
-1.38715e-08 0 0
-1.3873e-08 0 0
-1.3874e-08 0 0
-1.38748e-08 0 0
-1.38755e-08 0 0
-1.38761e-08 0 0
-1.38766e-08 0 0
-1.3877e-08 0 0
-1.38775e-08 0 0
-1.38783e-08 0 0
0.00194216 0 0
0 0 5.27304e-07
8.09456e-14 0 1.66407e-10
5.97191e-10 0 1.24975e-09
4.82349e-09 0 6.08074e-09
-1.42747e-08 0 3.0491e-09
7.04147e-09 0 -2.69891e-09
1.2945e-08 0 -7.96979e-10
1.25202e-08 0 6.18685e-11
1.23339e-08 0 5.38035e-10
1.32935e-08 0 1.5012e-09
1.53356e-08 0 2.48484e-09
1.83675e-08 0 2.42507e-09
2.08878e-08 0 1.35996e-09
2.0207e-08 0 3.91678e-10
1.50917e-08 0 6.66714e-11
7.40203e-09 0 2.11154e-11
-4.68474e-11 0 -4.19727e-11
-6.02593e-09 0 -1.77244e-11
-1.09837e-08 0 2.01795e-10
-1.57e-08 0 5.20027e-10
-2.04309e-08 0 7.69342e-10
-2.49417e-08 0 8.59884e-10
-2.88752e-08 0 8.02244e-10
-3.20087e-08 0 6.57701e-10
-3.43106e-08 0 4.88524e-10
-3.58843e-08 0 3.35054e-10
-3.68899e-08 0 2.14472e-10
-3.74886e-08 0 1.28529e-10
-3.78151e-08 0 7.16477e-11
-3.79706e-08 0 3.62926e-11
-3.80255e-08 0 1.56095e-11
-3.8026e-08 0 4.31332e-12
-3.80005e-08 0 -1.29695e-12
-3.79658e-08 0 -3.64947e-12
-3.79307e-08 0 -4.25604e-12
-3.78995e-08 0 -4.01311e-12
-3.78737e-08 0 -3.42499e-12
-3.78533e-08 0 -2.7571e-12
-3.78378e-08 0 -2.13575e-12
-3.78263e-08 0 -1.61045e-12
-3.7818e-08 0 -1.19084e-12
-3.78121e-08 0 -8.6724e-13
-3.7808e-08 0 -6.23068e-13
-3.78054e-08 0 -4.42114e-13
-3.78039e-08 0 -3.0875e-13
-3.78032e-08 0 -2.11115e-13
-3.78029e-08 0 -1.46505e-13
-3.78028e-08 0 -1.35614e-13
-3.7803e-08 0 -1.40522e-13
-3.78038e-08 0 4.27137e-13
0.00551848 0 -2.50499e-09
0.0036 -3.03099e-07 -6.17741e-08
0.0035998 -0.00138845 -2.29942e-05
0.00671072 -0.00392522 0.000107812
0.0136103 -0.00589738 -0.000523103
0.0235179 -0.0144437 -0.00428701
0.0463228 -0.0133545 -0.00488021
0.0498326 -0.00190158 -0.00164378
0.0495694 0.00265888 -0.000164278
0.0445795 0.0049855 0.000566443
0.0389711 0.00515343 0.000547236
0.0338615 0.00448635 0.000270229
0.0295603 0.00360236 -8.62092e-06
0.0261466 0.00272318 -0.000201187
0.0235627 0.00194406 -0.000293123
0.0216539 0.0013206 -0.000301135
0.020242 0.000872022 -0.000252346
0.0191854 0.000578294 -0.000177186
0.0183903 0.000396274 -0.000102849
0.0177968 0.000281898 -4.60335e-05
0.017363 0.000204135 -1.10175e-05
0.017055 0.000146587 6.0907e-06
0.016844 0.000102387 1.176e-05
0.016705 6.88301e-05 1.15817e-05
0.0166171 4.42885e-05 9.18829e-06
0.0165642 2.71441e-05 6.47675e-06
0.0165341 1.57138e-05 4.21458e-06
0.0165181 8.43801e-06 2.57616e-06
0.0165106 4.02484e-06 1.48806e-06
0.0165078 1.49246e-06 8.09251e-07
0.0165076 1.41797e-07 4.07194e-07
0.0165084 -4.99854e-07 1.80695e-07
0.0165097 -7.38347e-07 6.02429e-08
0.0165111 -7.6352e-07 1.09035e-09
0.0165123 -6.88119e-07 -2.42345e-08
0.0165133 -5.7565e-07 -3.19322e-08
0.0165141 -4.59396e-07 -3.11859e-08
0.0165147 -3.54872e-07 -2.69721e-08
0.0165151 -2.67689e-07 -2.18327e-08
0.0165154 -1.98331e-07 -1.6952e-08
0.0165157 -1.44928e-07 -1.27899e-08
0.0165159 -1.04784e-07 -9.44058e-09
0.016516 -7.51695e-08 -6.83689e-09
0.0165161 -5.36836e-08 -4.86929e-09
0.0165162 -3.83636e-08 -3.41958e-09
0.0165162 -2.76967e-08 -2.37238e-09
0.0165162 -2.05652e-08 -1.57574e-09
0.0165163 -1.61864e-08 -6.84062e-10
0.0165163 -1.42865e-08 1.41392e-09
0.0165163 -1.77483e-08 5.2028e-09
0.0165164 -4.78227e-08 -1.91042e-09
0.0165164 -7.41192e-08 -1.12474e-08
0.01 -1.36422e-07 -1.43331e-06
0.0100007 -0.00298859 -0.000599806
0.0147864 -0.00995375 -0.00079185
0.0241681 -0.0177242 -0.00124829
0.0385366 -0.0325113 -0.00335266
0.0591986 -0.0248137 -0.00082031
0.0564422 -0.00271987 0.00317302
0.0558782 0.00510754 0.00338598
0.050094 0.0100941 0.003001
0.0446157 0.0102525 0.00209733
0.0401111 0.00918553 0.00113706
0.0363988 0.00777181 0.000386064
0.0334271 0.00628256 -0.000131513
0.0311506 0.0048928 -0.000428361
0.0294099 0.00371417 -0.00052406
0.028058 0.00277326 -0.000471575
0.0270062 0.00204266 -0.000344236
0.0262041 0.0014828 -0.000207553
0.0256125 0.00105836 -9.98006e-05
0.0251922 0.0007404 -3.14302e-05
0.0249053 0.000505652 3.76824e-06
0.0247178 0.000335629 1.72299e-05
0.0246014 0.000215528 1.90896e-05
0.0245334 0.00013322 1.6104e-05
0.0244971 7.86985e-05 1.19383e-05
0.0244801 4.38875e-05 8.18896e-06
0.0244743 2.25334e-05 5.32935e-06
0.0244744 1.00213e-05 3.33569e-06
0.0244771 3.09996e-06 2.0227e-06
0.0244807 -4.25459e-07 1.19201e-06
0.0244844 -1.97993e-06 6.82602e-07
0.0244875 -2.45441e-06 3.78584e-07
0.0244901 -2.38441e-06 2.01828e-07
0.0244922 -2.07756e-06 1.01886e-07
0.0244937 -1.70064e-06 4.71869e-08
0.0244949 -1.33668e-06 1.84747e-08
0.0244957 -1.02113e-06 4.27872e-09
0.0244963 -7.63944e-07 -2.077e-09
0.0244968 -5.62602e-07 -4.38107e-09
0.0244971 -4.0938e-07 -4.72129e-09
0.0244973 -2.95221e-07 -4.20102e-09
0.0244975 -2.11586e-07 -3.37484e-09
0.0244976 -1.51238e-07 -2.53109e-09
0.0244977 -1.0841e-07 -1.80268e-09
0.0244977 -7.87225e-08 -1.20378e-09
0.0244978 -5.91218e-08 -5.78549e-10
0.0244978 -4.80327e-08 7.06766e-10
0.0244978 -4.87096e-08 3.57034e-09
0.0244979 -6.94485e-08 6.61884e-09
0.024498 -1.28214e-07 -1.08184e-08
0.024498 -1.7044e-07 -2.93744e-08
0.0148 -9.46106e-07 -1.7211e-06
0.0148023 -0.00529413 -0.00112774
0.0203803 -0.0164192 -0.00244492
0.0275358 -0.0288078 -0.00394027
0.0321786 -0.0461687 -0.0057672
0.0306515 -0.0285053 -0.00141613
0.0268714 -1.21342e-05 0.00329565
0.0263132 0.00707024 0.00352151
0.0298264 0.0144437 0.00343059
0.0301764 0.0138936 0.00245522
0.0293718 0.01213 0.0014775
0.0285407 0.0102928 0.000632192
0.0279105 0.00840144 2.76082e-05
0.0275923 0.00661231 -0.000325703
0.0274648 0.00507765 -0.000443801
0.0274309 0.00380878 -0.000399384
0.0274469 0.00278143 -0.00027995
0.0274925 0.00197549 -0.000152964
0.0275532 0.00136702 -5.41655e-05
0.0276175 0.000922803 6.94024e-06
0.0276791 0.000606458 3.57896e-05
0.0277356 0.000385769 4.31048e-05
0.0277863 0.000235345 3.90372e-05
0.0278308 0.000135846 3.07406e-05
0.0278687 7.24801e-05 2.2207e-05
0.0278999 3.39624e-05 1.5124e-05
0.0279248 1.18756e-05 9.86647e-06
0.0279439 1.81392e-07 6.22553e-06
0.0279583 -5.26042e-06 3.82092e-06
0.0279689 -7.15855e-06 2.28769e-06
0.0279765 -7.20313e-06 1.3373e-06
0.0279819 -6.39663e-06 7.62476e-07
0.0279856 -5.29906e-06 4.2271e-07
0.0279882 -4.19892e-06 2.26476e-07
0.02799 -3.2262e-06 1.15931e-07
0.0279912 -2.4238e-06 5.54271e-08
0.0279921 -1.79047e-06 2.3488e-08
0.0279927 -1.30563e-06 7.44972e-09
0.0279931 -9.42615e-07 5.40876e-12
0.0279933 -6.75374e-07 -2.96443e-09
0.0279935 -4.81267e-07 -3.71609e-09
0.0279936 -3.41893e-07 -3.44222e-09
0.0279937 -2.42954e-07 -2.78036e-09
0.0279938 -1.7375e-07 -2.04445e-09
0.0279938 -1.26594e-07 -1.25541e-09
0.0279939 -9.68633e-08 -2.47368e-10
0.0279939 -8.31312e-08 1.61943e-09
0.0279939 -8.7886e-08 3.84573e-09
0.027994 -1.16151e-07 3.80803e-10
0.027994 -1.62043e-07 -2.73941e-08
0.027994 -1.87295e-07 -5.07644e-08
0.018 -1.90665e-06 -1.6722e-06
0.0180029 -0.00699433 -0.00187791
0.0207727 -0.0189806 -0.00492279
0.020722 -0.0249615 -0.00633554
0.0160879 -0.0269926 -0.00762142
-1.57864e-06 -0.0140269 -0.00433175
9.58208e-05 2.58779e-05 9.07688e-07
-3.28079e-05 3.41372e-05 0.000653419
0.00658327 0.00410005 0.00143524
0.0134745 0.00931742 0.00140039
0.016898 0.0101545 0.000987487
0.018667 0.009194 0.000443647
0.0203549 0.00762919 -4.55443e-05
0.0220449 0.00594679 -0.000310622
0.0235733 0.00448285 -0.000369677
0.0248734 0.00326576 -0.000310052
0.0259465 0.0022822 -0.000206686
0.0268131 0.00152649 -0.000104337
0.027494 0.000979869 -2.42032e-05
0.0280122 0.00060411 2.69257e-05
0.0283951 0.000354415 5.11864e-05
0.0286719 0.000192482 5.57852e-05
0.0288692 9.05395e-05 4.92094e-05
0.0290084 2.94152e-05 3.83732e-05
0.0291056 -4.3977e-06 2.75279e-05
0.0291728 -2.06478e-05 1.85856e-05
0.0292184 -2.62948e-05 1.19789e-05
0.0292491 -2.60953e-05 7.43642e-06
0.0292694 -2.31013e-05 4.46972e-06
0.0292826 -1.91271e-05 2.60724e-06
0.0292911 -1.51527e-05 1.47567e-06
0.0292965 -1.16358e-05 8.07967e-07
0.0292999 -8.73276e-06 4.24922e-07
0.0293021 -6.44155e-06 2.11561e-07
0.0293034 -4.68877e-06 9.66484e-08
0.0293043 -3.37793e-06 3.73281e-08
0.0293048 -2.4141e-06 8.49537e-09
0.0293052 -1.71454e-06 -4.18319e-09
0.0293054 -1.21192e-06 -8.67745e-09
0.0293055 -8.5373e-07 -9.28905e-09
0.0293056 -6.00239e-07 -8.24798e-09
0.0293056 -4.22048e-07 -6.64636e-09
0.0293057 -2.97811e-07 -5.00149e-09
0.0293057 -2.12383e-07 -3.51643e-09
0.0293057 -1.55531e-07 -2.12121e-09
0.0293057 -1.20934e-07 -8.21282e-10
0.0293057 -1.04978e-07 4.17551e-10
0.0293058 -1.03626e-07 4.31985e-10
0.0293058 -1.13626e-07 -1.04831e-08
0.0293057 -1.1839e-07 -4.20812e-08
0.0293057 -1.15455e-07 -6.33951e-08
0.0196 -2.76464e-06 -2.52374e-06
0.019601 -0.00590143 -0.00274464
0.0190589 -0.0131671 -0.00647694
0.0159507 -0.0161852 -0.00668315
0.0109048 -0.0151647 -0.00668667
0.00173572 -0.00624799 -0.00504084
7.13619e-05 -6.55261e-05 -0.0013026
3.27182e-05 -3.27182e-05 -4.0419e-08
-3.22104e-05 3.34053e-05 0.000258274
0.00393375 0.00278392 0.000550386
0.00901954 0.00652437 0.000479952
0.0119393 0.00683088 0.000129615
0.0151871 0.00534495 -0.000251686
0.0183412 0.00385705 -0.000409545
0.0210421 0.00269498 -0.000398662
0.0232278 0.00177844 -0.000315794
0.0249558 0.00105964 -0.000217997
0.0263002 0.000536029 -0.000127803
0.0273208 0.000196592 -5.34384e-05
0.0280698 3.48844e-06 -1.54891e-08
0.0285998 -9.17834e-05 3.05758e-05
0.0289629 -0.000129526 4.15857e-05
0.0292055 -0.000135924 3.9764e-05
0.0293641 -0.000126134 3.19737e-05
0.0294658 -0.000108869 2.30116e-05
0.0295299 -8.93097e-05 1.52962e-05
0.0295693 -7.04889e-05 9.56187e-06
0.0295931 -5.39791e-05 5.67928e-06
0.0296071 -4.03663e-05 3.21968e-06
0.0296151 -2.96304e-05 1.74066e-06
0.0296195 -2.14377e-05 8.9037e-07
0.0296219 -1.53385e-05 4.22135e-07
0.0296231 -1.08818e-05 1.76042e-07
0.0296237 -7.67062e-06 5.40162e-08
0.0296239 -5.3812e-06 -1.50602e-09
0.029624 -3.76175e-06 -2.30313e-08
0.0296239 -2.62292e-06 -2.82431e-08
0.0296239 -1.82562e-06 -2.6377e-08
0.0296239 -1.26931e-06 -2.20206e-08
0.0296238 -8.82248e-07 -1.72956e-08
0.0296238 -6.13697e-07 -1.30562e-08
0.0296237 -4.28028e-07 -9.53876e-09
0.0296237 -3.00445e-07 -6.74472e-09
0.0296237 -2.13894e-07 -4.6154e-09
0.0296237 -1.56707e-07 -3.07787e-09
0.0296237 -1.20277e-07 -2.28401e-09
0.0296237 -9.74206e-08 -2.50352e-09
0.0296236 -8.02271e-08 -4.27882e-09
0.0296236 -6.0758e-08 -1.80735e-08
0.0296235 -2.27268e-08 -4.69357e-08
0.0296234 4.16225e-09 -6.34001e-08
0.0196 -1.33024e-06 -3.51814e-06
0.0195999 -0.00368453 -0.00312578
0.0187719 -0.00808333 -0.00651647
0.0175234 -0.00810357 -0.00605088
0.013206 -0.00426848 -0.00554503
0.00910871 0.00260026 -0.00532735
0.00615302 0.0031653 -0.00310655
7.15266e-05 -5.95255e-05 -0.000667719
2.73151e-05 -2.73151e-05 -1.2498e-07
-3.16811e-05 3.27398e-05 9.32753e-05
0.00274304 0.00198439 0.000356931
0.00707575 0.00312379 0.000260308
0.0123629 0.00156727 -0.000156779
0.0170064 0.000515896 -0.000336461
0.0206084 -7.93378e-06 -0.000340966
0.0232833 -0.000329858 -0.000279841
0.0252427 -0.000562624 -0.000211854
0.0266601 -0.000697448 -0.000150866
0.027658 -0.000721665 -9.53507e-05
0.0283311 -0.000659501 -4.76269e-05
0.0287623 -0.00055384 -1.31947e-05
0.029024 -0.000440087 5.96111e-06
0.0291746 -0.000337283 1.28717e-05
0.0292562 -0.000252023 1.26511e-05
0.0292972 -0.00018463 9.61481e-06
0.0293155 -0.000133043 6.27437e-06
0.0293219 -9.4545e-05 3.64351e-06
0.0293224 -6.64281e-05 1.89249e-06
0.0293204 -4.62636e-05 8.54961e-07
0.0293177 -3.20138e-05 2.98927e-07
0.029315 -2.20571e-05 3.20692e-08
0.0293127 -1.51567e-05 -7.66068e-08
0.0293109 -1.04008e-05 -1.06478e-07
0.0293095 -7.13401e-06 -1.01568e-07
0.0293084 -4.89413e-06 -8.43567e-08
0.0293077 -3.35939e-06 -6.52591e-08
0.0293071 -2.30774e-06 -4.84268e-08
0.0293067 -1.58683e-06 -3.50133e-08
0.0293064 -1.09241e-06 -2.48919e-08
0.0293062 -7.53244e-07 -1.74949e-08
0.0293061 -5.20667e-07 -1.2181e-08
0.029306 -3.61449e-07 -8.38801e-09
0.0293059 -2.52831e-07 -5.73772e-09
0.0293059 -1.78973e-07 -4.03206e-09
0.0293058 -1.28389e-07 -3.18548e-09
0.0293058 -9.20766e-08 -3.22831e-09
0.0293057 -6.23697e-08 -4.2168e-09
0.0293057 -3.14115e-08 -6.08811e-09
0.0293057 1.14811e-08 -1.75117e-08
0.0293056 7.98652e-08 -3.9912e-08
0.0293055 1.22224e-07 -5.20324e-08
0.018 -8.49197e-07 -3.50879e-06
0.0180009 -0.00200689 -0.00304828
0.0183193 -0.00386847 -0.00615733
0.0183796 -0.00264937 -0.00528633
0.0173681 0.000653525 -0.00420047
0.0170949 0.00709867 -0.00396636
0.017831 0.0125906 -0.00299244
0.0109554 0.00693241 -0.00148572
7.29836e-05 -4.60674e-05 -0.000432702
-2.48527e-05 -5.36253e-05 5.46495e-07
7.74763e-06 -0.00068485 0.000744126
0.00831498 -0.00280743 0.00108266
0.0156624 -0.00437012 0.000457794
0.0206677 -0.00407158 0.000153725
0.0238411 -0.00325299 3.84281e-05
0.0258205 -0.00255351 -1.44404e-05
0.0270413 -0.00205878 -5.77214e-05
0.0277641 -0.00167816 -9.19586e-05
0.0281515 -0.00133828 -0.000103069
0.0283189 -0.00102497 -8.99659e-05
0.0283545 -0.000753593 -6.48187e-05
0.0283223 -0.000536656 -4.03868e-05
0.0282637 -0.000373915 -2.27396e-05
0.028202 -0.00025683 -1.21245e-05
0.0281479 -0.000174735 -6.44399e-06
0.0281046 -0.000118117 -3.57963e-06
0.028072 -7.95173e-05 -2.13183e-06
0.0280483 -5.34222e-05 -1.35278e-06
0.0280315 -3.58819e-05 -8.91869e-07
0.0280198 -2.41295e-05 -5.95714e-07
0.0280116 -1.6262e-05 -3.96593e-07
0.0280061 -1.099e-05 -2.61093e-07
0.0280023 -7.44905e-06 -1.6955e-07
0.0279996 -5.06345e-06 -1.08647e-07
0.0279978 -3.45084e-06 -6.88203e-08
0.0279966 -2.3572e-06 -4.31924e-08
0.0279958 -1.61333e-06 -2.69278e-08
0.0279952 -1.10615e-06 -1.67188e-08
0.0279948 -7.59723e-07 -1.03624e-08
0.0279945 -5.22837e-07 -6.42602e-09
0.0279943 -3.60795e-07 -3.99466e-09
0.0279942 -2.49893e-07 -2.50562e-09
0.0279941 -1.73687e-07 -1.67366e-09
0.027994 -1.20469e-07 -1.36759e-09
0.027994 -8.15665e-08 -1.49633e-09
0.0279939 -5.00676e-08 -1.99545e-09
0.0279939 -1.97455e-08 -2.77859e-09
0.0279939 1.60386e-08 -3.68038e-09
0.0279939 6.84694e-08 -9.6957e-09
0.0279938 1.45371e-07 -2.46157e-08
0.0279938 1.90003e-07 -3.39787e-08
0.0148 -4.76795e-07 -3.10865e-06
0.0148015 -0.00103332 -0.00282706
0.0162327 -0.00163606 -0.00542228
0.0178044 -1.10227e-05 -0.00429222
0.0191422 0.00319969 -0.00307692
0.020894 0.0073728 -0.00285577
0.0247121 0.0129805 -0.0024121
0.0280042 0.0195197 -0.00150866
0.023022 0.0113045 -0.000337868
0.0234698 1.56248e-11 0.000626782
0.0266132 -0.00669437 0.00155805
0.0300662 -0.0130768 0.00210723
0.0309407 -0.0110248 0.00164217
0.0303971 -0.00773429 0.00115799
0.0293968 -0.00513195 0.000720372
0.0283811 -0.00342014 0.000366656
0.0274971 -0.00233329 0.000108209
0.026769 -0.00160875 -5.29789e-05
0.0261834 -0.00109539 -0.000123823
0.0257225 -0.000727112 -0.000128829
0.025369 -0.000471847 -0.000101399
0.0251058 -0.000303021 -6.77511e-05
0.0249153 -0.000195064 -4.0588e-05
0.0247809 -0.000126867 -2.25606e-05
0.024688 -8.3559e-05 -1.19104e-05
0.024625 -5.56693e-05 -6.06485e-06
0.0245827 -3.74302e-05 -3.00325e-06
0.0245545 -2.53433e-05 -1.44683e-06
0.0245357 -1.72502e-05 -6.71428e-07
0.0245233 -1.17882e-05 -2.91841e-07
0.024515 -8.07925e-06 -1.10147e-07
0.0245095 -5.54887e-06 -2.64417e-08
0.0245057 -3.8164e-06 9.31436e-09
0.0245032 -2.62716e-06 2.2102e-08
0.0245015 -1.80937e-06 2.43428e-08
0.0245004 -1.24641e-06 2.21524e-08
0.0244996 -8.58669e-07 1.8474e-08
0.024499 -5.91601e-07 1.46569e-08
0.0244987 -4.07713e-07 1.1257e-08
0.0244984 -2.81148e-07 8.44424e-09
0.0244982 -1.93988e-07 6.2134e-09
0.0244981 -1.3371e-07 4.48626e-09
0.024498 -9.14222e-08 3.14355e-09
0.024498 -6.0638e-08 2.08559e-09
0.0244979 -3.63594e-08 1.26486e-09
0.0244979 -1.43472e-08 6.64046e-10
0.0244979 9.56745e-09 4.06689e-10
0.0244979 3.95545e-08 4.96167e-10
0.0244979 8.19645e-08 -9.62805e-10
0.0244979 1.38152e-07 -1.09217e-08
0.024498 1.68954e-07 -1.93236e-08
0.01 -9.10373e-07 -2.81552e-06
0.0100007 -0.000633335 -0.0023022
0.0113258 -0.000707634 -0.00414222
0.0132013 0.000561887 -0.00291524
0.0156569 0.00253364 -0.00182553
0.0195807 0.00557929 -0.00183636
0.0255089 0.00836726 -0.00237685
0.0346138 0.0101219 -0.00209608