# vtk DataFile Version 2.0
Tobias Weinzierl: CPU, Manycore and Cluster Computing
ASCII

DATASET STRUCTURED_POINTS
DIMENSIONS  51 11 6

ORIGIN 0 0 0 

SPACING 0.1 0.1 0.1 

POINT_DATA 3366

VECTORS velocity float
0 0 0
1.22615e-11 0 0
3.23359e-09 0 0
-4.0279e-08 0 0
-1.26243e-07 0 0
-5.32076e-08 0 0
-3.41083e-08 0 0
-2.15963e-08 0 0
-4.573e-09 0 0
2.28446e-09 0 0
-9.65985e-09 0 0
-3.32085e-08 0 0
-5.42144e-08 0 0
-6.44922e-08 0 0
-6.54396e-08 0 0
-6.28469e-08 0 0
-6.089e-08 0 0
-6.06985e-08 0 0
-6.1749e-08 0 0
-6.32394e-08 0 0
-6.4642e-08 0 0
-6.57382e-08 0 0
-6.65006e-08 0 0
-6.69851e-08 0 0
-6.72677e-08 0 0
-6.74164e-08 0 0
-6.74829e-08 0 0
-6.75027e-08 0 0
-6.74983e-08 0 0
-6.74833e-08 0 0
-6.74651e-08 0 0
-6.74476e-08 0 0
-6.74325e-08 0 0
-6.74201e-08 0 0
-6.74104e-08 0 0
-6.7403e-08 0 0
-6.73975e-08 0 0
-6.73935e-08 0 0
-6.73906e-08 0 0
-6.73886e-08 0 0
-6.73872e-08 0 0
-6.73862e-08 0 0
-6.73855e-08 0 0
-6.73851e-08 0 0
-6.73852e-08 0 0
-6.73856e-08 0 0
-6.73866e-08 0 0
-6.73883e-08 0 0
-6.73903e-08 0 0
-6.73946e-08 0 0
0.00220308 0 0
0 3.97155e-07 0
2.4379e-11 -9.70366e-09 0
9.63199e-09 -6.75701e-09 0
-6.18118e-08 1.99674e-08 0
-1.87872e-07 -2.08878e-09 0
-7.11728e-08 8.34974e-09 0
-6.10454e-08 6.92944e-08 0
-6.34761e-08 6.7064e-08 0
-4.15744e-08 4.05664e-08 0
-2.24749e-08 3.07796e-08 0
-3.03698e-08 3.41857e-08 0
-6.22574e-08 3.56995e-08 0
-9.60328e-08 2.67992e-08 0
-1.14055e-07 1.25999e-08 0
-1.17361e-07 2.20514e-09 0
-1.1667e-07 -1.3399e-09 0
-1.18789e-07 -7.10737e-10 0
-1.24269e-07 8.17415e-10 0
-1.31096e-07 1.73841e-09 0
-1.37462e-07 1.90569e-09 0
-1.42505e-07 1.6299e-09 0
-1.46091e-07 1.20635e-09 0
-1.48442e-07 8.02794e-10 0
-1.49877e-07 4.8468e-10 0
-1.50692e-07 2.61053e-10 0
-1.51114e-07 1.1718e-10 0
-1.51302e-07 3.2198e-11 0
-1.51362e-07 -1.30595e-11 0
-1.51355e-07 -3.34805e-11 0
-1.5132e-07 -3.95317e-11 0
-1.51277e-07 -3.80397e-11 0
-1.51234e-07 -3.31658e-11 0
-1.51198e-07 -2.72688e-11 0
-1.51168e-07 -2.15651e-11 0
-1.51144e-07 -1.65917e-11 0
-1.51126e-07 -1.2508e-11 0
-1.51113e-07 -9.28295e-12 0
-1.51104e-07 -6.80282e-12 0
-1.51097e-07 -4.93039e-12 0
-1.51092e-07 -3.53379e-12 0
-1.51088e-07 -2.49878e-12 0
-1.51086e-07 -1.73163e-12 0
-1.51084e-07 -1.15645e-12 0
-1.51083e-07 -7.13334e-13 0
-1.51083e-07 -3.58444e-13 0
-1.51085e-07 -2.72478e-14 0
-1.51087e-07 3.82687e-13 0
-1.51091e-07 9.51973e-13 0
-1.51098e-07 3.0818e-12 0
-1.51109e-07 1.14076e-11 0
0.00619375 -9.26198e-08 0
0 -1.78009e-08 0
2.54745e-11 -8.52607e-09 0
3.14743e-08 -3.03626e-08 0
4.33047e-09 -7.53983e-08 0
-4.81881e-08 -1.52306e-07 0
4.57743e-08 -9.14491e-08 0
-1.83635e-08 5.07133e-08 0
-7.42492e-08 7.19197e-08 0
-8.53424e-08 4.62976e-08 0
-5.99544e-08 2.74006e-08 0
-5.02613e-08 1.30476e-08 0
-6.73698e-08 7.15124e-09 0
-9.38865e-08 1.25246e-08 0
-1.08026e-07 2.22633e-08 0
-1.07816e-07 2.85705e-08 0
-1.04396e-07 2.9377e-08 0
-1.05221e-07 2.63137e-08 0
-1.10675e-07 2.14689e-08 0
-1.18104e-07 1.62922e-08 0
-1.25133e-07 1.16227e-08 0
-1.3063e-07 7.84345e-09 0
-1.34423e-07 5.02044e-09 0
-1.36801e-07 3.0422e-09 0
-1.38166e-07 1.72973e-09 0
-1.38874e-07 9.02467e-10 0
-1.39189e-07 4.08109e-10 0
-1.39287e-07 1.30607e-10 0
-1.39276e-07 -1.24456e-11 0
-1.39218e-07 -7.63787e-11 0
-1.39147e-07 -9.65564e-11 0
-1.39079e-07 -9.4525e-11 0
-1.3902e-07 -8.27504e-11 0
-1.38973e-07 -6.80101e-11 0
-1.38936e-07 -5.36803e-11 0
-1.38908e-07 -4.12048e-11 0
-1.38888e-07 -3.09956e-11 0
-1.38872e-07 -2.2962e-11 0
-1.38862e-07 -1.6804e-11 0
-1.38854e-07 -1.21671e-11 0
-1.38848e-07 -8.71451e-12 0
-1.38845e-07 -6.15574e-12 0
-1.38842e-07 -4.25234e-12 0
-1.3884e-07 -2.80969e-12 0
-1.38839e-07 -1.655e-12 0
-1.3884e-07 -6.25499e-13 0
-1.38841e-07 4.66232e-13 0
-1.38844e-07 2.19469e-12 0
-1.38849e-07 5.84761e-12 0
-1.38856e-07 1.19452e-11 0
-1.38865e-07 1.98452e-11 0
0.0085821 -1.6766e-07 0
0 -6.28404e-07 0
2.4342e-11 -1.91697e-08 0
4.85455e-08 -6.89116e-08 0
4.06556e-08 -1.42455e-07 0
-2.41189e-08 -1.97157e-07 0
6.37396e-08 -1.04503e-07 0
8.58689e-09 -7.94422e-11 0
-3.23691e-08 -1.27877e-08 0
-8.69553e-08 -4.60192e-08 0
-8.46666e-08 -7.15754e-08 0
-8.33277e-08 -7.00103e-08 0
-1.06848e-07 -4.17823e-08 0
-1.33499e-07 2.26502e-09 0
-1.43047e-07 3.58882e-08 0
-1.33032e-07 4.82644e-08 0
-1.15176e-07 4.61912e-08 0
-1.0029e-07 3.8519e-08 0
-9.22372e-08 2.98288e-08 0
-8.96629e-08 2.17558e-08 0
-8.98164e-08 1.49404e-08 0
-9.07106e-08 9.63908e-09 0
-9.14446e-08 5.81655e-09 0
-9.18029e-08 3.24357e-09 0
-9.1853e-08 1.61969e-09 0
-9.17231e-08 6.60089e-10 0
-9.15181e-08 1.35131e-10 0
-9.13031e-08 -1.22371e-10 0
-9.11103e-08 -2.25379e-10 0
-9.09516e-08 -2.45652e-10 0
-9.08276e-08 -2.26227e-10 0
-9.0734e-08 -1.91393e-10 0
-9.06649e-08 -1.53863e-10 0
-9.06148e-08 -1.19581e-10 0
-9.05788e-08 -9.07603e-11 0
-9.05532e-08 -6.77041e-11 0
-9.05351e-08 -4.98509e-11 0
-9.05224e-08 -3.63332e-11 0
-9.05136e-08 -2.62573e-11 0
-9.05075e-08 -1.88256e-11 0
-9.05033e-08 -1.33755e-11 0
-9.05004e-08 -9.37733e-12 0
-9.04985e-08 -6.41202e-12 0
-9.04973e-08 -4.14562e-12 0
-9.04968e-08 -2.29209e-12 0
-9.04971e-08 -5.06577e-13 0
-9.04983e-08 1.68523e-12 0
-9.05005e-08 4.53714e-12 0
-9.05033e-08 7.76192e-12 0
-9.0505e-08 1.11785e-11 0
-9.05074e-08 1.51872e-11 0
0.00934376 -1.524e-07 0
0 -1.20663e-06 0
-5.11848e-12 -3.59373e-08 0
2.32023e-08 -9.728e-08 0
-4.51664e-09 -1.25171e-07 0
-8.01074e-08 -9.72809e-08 0
-3.11384e-11 -3.35011e-08 0
-6.93321e-11 -1.78246e-10 0
1.23516e-10 -1.51105e-10 0
-3.86147e-08 -4.28709e-08 0
-1.07648e-07 -1.0159e-07 0
-1.30558e-07 -1.00805e-07 0
-1.48851e-07 -5.29623e-08 0
-1.68343e-07 5.46955e-09 0
-1.75054e-07 4.2033e-08 0
-1.64201e-07 4.85804e-08 0
-1.4031e-07 4.00455e-08 0
-1.14237e-07 2.94144e-08 0
-9.42862e-08 2.08259e-08 0
-8.20379e-08 1.41292e-08 0
-7.52837e-08 8.86073e-09 0
-7.15243e-08 4.92479e-09 0
-6.92173e-08 2.24202e-09 0
-6.76426e-08 5.99662e-10 0
-6.65045e-08 -2.85317e-10 0
-6.56741e-08 -6.78553e-10 0
-6.50768e-08 -7.84953e-10 0
-6.46562e-08 -7.43308e-10 0
-6.4366e-08 -6.38538e-10 0
-6.41693e-08 -5.17802e-10 0
-6.40375e-08 -4.04377e-10 0
-6.39501e-08 -3.07685e-10 0
-6.38924e-08 -2.29788e-10 0
-6.38543e-08 -1.6928e-10 0
-6.38292e-08 -1.23437e-10 0
-6.38127e-08 -8.93121e-11 0
-6.38018e-08 -6.42306e-11 0
-6.37946e-08 -4.59639e-11 0
-6.37899e-08 -3.27443e-11 0
-6.37869e-08 -2.32118e-11 0
-6.37849e-08 -1.63406e-11 0
-6.37836e-08 -1.13645e-11 0
-6.37827e-08 -7.70794e-12 0
-6.37822e-08 -4.91706e-12 0
-6.37819e-08 -2.62436e-12 0
-6.37821e-08 -6.06636e-13 0
-6.37825e-08 1.16188e-12 0
-6.3783e-08 2.62132e-12 0
-6.37837e-08 3.79429e-12 0
-6.37837e-08 5.04135e-12 0
-6.37848e-08 7.20837e-12 0
0.0095387 -8.25457e-08 0
0 -1.07907e-06 0
-2.46836e-11 -3.66153e-08 0
-1.10202e-09 -7.70651e-08 0
-3.46657e-08 -9.88517e-08 0
-1.07526e-07 -1.1547e-07 0
-6.32517e-08 -5.70779e-08 0
-8.38275e-11 8.09678e-11 0
4.20924e-11 -4.20924e-11 0
1.00479e-10 -1.45225e-10 0
-5.81768e-08 -5.16944e-08 0
-1.354e-07 -1.0236e-07 0
-1.38014e-07 -6.12141e-08 0
-1.48164e-07 1.19333e-08 0
-1.65015e-07 5.31201e-08 0
-1.74284e-07 5.28415e-08 0
-1.61205e-07 3.37517e-08 0
-1.32695e-07 1.64757e-08 0
-1.04674e-07 6.38909e-09 0
-8.49912e-08 1.15319e-09 0
-7.32551e-08 -1.64448e-09 0
-6.66087e-08 -3.05362e-09 0
-6.27751e-08 -3.52578e-09 0
-6.04738e-08 -3.39619e-09 0
-5.90531e-08 -2.95235e-09 0
-5.81697e-08 -2.40264e-09 0
-5.76249e-08 -1.86995e-09 0
-5.72942e-08 -1.41117e-09 0
-5.70976e-08 -1.04233e-09 0
-5.69833e-08 -7.58481e-10 0
-5.69185e-08 -5.46248e-10 0
-5.68828e-08 -3.90613e-10 0
-5.68638e-08 -2.7797e-10 0
-5.68543e-08 -1.97163e-10 0
-5.68499e-08 -1.39536e-10 0
-5.68483e-08 -9.86018e-11 0
-5.6848e-08 -6.95957e-11 0
-5.68484e-08 -4.90695e-11 0
-5.6849e-08 -3.45484e-11 0
-5.68497e-08 -2.42661e-11 0
-5.68504e-08 -1.69642e-11 0
-5.68509e-08 -1.17446e-11 0
-5.68512e-08 -7.96929e-12 0
-5.68514e-08 -5.20621e-12 0
-5.68515e-08 -3.18712e-12 0
-5.68516e-08 -1.74063e-12 0
-5.68519e-08 -7.35323e-13 0
-5.68524e-08 -1.12707e-13 0
-5.68538e-08 7.0451e-14 0
-5.68547e-08 -4.27033e-14 0
-5.68565e-08 3.1012e-13 0
0.00957273 5.36133e-09 0
0 -7.54329e-07 0
-1.33222e-11 -2.82148e-08 0
-3.02172e-09 -6.88866e-08 0
-3.57454e-08 -8.12987e-08 0
-1.28165e-07 -7.15274e-08 0
-1.45967e-07 -3.81768e-08 0
-4.6312e-08 -7.27083e-09 0
-8.28154e-11 7.82868e-11 0
2.19834e-11 -2.19834e-11 0
6.54905e-11 -1.34956e-10 0
-5.86185e-08 -5.29222e-08 0
-7.37373e-08 -5.82621e-08 0
-7.9063e-08 3.11272e-08 0
-1.06654e-07 8.03656e-08 0
-1.46398e-07 7.01711e-08 0
-1.60594e-07 3.36337e-08 0
-1.42207e-07 4.37194e-09 0
-1.129e-07 -9.42816e-09 0
-8.96629e-08 -1.33622e-08 0
-7.59005e-08 -1.30384e-08 0
-6.89031e-08 -1.11878e-08 0
-6.56282e-08 -8.93688e-09 0
-6.41825e-08 -6.79225e-09 0
-6.35943e-08 -4.97879e-09 0
-6.33976e-08 -3.55744e-09 0
-6.33726e-08 -2.49892e-09 0
-6.34159e-08 -1.73706e-09 0
-6.34797e-08 -1.20068e-09 0
-6.35431e-08 -8.28049e-10 0
-6.35983e-08 -5.71043e-10 0
-6.36432e-08 -3.94321e-10 0
-6.36782e-08 -2.72841e-10 0
-6.3705e-08 -1.89219e-10 0
-6.3725e-08 -1.31527e-10 0
-6.37399e-08 -9.16171e-11 0
-6.37509e-08 -6.39299e-11 0
-6.37589e-08 -4.46673e-11 0
-6.37649e-08 -3.12266e-11 0
-6.37692e-08 -2.18187e-11 0
-6.37723e-08 -1.52114e-11 0
-6.37745e-08 -1.05588e-11 0
-6.3776e-08 -7.28398e-12 0
-6.3777e-08 -4.99203e-12 0
-6.37777e-08 -3.41418e-12 0
-6.37783e-08 -2.38175e-12 0
-6.37792e-08 -1.81367e-12 0
-6.37805e-08 -1.74155e-12 0
-6.37828e-08 -2.42079e-12 0
-6.37847e-08 -4.12386e-12 0
-6.3787e-08 -6.34819e-12 0
0.00953866 9.12528e-08 0
0 -5.30394e-07 0
-3.20916e-12 -2.25695e-08 0
-5.92864e-09 -5.42056e-08 0
-4.70927e-08 -6.18018e-08 0
-1.28688e-07 -4.24112e-08 0
-1.64079e-07 -1.19871e-08 0
-1.14647e-07 -8.65646e-09 0
-5.31481e-08 -8.91909e-09 0
-1.04159e-10 5.17325e-11 0
6.29613e-11 3.60331e-11 0
1.18299e-12 -2.8089e-08 0
-5.71796e-08 -1.86676e-08 0
-5.49216e-08 5.90478e-08 0
-4.02736e-08 1.03981e-07 0
-6.74703e-08 8.45109e-08 0
-1.08603e-07 3.53027e-08 0
-1.22336e-07 -2.74272e-09 0
-1.12184e-07 -1.92102e-08 0
-9.81184e-08 -2.18363e-08 0
-8.9443e-08 -1.88638e-08 0
-8.61043e-08 -1.45399e-08 0
-8.56955e-08 -1.05256e-08 0
-8.64158e-08 -7.32965e-09 0
-8.73706e-08 -4.98467e-09 0
-8.82202e-08 -3.34677e-09 0
-8.88805e-08 -2.23583e-09 0
-8.93628e-08 -1.49405e-09 0
-8.97045e-08 -1.00186e-09 0
-8.99433e-08 -6.75304e-10 0
-9.01091e-08 -4.57846e-10 0
-9.02243e-08 -3.12208e-10 0
-9.03043e-08 -2.14035e-10 0
-9.03601e-08 -1.47425e-10 0
-9.03991e-08 -1.01955e-10 0
-9.04265e-08 -7.07461e-11 0
-9.04458e-08 -4.92229e-11 0
-9.04594e-08 -3.43171e-11 0
-9.04691e-08 -2.39569e-11 0
-9.0476e-08 -1.67349e-11 0
-9.04809e-08 -1.16909e-11 0
-9.04843e-08 -8.16741e-12 0
-9.04867e-08 -5.71441e-12 0
-9.04884e-08 -4.0302e-12 0
-9.04896e-08 -2.92578e-12 0
-9.04908e-08 -2.30885e-12 0
-9.04923e-08 -2.17885e-12 0
-9.04942e-08 -2.62834e-12 0
-9.04971e-08 -4.04588e-12 0
-9.05001e-08 -7.45078e-12 0
-9.05035e-08 -1.3277e-11 0
0.00934368 1.53428e-07 0
0 -4.59156e-07 0
8.58781e-12 -1.44046e-08 0
-1.23351e-08 -3.77951e-08 0
-6.66684e-08 -4.59776e-08 0
-1.44972e-07 -3.06621e-08 0
-1.79382e-07 2.00173e-09 0
-1.46023e-07 6.89839e-09 0
-1.14602e-07 -4.01997e-08 0
-6.5146e-08 -3.70226e-08 0
-5.22191e-08 -1.88887e-12 0
-8.14667e-08 1.85952e-08 0
-1.65418e-07 4.41894e-08 0
-1.49378e-07 5.65374e-08 0
-5.67527e-08 5.96168e-08 0
-2.49087e-08 4.56918e-08 0
-6.95965e-08 2.13465e-08 0
-1.14648e-07 6.40455e-10 0
-1.29475e-07 -1.00813e-08 0
-1.29155e-07 -1.24703e-08 0
-1.27726e-07 -1.08531e-08 0
-1.28464e-07 -8.23029e-09 0
-1.30464e-07 -5.84623e-09 0
-1.32626e-07 -4.01868e-09 0
-1.34439e-07 -2.72081e-09 0
-1.35796e-07 -1.83349e-09 0
-1.36755e-07 -1.23719e-09 0
-1.37415e-07 -8.38435e-10 0
-1.37864e-07 -5.7125e-10 0
-1.38168e-07 -3.91284e-10 0
-1.38374e-07 -2.69302e-10 0
-1.38515e-07 -1.86111e-10 0
-1.38612e-07 -1.2906e-10 0
-1.38679e-07 -8.97496e-11 0
-1.38725e-07 -6.25559e-11 0
-1.38757e-07 -4.36818e-11 0
-1.3878e-07 -3.05456e-11 0
-1.38796e-07 -2.13821e-11 0
-1.38807e-07 -1.49779e-11 0
-1.38815e-07 -1.04963e-11 0
-1.38821e-07 -7.35951e-12 0
-1.38825e-07 -5.1695e-12 0
-1.38828e-07 -3.65627e-12 0
-1.3883e-07 -2.64477e-12 0
-1.38831e-07 -2.03377e-12 0
-1.38833e-07 -1.78924e-12 0
-1.38835e-07 -1.96973e-12 0
-1.38837e-07 -2.72515e-12 0
-1.38841e-07 -4.44148e-12 0
-1.38846e-07 -8.72889e-12 0
-1.38853e-07 -1.74587e-11 0
0.00858203 1.55301e-07 0
0 -4.79841e-07 0
2.09968e-11 -5.72888e-09 0
-1.91853e-08 -1.73129e-08 0
-7.86166e-08 -2.21693e-08 0
-1.46594e-07 -1.51966e-08 0
-1.79758e-07 -6.6723e-09 0
-1.56971e-07 -6.74634e-09 0
-1.33934e-07 -2.8724e-08 0
-1.52067e-07 -3.17097e-08 0
-1.35352e-07 1.07479e-08 0
-1.3498e-07 5.97162e-08 0
-1.41634e-07 7.39761e-08 0
-1.08932e-07 3.82871e-08 0
-4.39426e-08 -1.08068e-08 0
-3.46059e-08 -3.80949e-08 0
-8.64046e-08 -3.47132e-08 0
-1.34079e-07 -1.58746e-08 0
-1.50624e-07 -9.4667e-10 0
-1.50175e-07 4.27079e-09 0
-1.4711e-07 3.86014e-09 0
-1.45798e-07 2.10474e-09 0
-1.46044e-07 7.42377e-10 0
-1.46949e-07 1.45024e-11 0
-1.47946e-07 -2.75998e-10 0
-1.488e-07 -3.39319e-10 0
-1.49459e-07 -3.07651e-10 0
-1.49939e-07 -2.47758e-10 0
-1.50281e-07 -1.88097e-10 0
-1.50521e-07 -1.3827e-10 0
-1.50689e-07 -9.97905e-11 0
-1.50805e-07 -7.12519e-11 0
-1.50887e-07 -5.05537e-11 0
-1.50944e-07 -3.57319e-11 0
-1.50983e-07 -2.51964e-11 0
-1.51011e-07 -1.77402e-11 0
-1.51031e-07 -1.24771e-11 0
-1.51045e-07 -8.76783e-12 0
-1.51055e-07 -6.15636e-12 0
-1.51062e-07 -4.31986e-12 0
-1.51067e-07 -3.03153e-12 0
-1.5107e-07 -2.13388e-12 0
-1.51073e-07 -1.52056e-12 0
-1.51075e-07 -1.12503e-12 0
-1.51076e-07 -9.12901e-13 0
-1.51078e-07 -8.82575e-13 0
-1.5108e-07 -1.08808e-12 0
-1.51083e-07 -1.65222e-12 0
-1.51088e-07 -2.76699e-12 0
-1.51094e-07 -5.36811e-12 0
-1.51106e-07 -1.14466e-11 0
0.00619376 7.53141e-08 0
0 0 0
1.3942e-11 0 0
-1.05918e-08 0 0
-3.86523e-08 0 0
-6.71231e-08 0 0
-8.17095e-08 0 0
-7.92853e-08 0 0
-7.24778e-08 0 0
-8.69462e-08 0 0
-8.31365e-08 0 0
-5.35119e-08 0 0
-1.73477e-08 0 0
3.33655e-09 0 0
4.64573e-09 0 0
-1.79901e-08 0 0
-5.03151e-08 0 0
-7.09873e-08 0 0
-7.59544e-08 0 0
-7.33343e-08 0 0
-6.98031e-08 0 0
-6.75631e-08 0 0
-6.65789e-08 0 0
-6.63307e-08 0 0
-6.64112e-08 0 0
-6.65962e-08 0 0
-6.67857e-08 0 0
-6.6945e-08 0 0
-6.70677e-08 0 0
-6.71584e-08 0 0
-6.72237e-08 0 0
-6.72704e-08 0 0
-6.73034e-08 0 0
-6.73267e-08 0 0
-6.73432e-08 0 0
-6.73549e-08 0 0
-6.73631e-08 0 0
-6.7369e-08 0 0
-6.73731e-08 0 0
-6.73761e-08 0 0
-6.73782e-08 0 0
-6.73797e-08 0 0
-6.73808e-08 0 0
-6.73816e-08 0 0
-6.73823e-08 0 0
-6.7383e-08 0 0
-6.73841e-08 0 0
-6.73857e-08 0 0
-6.73881e-08 0 0
-6.73917e-08 0 0
-6.73982e-08 0 0
0.00220311 0 0
0 0 5.36595e-07
3.29299e-11 0 6.46706e-09
1.74277e-08 0 4.70459e-08
-5.20116e-08 0 1.09512e-07
-3.31405e-07 0 1.50333e-08
-1.37827e-07 0 -1.00459e-07
-6.18149e-08 0 -1.00881e-07
-5.4793e-09 0 -9.65795e-08
4.57266e-08 0 -6.44303e-08
7.60368e-08 0 -2.56771e-08
6.80794e-08 0 1.32095e-09
2.55209e-08 0 8.86534e-09
-2.82315e-08 0 4.49125e-09
-7.08859e-08 0 -1.37071e-09
-9.56205e-08 0 -3.84895e-09
-1.08629e-07 0 -3.21071e-09
-1.17685e-07 0 -1.44057e-09
-1.26226e-07 0 3.76555e-11
-1.34366e-07 0 7.98579e-10
-1.41343e-07 0 9.84122e-10
-1.46716e-07 0 8.66599e-10
-1.50506e-07 0 6.50793e-10
-1.52994e-07 0 4.43184e-10
-1.54524e-07 0 2.81708e-10
-1.55405e-07 0 1.69616e-10
-1.55871e-07 0 9.73428e-11
-1.56088e-07 0 5.32119e-11
-1.56164e-07 0 2.7457e-11
-1.56168e-07 0 1.30547e-11
-1.56138e-07 0 5.36611e-12
-1.56096e-07 0 1.49711e-12
-1.56055e-07 0 -2.82895e-13
-1.56018e-07 0 -9.71998e-13
-1.55987e-07 0 -1.126e-12
-1.55963e-07 0 -1.04276e-12
-1.55944e-07 0 -8.7446e-13
-1.5593e-07 0 -6.93605e-13
-1.5592e-07 0 -5.30723e-13
-1.55913e-07 0 -3.95105e-13
-1.55908e-07 0 -2.8579e-13
-1.55904e-07 0 -1.97254e-13
-1.55901e-07 0 -1.21738e-13
-1.559e-07 0 -4.80293e-14
-1.55899e-07 0 3.78195e-14
-1.55899e-07 0 1.47184e-13
-1.559e-07 0 3.16505e-13
-1.55902e-07 0 5.82288e-13
-1.55906e-07 0 7.76576e-13
-1.55912e-07 0 1.78719e-12
-1.55923e-07 0 8.18676e-12
0.00616611 0 -4.21931e-08
0.0036 -2.64418e-07 -3.37003e-08
0.00359983 -0.0012853 1.69346e-05
0.00676509 -0.00383299 -2.12325e-05
0.0136805 -0.0065872 -0.00123415
0.0242364 -0.0143042 -0.00486557
0.046113 -0.0122122 -0.0049433
0.0493853 -0.00140784 -0.00165439
0.0490226 0.00294401 -0.000108983
0.0438537 0.00520504 0.000638868
0.038142 0.00534854 0.000583975
0.0330423 0.00459838 0.000228888
0.028827 0.0035376 -0.000132465
0.0255239 0.00247414 -0.000345387
0.0230628 0.00160886 -0.000372887
0.0213078 0.00101432 -0.000282177
0.020095 0.00064608 -0.000166333
0.0192774 0.000421061 -7.88459e-05
0.0187394 0.000277007 -2.88192e-05
0.0183946 0.000180533 -5.70672e-06
0.0181796 0.000115136 2.68476e-06
0.0180493 7.14405e-05 4.46865e-06
0.0179727 4.30037e-05 3.87685e-06
0.0179292 2.50368e-05 2.75669e-06
0.0179053 1.40217e-05 1.76547e-06
0.0178929 7.47359e-06 1.05387e-06
0.017887 3.70905e-06 5.9412e-07
0.0178845 1.62823e-06 3.16651e-07
0.0178837 5.35396e-07 1.57805e-07
0.0178838 3.24805e-09 7.11743e-08
0.0178843 -2.23207e-07 2.63759e-08
0.0178848 -2.91646e-07 4.78789e-09
0.0178853 -2.84778e-07 -4.48207e-09
0.0178857 -2.47054e-07 -7.55793e-09
0.017886 -2.01061e-07 -7.75208e-09
0.0178863 -1.57308e-07 -6.77975e-09
0.0178865 -1.19909e-07 -5.47966e-09
0.0178866 -8.97934e-08 -4.22691e-09
0.0178867 -6.6451e-08 -3.16222e-09
0.0178868 -4.88444e-08 -2.31556e-09
0.0178868 -3.58554e-08 -1.67221e-09
0.0178869 -2.64858e-08 -1.20999e-09
0.0178869 -1.99288e-08 -9.1796e-10
0.0178869 -1.55818e-08 -8.05886e-10
0.017887 -1.30743e-08 -9.44119e-10
0.017887 -1.22136e-08 -1.40269e-09
0.017887 -1.29078e-08 -2.0643e-09
0.017887 -1.58556e-08 -2.85007e-09
0.0178871 -2.16409e-08 -4.97516e-10
0.0178872 -4.69769e-08 -3.63441e-10
0.0178873 -1.76037e-07 -6.88042e-08
0.0178876 -2.83357e-07 -1.3461e-07
0.01 -1.32736e-07 -1.3963e-06
0.0100008 -0.00300585 -0.000509652
0.0149152 -0.00993604 -0.000779161
0.0240973 -0.0179072 -0.00179491
0.0378605 -0.0315373 -0.00372259
0.057907 -0.0232068 -0.000916142
0.0554476 -0.00206678 0.00268834
0.0551562 0.00561851 0.00283101
0.0494959 0.0105832 0.00252448
0.0440458 0.0106138 0.00169286
0.0395638 0.00940295 0.000725773
0.0357722 0.00782564 -5.80053e-05
0.0326462 0.00613032 -0.0005099
0.0302662 0.00451552 -0.000604809
0.0285579 0.00315634 -0.00047108
0.0273822 0.00212405 -0.000282191
0.0266 0.00139045 -0.000136179
0.0260961 0.000889355 -5.13636e-05
0.0257825 0.000556092 -1.13876e-05
0.0255947 0.000339573 3.67371e-06
0.0254869 0.000202172 7.31845e-06
0.0254278 0.000117048 6.69033e-06
0.0253974 6.5589e-05 4.97134e-06
0.025383 3.52707e-05 3.34273e-06
0.0253772 1.79077e-05 2.11731e-06
0.0253757 8.29118e-06 1.28792e-06
0.0253762 3.18892e-06 7.60184e-07
0.0253774 6.42628e-07 4.37953e-07
0.0253787 -5.05487e-07 2.47056e-07
0.02538 -9.2246e-07 1.36649e-07
0.025381 -9.81531e-07 7.40916e-08
0.0253818 -8.84202e-07 3.93071e-08
0.0253825 -7.34193e-07 2.03216e-08
0.0253829 -5.81198e-07 1.01631e-08
0.0253833 -4.46145e-07 4.85201e-09
0.0253835 -3.35416e-07 2.15632e-09
0.0253837 -2.48593e-07 8.44974e-10
0.0253838 -1.8253e-07 2.50302e-10
0.0253839 -1.33378e-07 1.65965e-11
0.025384 -9.7513e-08 -4.39055e-11
0.025384 -7.18965e-08 -3.76629e-11
0.0253841 -5.41803e-08 -3.92906e-11
0.0253841 -4.26738e-08 -9.95703e-11
0.0253841 -3.63495e-08 -2.99837e-10
0.0253842 -3.50943e-08 -7.28866e-10
0.0253842 -3.95163e-08 -7.22442e-10
0.0253842 -5.39951e-08 3.4724e-10
0.0253843 -9.92751e-08 3.68182e-09
0.0253844 -2.02228e-07 -3.51512e-09
0.0253846 -3.86133e-07 -1.15623e-07
0.0253848 -5.01648e-07 -2.18013e-07
0.0148 -9.55567e-07 -1.69068e-06
0.0148023 -0.00527608 -0.00106809
0.0201848 -0.0161909 -0.00238981
0.0268443 -0.0280541 -0.00418044
0.0312889 -0.0446322 -0.00553496
0.0297978 -0.027512 -0.0010476
0.026392 -1.16334e-05 0.00299638
0.0261123 0.0072858 0.00302067
0.0301787 0.0150347 0.00287212
0.0306363 0.0146739 0.00194096
0.0296738 0.0129326 0.000938018
0.0286289 0.0109236 9.84711e-05
0.0278246 0.00855941 -0.000364666
0.0274817 0.00617926 -0.000471472
0.0274279 0.00420775 -0.000360771
0.0274856 0.0027626 -0.000198998
0.0275602 0.00177036 -7.51381e-05
0.0276222 0.00110999 -6.65686e-06
0.0276711 0.000678817 2.07516e-05
0.0277113 0.000403148 2.59323e-05
0.0277451 0.000231444 2.20967e-05
0.027773 0.000127626 1.61333e-05
0.0277952 6.68359e-05 1.08152e-05
0.0278123 3.24724e-05 6.86553e-06
0.0278249 1.38336e-05 4.19491e-06
0.027834 4.25431e-06 2.49033e-06
0.0278405 -2.85982e-07 1.44446e-06
0.027845 -2.13919e-06 8.21236e-07
0.0278481 -2.63851e-06 4.58371e-07
0.0278502 -2.5137e-06 2.51185e-07
0.0278517 -2.14721e-06 1.34944e-07
0.0278526 -1.72772e-06 7.08199e-08
0.0278533 -1.33955e-06 3.60651e-08
0.0278538 -1.01321e-06 1.76023e-08
0.0278541 -7.53346e-07 8.03593e-09
0.0278543 -5.53416e-07 3.24616e-09
0.0278545 -4.03204e-07 9.71326e-10
0.0278546 -2.92319e-07 -1.04764e-11
0.0278547 -2.11656e-07 -3.4721e-10
0.0278547 -1.53837e-07 -3.75789e-10
0.0278548 -1.13194e-07 -2.71971e-10
0.0278548 -8.55965e-08 -1.35979e-10
0.0278548 -6.83212e-08 -1.57062e-11
0.0278548 -5.98748e-08 1.29594e-10
0.0278549 -6.04682e-08 4.33245e-10
0.0278549 -7.4962e-08 1.29525e-09
0.0278549 -1.12208e-07 1.97172e-09
0.027855 -1.78392e-07 -8.39171e-10
0.027855 -2.75827e-07 -2.68199e-08
0.0278551 -3.94192e-07 -1.58072e-07
0.0278551 -4.55852e-07 -2.66211e-07
0.018 -1.94273e-06 -1.71528e-06
0.0180027 -0.00679 -0.00188014
0.0205178 -0.0182489 -0.00489843
0.0203434 -0.0238905 -0.00639278
0.0159033 -0.0260851 -0.00742915
-1.46945e-06 -0.0136628 -0.00405575
9.78076e-05 2.86098e-05 8.3479e-07
-3.51112e-05 3.67086e-05 0.000557174
0.00693025 0.00453977 0.00118563
0.0144106 0.0104085 0.00109832
0.0178611 0.0113717 0.000665635
0.0195013 0.0100405 0.000121598
0.0211803 0.00775389 -0.000263162
0.0229462 0.00530954 -0.000362402
0.0245423 0.00340117 -0.00028042
0.0258197 0.00210944 -0.000147579
0.0267453 0.00128832 -3.88891e-05
0.0273711 0.000772737 2.22853e-05
0.0277791 0.000448402 4.3709e-05
0.0280417 0.000247093 4.27226e-05
0.0282099 0.00012635 3.33259e-05
0.0283173 5.7414e-05 2.30913e-05
0.0283853 2.04199e-05 1.48667e-05
0.028428 2.13659e-06 9.10386e-06
0.0284545 -5.78217e-06 5.37326e-06
0.0284708 -8.31893e-06 3.08024e-06
0.0284808 -8.29509e-06 1.72213e-06
0.0284869 -7.22346e-06 9.40411e-07
0.0284906 -5.86399e-06 5.01041e-07
0.0284928 -4.56396e-06 2.59349e-07
0.0284942 -3.45599e-06 1.29226e-07
0.028495 -2.56831e-06 6.08261e-08
0.0284955 -1.8835e-06 2.59286e-08
0.0284959 -1.36822e-06 8.85072e-09
0.0284961 -9.87158e-07 1.02777e-09
0.0284962 -7.08882e-07 -2.13568e-09
0.0284963 -5.07621e-07 -3.05617e-09
0.0284963 -3.63248e-07 -2.97216e-09
0.0284963 -2.60531e-07 -2.4951e-09
0.0284964 -1.88229e-07 -1.91134e-09
0.0284964 -1.38254e-07 -1.34789e-09
0.0284964 -1.04979e-07 -8.46746e-10
0.0284964 -8.48273e-08 -3.95878e-10
0.0284964 -7.64891e-08 -3.44588e-11
0.0284964 -8.06338e-08 5.11e-11
0.0284964 -9.76767e-08 -6.54559e-10
0.0284964 -1.26132e-07 -4.39134e-09
0.0284964 -1.61091e-07 -1.43237e-08
0.0284964 -1.99227e-07 -5.17732e-08
0.0284964 -2.36104e-07 -1.83887e-07
0.0284962 -2.53042e-07 -2.85424e-07
0.0196 -2.68625e-06 -2.60836e-06
0.0196009 -0.00557479 -0.00273064
0.0190978 -0.0124956 -0.00642884
0.0161043 -0.015306 -0.00674269
0.0111552 -0.0141925 -0.00671309
0.00195851 -0.00581005 -0.00482616
7.34757e-05 -6.7542e-05 -0.00115504
3.24308e-05 -3.24308e-05 -4.02064e-08
-3.43378e-05 3.58847e-05 0.000190866
0.00445877 0.00335691 0.000395804
0.0102853 0.00776057 0.000324691
0.013145 0.00777099 1.58037e-05
0.0163723 0.0054076 -0.000301795
0.0195505 0.0030965 -0.000394374
0.0223055 0.00152614 -0.000340964
0.0244751 0.000654606 -0.000218833
0.0260227 0.000242185 -9.22215e-05
0.0270385 6.12407e-05 -6.01919e-06
0.0276715 -1.89715e-05 3.22383e-05
0.028056 -5.32678e-05 3.8771e-05
0.0282866 -6.33774e-05 3.1714e-05
0.0284234 -6.04608e-05 2.1946e-05
0.0285037 -5.16166e-05 1.38017e-05
0.0285502 -4.12008e-05 8.15374e-06
0.0285767 -3.14853e-05 4.60276e-06
0.0285917 -2.33747e-05 2.50347e-06
0.0286 -1.70212e-05 1.31513e-06
0.0286045 -1.22361e-05 6.65079e-07
0.0286069 -8.72205e-06 3.2018e-07
0.0286082 -6.18331e-06 1.42856e-07
0.0286088 -4.36852e-06 5.50847e-08
0.0286091 -3.08003e-06 1.3912e-08
0.0286092 -2.16915e-06 -3.73434e-09
0.0286093 -1.52695e-06 -9.96627e-09
0.0286093 -1.07496e-06 -1.09864e-08
0.0286093 -7.57248e-07 -9.87466e-09
0.0286093 -5.34197e-07 -8.09455e-09
0.0286093 -3.77904e-07 -6.29254e-09
0.0286093 -2.68783e-07 -4.7151e-09
0.0286092 -1.93162e-07 -3.4234e-09
0.0286092 -1.41593e-07 -2.41168e-09
0.0286092 -1.07748e-07 -1.67723e-09
0.0286092 -8.75366e-08 -1.25957e-09
0.0286092 -7.79767e-08 -1.41501e-09
0.0286092 -7.6158e-08 -2.70205e-09
0.0286092 -7.86635e-08 -5.55724e-09
0.0286092 -8.15638e-08 -1.17458e-08
0.0286091 -7.86458e-08 -2.35416e-08
0.0286091 -6.09066e-08 -6.24699e-08
0.028609 -2.23389e-08 -1.90759e-07
0.0286088 2.44619e-09 -2.87601e-07
0.0196 -1.28662e-06 -3.54714e-06
0.0196 -0.00347624 -0.00308508
0.0189315 -0.0074719 -0.00646992
0.0176752 -0.00724938 -0.0062115
0.0135642 -0.00345862 -0.00568037
0.0095577 0.00306758 -0.00502881
0.0063041 0.00327376 -0.00269827
7.35706e-05 -6.15134e-05 -0.00052688
2.71756e-05 -2.71756e-05 -1.28412e-07
-3.35447e-05 3.51309e-05 5.99522e-05
0.00334079 0.0026425 0.00033469
0.00796881 0.0040588 0.000334372
0.0133412 0.00160401 -2.45171e-05
0.0179883 -0.000330317 -0.000253308
0.0216126 -0.00127407 -0.000356726
0.0242753 -0.00144592 -0.000325216
0.0260708 -0.00120216 -0.000205733
0.0271701 -0.00086382 -8.74863e-05
0.0277954 -0.00058463 -1.71365e-05
0.0281362 -0.000389384 1.00557e-05
0.0283171 -0.00025883 1.4609e-05
0.0284113 -0.000171797 1.14264e-05
0.028459 -0.000113688 7.25061e-06
0.0284823 -7.50253e-05 4.09942e-06
0.0284931 -4.946e-05 2.13319e-06
0.0284977 -3.26474e-05 1.02692e-06
0.0284993 -2.16218e-05 4.47907e-07
0.0284995 -1.43897e-05 1.63723e-07
0.0284992 -9.6322e-06 3.42579e-08
0.0284987 -6.48741e-06 -1.82999e-08
0.0284982 -4.3961e-06 -3.48105e-08
0.0284977 -2.99623e-06 -3.57547e-08
0.0284974 -2.05298e-06 -3.09191e-08
0.0284971 -1.41346e-06 -2.47013e-08
0.0284969 -9.77434e-07 -1.88884e-08
0.0284968 -6.78754e-07 -1.40628e-08
0.0284967 -4.73427e-07 -1.02886e-08
0.0284966 -3.31997e-07 -7.43613e-09
0.0284966 -2.34621e-07 -5.32767e-09
0.0284965 -1.67883e-07 -3.80332e-09
0.0284965 -1.22655e-07 -2.7596e-09
0.0284965 -9.25729e-08 -2.1847e-09
0.0284964 -7.29074e-08 -2.16892e-09
0.0284964 -5.97836e-08 -2.93854e-09
0.0284964 -4.95586e-08 -4.81977e-09
0.0284964 -3.8183e-08 -7.86928e-09
0.0284963 -2.06273e-08 -1.37597e-08
0.0284963 1.18691e-08 -2.4727e-08
0.0284962 7.71029e-08 -5.96211e-08
0.0284962 1.88858e-07 -1.81665e-07
0.0284961 2.5686e-07 -2.7571e-07
0.018 -8.29925e-07 -3.49796e-06
0.0180009 -0.00182656 -0.00301281
0.0184085 -0.00333996 -0.00612873
0.0186172 -0.00188238 -0.00545051
0.0177976 0.00137694 -0.0044512
0.0176441 0.00748284 -0.00389472
0.0183173 0.012671 -0.00261384
0.0113016 0.00693325 -0.00120247
7.51987e-05 -4.7828e-05 -0.000362998
-2.66678e-05 -5.52345e-05 5.54436e-07
7.68054e-06 -0.000343137 0.000778197
0.00899737 -0.00233789 0.00122102
0.0167776 -0.00450621 0.000695284
0.0217937 -0.00491079 0.000323841
0.0246971 -0.00443493 -1.95205e-05
0.0263371 -0.00352353 -0.000239208
0.0272412 -0.00247761 -0.000264156
0.0276946 -0.00158538 -0.000181062
0.0278865 -0.000964607 -9.43809e-05
0.0279463 -0.000577869 -4.12617e-05
0.0279493 -0.000346552 -1.62039e-05
0.0279332 -0.000209036 -6.11452e-06
0.0279141 -0.000126953 -2.42349e-06
0.0278976 -7.77104e-05 -1.11947e-06
0.0278849 -4.80165e-05 -6.31194e-07
0.0278758 -2.99935e-05 -4.11514e-07
0.0278693 -1.89604e-05 -2.85807e-07
0.0278648 -1.21352e-05 -2.01163e-07
0.0278618 -7.86244e-06 -1.40733e-07
0.0278596 -5.15367e-06 -9.74409e-08
0.0278582 -3.4145e-06 -6.6862e-08
0.0278572 -2.28415e-06 -4.56038e-08
0.0278565 -1.5411e-06 -3.10116e-08
0.027856 -1.04761e-06 -2.10797e-08
0.0278556 -7.16919e-07 -1.4351e-08
0.0278554 -4.93653e-07 -9.79986e-09
0.0278552 -3.4202e-07 -6.72147e-09
0.0278551 -2.3862e-07 -4.64023e-09
0.027855 -1.67976e-07 -3.24278e-09
0.027855 -1.19701e-07 -2.33546e-09
0.0278549 -8.66648e-08 -1.82318e-09
0.0278549 -6.37734e-08 -1.68949e-09
0.0278549 -4.71249e-08 -1.96757e-09
0.0278548 -3.33439e-08 -2.79133e-09
0.0278548 -1.89566e-08 -4.39022e-09
0.0278548 4.04528e-10 -6.69353e-09
0.0278548 3.0768e-08 -1.12402e-08
0.0278548 8.23845e-08 -1.97833e-08
0.0278547 1.81574e-07 -4.5339e-08
0.0278548 3.51901e-07 -1.55342e-07
0.0278547 4.55873e-07 -2.45096e-07
0.0148 -4.72045e-07 -3.07629e-06
0.0148015 -0.000895363 -0.00278621
0.0163506 -0.00121469 -0.00543032
0.0181847 0.000619078 -0.00450569
0.0198716 0.00379019 -0.00338405
0.0218671 0.00760054 -0.00296024
0.0256211 0.0128636 -0.00226396
0.0288264 0.0196672 -0.00129314
0.0235876 0.0115529 -0.000210101
0.0239933 2.86848e-11 0.000655565
0.02728 -0.00675704 0.00154661
0.0313385 -0.013362 0.00213214
0.03259 -0.0115291 0.00184937
0.0319121 -0.00829801 0.00142168
0.030394 -0.00562947 0.00070257
0.0288137 -0.00369962 1.93188e-05
0.0275711 -0.00230778 -0.000298148
0.0267308 -0.00135339 -0.000299086
0.0262021 -0.00076099 -0.000192967
0.0258791 -0.000422199 -0.000101388
0.025684 -0.000235796 -4.78481e-05
0.0255667 -0.00013382 -2.13717e-05
0.0254962 -7.74354e-05 -9.31346e-06
0.0254537 -4.57277e-05 -4.03659e-06
0.0254279 -2.75521e-05 -1.7626e-06
0.025412 -1.69235e-05 -7.81725e-07
0.0254021 -1.0583e-05 -3.53115e-07
0.0253959 -6.72707e-06 -1.61807e-07
0.0253919 -4.33927e-06 -7.42784e-08
0.0253894 -2.83573e-06 -3.33396e-08
0.0253877 -1.87455e-06 -1.39604e-08
0.0253865 -1.25167e-06 -4.84402e-09
0.0253858 -8.43138e-07 -7.09411e-10
0.0253853 -5.72344e-07 9.95731e-10
0.0253849 -3.91218e-07 1.53582e-09
0.0253847 -2.69151e-07 1.5437e-09
0.0253845 -1.86388e-07 1.33279e-09
0.0253844 -1.30009e-07 1.05127e-09
0.0253843 -9.14394e-08 7.6035e-10
0.0253843 -6.48789e-08 4.74216e-10
0.0253842 -4.62746e-08 1.76432e-10
0.0253842 -3.26228e-08 -1.74018e-10
0.0253842 -2.1449e-08 -6.3426e-10
0.0253842 -1.03503e-08 -1.32398e-09
0.0253841 3.42433e-09 -2.42181e-09
0.0253841 2.36543e-08 -3.81909e-09
0.0253841 5.63914e-08 -6.55268e-09
0.0253842 1.1076e-07 -1.17998e-08
0.0253842 2.12733e-07 -2.72102e-08
0.0253843 3.882e-07 -1.19486e-07
0.0253845 4.95657e-07 -1.99616e-07
0.01 -9.10771e-07 -2.75914e-06
0.0100007 -0.000555458 -0.00228753
0.0114951 -0.000483528 -0.0042083
0.0137398 0.000868802 -0.00315071