# vtk DataFile Version 2.0
Tobias Weinzierl: CPU, Manycore and Cluster Computing
ASCII

DATASET STRUCTURED_POINTS
DIMENSIONS  51 11 6

ORIGIN 0 0 0 

SPACING 0.1 0.1 0.1 

POINT_DATA 3366

VECTORS velocity float
0 0 0
5.33748e-11 0 0
-9.13989e-07 0 0
-1.30896e-06 0 0
-1.33726e-06 0 0
-1.14856e-06 0 0
-1.41658e-06 0 0
-1.44687e-06 0 0
-1.36709e-06 0 0
-1.27359e-06 0 0
-1.23293e-06 0 0
-1.23096e-06 0 0
-1.24743e-06 0 0
-1.27051e-06 0 0
-1.2942e-06 0 0
-1.31551e-06 0 0
-1.33327e-06 0 0
-1.34739e-06 0 0
-1.35829e-06 0 0
-1.36656e-06 0 0
-1.37275e-06 0 0
-1.37735e-06 0 0
-1.38076e-06 0 0
-1.38329e-06 0 0
-1.38516e-06 0 0
-1.38654e-06 0 0
-1.38756e-06 0 0
-1.38831e-06 0 0
-1.38887e-06 0 0
-1.38929e-06 0 0
-1.3896e-06 0 0
-1.38982e-06 0 0
-1.39e-06 0 0
-1.39012e-06 0 0
-1.39022e-06 0 0
-1.39029e-06 0 0
-1.39034e-06 0 0
-1.39038e-06 0 0
-1.39042e-06 0 0
-1.39044e-06 0 0
-1.39046e-06 0 0
-1.39048e-06 0 0
-1.39049e-06 0 0
-1.3905e-06 0 0
-1.39052e-06 0 0
-1.39054e-06 0 0
-1.39057e-06 0 0
-1.39063e-06 0 0
-1.39076e-06 0 0
-1.39103e-06 0 0
0.00563867 0 0
0 4.92909e-07 0
1.2206e-10 6.44673e-07 0
-1.58709e-06 1.01915e-06 0
-1.92383e-06 4.56498e-07 0
-1.74792e-06 -5.50431e-08 0
-9.63856e-07 1.20886e-07 0
-1.60046e-06 2.69702e-07 0
-1.58258e-06 -7.84329e-08 0
-1.41511e-06 -1.81339e-07 0
-1.2954e-06 -1.25818e-07 0
-1.3439e-06 -3.1556e-08 0
-1.45028e-06 2.27867e-08 0
-1.55064e-06 4.45273e-08 0
-1.63469e-06 4.945e-08 0
-1.70225e-06 4.63746e-08 0
-1.75466e-06 3.97809e-08 0
-1.7942e-06 3.22845e-08 0
-1.82347e-06 2.5276e-08 0
-1.84491e-06 1.93329e-08 0
-1.86053e-06 1.4569e-08 0
-1.87191e-06 1.08784e-08 0
-1.8802e-06 8.0785e-09 0
-1.88626e-06 5.98109e-09 0
-1.89069e-06 4.42151e-09 0
-1.89395e-06 3.26658e-09 0
-1.89635e-06 2.41305e-09 0
-1.89811e-06 1.78278e-09 0
-1.89942e-06 1.31743e-09 0
-1.90039e-06 9.73782e-10 0
-1.90111e-06 7.19922e-10 0
-1.90164e-06 5.32324e-10 0
-1.90204e-06 3.93647e-10 0
-1.90233e-06 2.91107e-10 0
-1.90256e-06 2.15273e-10 0
-1.90272e-06 1.59186e-10 0
-1.90285e-06 1.17705e-10 0
-1.90294e-06 8.70401e-11 0
-1.90302e-06 6.43993e-11 0
-1.90307e-06 4.77427e-11 0
-1.90312e-06 3.56061e-11 0
-1.90315e-06 2.69907e-11 0
-1.90318e-06 2.1316e-11 0
-1.90321e-06 1.845e-11 0
-1.90323e-06 1.88659e-11 0
-1.90325e-06 2.40483e-11 0
-1.90328e-06 3.74976e-11 0
-1.90331e-06 6.7168e-11 0
-1.90339e-06 1.2975e-10 0
-1.90354e-06 2.50534e-10 0
-1.90386e-06 5.33483e-10 0
0.0119255 -1.59134e-06 0
0 -2.80639e-08 0
3.59617e-10 8.07058e-07 0
-1.55157e-06 1.26035e-06 0
-1.2355e-06 5.07063e-07 0
-9.91735e-07 -5.46438e-07 0
-1.34965e-06 1.01099e-08 0
-1.30546e-06 5.5079e-07 0
-1.45084e-06 -2.50219e-07 0
2.41231e-08 -2.83508e-07 0
2.19045e-08 -1.65131e-08 0
-1.89599e-07 2.00669e-07 0
-4.25367e-07 2.34979e-07 0
-5.91559e-07 1.99743e-07 0
-7.05716e-07 1.59259e-07 0
-7.85578e-07 1.23584e-07 0
-8.40935e-07 9.36167e-08 0
-8.78938e-07 6.95875e-08 0
-9.05002e-07 5.1099e-08 0
-9.22992e-07 3.72821e-08 0
-9.35542e-07 2.71378e-08 0
-9.44402e-07 1.97586e-08 0
-9.50729e-07 1.44099e-08 0
-9.55291e-07 1.05335e-08 0
-9.58609e-07 7.7188e-09 0
-9.61037e-07 5.66938e-09 0
-9.62824e-07 4.17256e-09 0
-9.64143e-07 3.07612e-09 0
-9.6512e-07 2.27086e-09 0
-9.65846e-07 1.67813e-09 0
-9.66385e-07 1.24107e-09 0
-9.66788e-07 9.18332e-10 0
-9.67088e-07 6.79766e-10 0
-9.67313e-07 5.03278e-10 0
-9.67483e-07 3.7264e-10 0
-9.6761e-07 2.75903e-10 0
-9.67707e-07 2.04255e-10 0
-9.67782e-07 1.51191e-10 0
-9.6784e-07 1.11916e-10 0
-9.67885e-07 8.29065e-11 0
-9.67922e-07 6.16075e-11 0
-9.67951e-07 4.62244e-11 0
-9.67975e-07 3.56073e-11 0
-9.67994e-07 2.92262e-11 0
-9.68009e-07 2.7246e-11 0
-9.6802e-07 3.06845e-11 0
-9.68029e-07 4.1486e-11 0
-9.68039e-07 6.21546e-11 0
-9.68061e-07 9.81971e-11 0
-9.68119e-07 1.79037e-10 0
-9.68217e-07 3.38386e-10 0
0.0125925 -1.28485e-06 0
0 -6.18499e-07 0
8.50455e-10 6.972e-07 0
-1.9236e-06 1.1174e-06 0
-1.06487e-06 6.60965e-07 0
-7.53065e-07 6.6693e-07 0
-1.53436e-06 4.26306e-07 0
-1.12148e-06 2.60536e-10 0
-1.31513e-06 -1.65007e-06 0
-1.60422e-06 -1.68953e-06 0
-6.89697e-07 1.93016e-07 0
-5.39842e-07 5.01746e-07 0
-5.9073e-07 4.70797e-07 0
-6.74101e-07 3.47461e-07 0
-7.44562e-07 2.53556e-07 0
-7.96033e-07 1.85593e-07 0
-8.30825e-07 1.34482e-07 0
-8.53876e-07 9.6667e-08 0
-8.69349e-07 6.9312e-08 0
-8.80009e-07 4.97825e-08 0
-8.87549e-07 3.58962e-08 0
-8.92999e-07 2.60057e-08 0
-8.96999e-07 1.89282e-08 0
-8.99963e-07 1.38344e-08 0
-9.02172e-07 1.01471e-08 0
-9.03824e-07 7.46382e-09 0
-9.05061e-07 5.50238e-09 0
-9.05988e-07 4.06331e-09 0
-9.06683e-07 3.00439e-09 0
-9.07204e-07 2.22344e-09 0
-9.07594e-07 1.64651e-09 0
-9.07887e-07 1.21978e-09 0
-9.08107e-07 9.03851e-10 0
-9.08272e-07 6.6981e-10 0
-9.08398e-07 4.96355e-10 0
-9.08493e-07 3.67763e-10 0
-9.08566e-07 2.72411e-10 0
-9.08623e-07 2.01698e-10 0
-9.08668e-07 1.49261e-10 0
-9.08703e-07 1.10399e-10 0
-9.08732e-07 8.16628e-11 0
-9.08756e-07 6.05581e-11 0
-9.08775e-07 4.53543e-11 0
-9.0879e-07 3.49765e-11 0
-9.088e-07 2.89807e-11 0
-9.08806e-07 2.76575e-11 0
-9.08808e-07 3.25223e-11 0
-9.08809e-07 4.78974e-11 0
-9.08825e-07 8.20313e-11 0
-9.08882e-07 1.43261e-10 0
-9.08978e-07 2.3407e-10 0
0.0126115 -8.58975e-07 0
0 -1.03537e-06 0
1.25286e-09 3.78406e-07 0
-2.37799e-06 5.1955e-07 0
-1.32056e-06 3.87653e-07 0
-6.07562e-07 5.79188e-07 0
-6.00565e-11 3.32789e-07 0
-7.1854e-10 -8.69221e-10 0
6.25929e-10 -1.20535e-09 0
-1.67635e-06 -1.02811e-06 0
-1.76662e-06 -1.07651e-06 0
-9.89617e-07 1.5137e-07 0
-8.88593e-07 4.08348e-07 0
-8.70358e-07 3.74356e-07 0
-8.78044e-07 2.8962e-07 0
-8.8546e-07 2.12135e-07 0
-8.89559e-07 1.514e-07 0
-8.92156e-07 1.07441e-07 0
-8.94315e-07 7.6579e-08 0
-8.96335e-07 5.50046e-08 0
-8.98219e-07 3.98189e-08 0
-8.99909e-07 2.90198e-08 0
-9.01364e-07 2.12618e-08 0
-9.02577e-07 1.564e-08 0
-9.03562e-07 1.1538e-08 0
-9.04345e-07 8.52929e-09 0
-9.04959e-07 6.31402e-09 0
-9.05434e-07 4.6785e-09 0
-9.058e-07 3.46869e-09 0
-9.0608e-07 2.57262e-09 0
-9.06293e-07 1.90836e-09 0
-9.06455e-07 1.41568e-09 0
-9.06578e-07 1.05013e-09 0
-9.06672e-07 7.78866e-10 0
-9.06744e-07 5.77547e-10 0
-9.068e-07 4.2813e-10 0
-9.06844e-07 3.17226e-10 0
-9.06879e-07 2.34892e-10 0
-9.06908e-07 1.73746e-10 0
-9.06932e-07 1.2831e-10 0
-9.06952e-07 9.452e-11 0
-9.06969e-07 6.93821e-11 0
-9.06983e-07 5.0724e-11 0
-9.06994e-07 3.7052e-11 0
-9.07001e-07 2.75281e-11 0
-9.07004e-07 2.21194e-11 0
-9.07003e-07 2.19228e-11 0
-9.07e-07 2.93929e-11 0
-9.07005e-07 4.81602e-11 0
-9.07039e-07 7.9267e-11 0
-9.07113e-07 1.20525e-10 0
0.0126117 -4.29445e-07 0
0 -8.54047e-07 0
1.64521e-09 1.70467e-07 0
-2.72676e-06 2.8332e-07 0
-1.76727e-06 1.19929e-07 0
-1.05649e-06 -2.10819e-09 0
-5.2316e-07 -9.15906e-09 0
-8.74612e-10 7.97723e-10 0
-1.75927e-10 1.75927e-10 0
5.94218e-10 -6.54786e-10 0
-1.03321e-06 -5.68623e-07 0
-1.09884e-06 -3.91644e-07 0
-1.14621e-06 3.71199e-07 0
-1.08672e-06 3.5279e-07 0
-1.02358e-06 2.74099e-07 0
-9.75774e-07 1.97161e-07 0
-9.45518e-07 1.39613e-07 0
-9.27934e-07 9.9836e-08 0
-9.18077e-07 7.23227e-08 0
-9.12662e-07 5.29354e-08 0
-9.09736e-07 3.90221e-08 0
-9.08188e-07 2.88963e-08 0
-9.07392e-07 2.14552e-08 0
-9.07e-07 1.5953e-08 0
-9.06821e-07 1.18693e-08 0
-9.06753e-07 8.83227e-09 0
-9.06738e-07 6.5715e-09 0
-9.06748e-07 4.88805e-09 0
-9.06768e-07 3.63458e-09 0
-9.06791e-07 2.70151e-09 0
-9.06812e-07 2.0072e-09 0
-9.06832e-07 1.49077e-09 0
-9.06849e-07 1.10679e-09 0
-9.06865e-07 8.21397e-10 0
-9.06878e-07 6.09347e-10 0
-9.0689e-07 4.51825e-10 0
-9.06902e-07 3.34819e-10 0
-9.06913e-07 2.47893e-10 0
-9.06924e-07 1.83271e-10 0
-9.06934e-07 1.35159e-10 0
-9.06945e-07 9.92287e-11 0
-9.06955e-07 7.22401e-11 0
-9.06964e-07 5.17635e-11 0
-9.06971e-07 3.59881e-11 0
-9.06976e-07 2.36172e-11 0
-9.06977e-07 1.38508e-11 0
-9.06973e-07 6.4427e-12 0
-9.06966e-07 1.69994e-12 0
-9.06964e-07 6.31022e-14 0
-9.06988e-07 3.23672e-13 0
-9.07055e-07 2.77919e-13 0
0.0126116 1.40797e-10 0
0 -5.46351e-07 0
1.8119e-09 -4.79396e-08 0
-2.71983e-06 -2.91791e-08 0
-1.76597e-06 -2.21122e-08 0
-1.26155e-06 -6.18103e-08 0
-9.68132e-07 -5.27459e-07 0
-7.92713e-07 -5.06485e-07 0
-1.04606e-09 5.43338e-10 0
4.51475e-11 -4.51475e-11 0
7.66652e-10 -4.21162e-10 0
-5.70436e-07 2.51856e-07 0
-1.63006e-06 4.13251e-07 0
-1.36618e-06 2.70007e-07 0
-1.13782e-06 1.8497e-07 0
-1.02919e-06 1.34028e-07 0
-9.76344e-07 1.01716e-07 0
-9.48728e-07 7.82326e-08 0
-9.33364e-07 6.00731e-08 0
-9.24332e-07 4.59131e-08 0
-9.18756e-07 3.49236e-08 0
-9.15165e-07 2.64502e-08 0
-9.12769e-07 1.99578e-08 0
-9.11123e-07 1.50111e-08 0
-9.09968e-07 1.12603e-08 0
-9.09145e-07 8.4281e-09 0
-9.08552e-07 6.29676e-09 0
-9.08121e-07 4.69737e-09 0
-9.07807e-07 3.49993e-09 0
-9.07577e-07 2.6051e-09 0
-9.07409e-07 1.93741e-09 0
-9.07286e-07 1.43982e-09 0
-9.07197e-07 1.06936e-09 0
-9.07132e-07 7.93773e-10 0
-9.07087e-07 5.88888e-10 0
-9.07055e-07 4.36634e-10 0
-9.07033e-07 3.23513e-10 0
-9.0702e-07 2.39452e-10 0
-9.07013e-07 1.76933e-10 0
-9.0701e-07 1.30335e-10 0
-9.0701e-07 9.54373e-11 0
-9.07013e-07 6.90361e-11 0
-9.07018e-07 4.86483e-11 0
-9.07022e-07 3.22651e-11 0
-9.07025e-07 1.81394e-11 0
-9.07026e-07 4.59058e-12 0
-9.07023e-07 -1.01547e-11 0
-9.07018e-07 -2.80074e-11 0
-9.07018e-07 -5.09375e-11 0
-9.07046e-07 -8.11198e-11 0
-9.07116e-07 -1.20939e-10 0
0.0126117 4.29693e-07 0
0 -3.58605e-07 0
1.46101e-09 -2.49504e-07 0
-2.47532e-06 -3.16128e-07 0
-1.67933e-06 -1.21794e-07 0
-1.27476e-06 -1.97568e-07 0
-1.09395e-06 -2.6409e-07 0
-1.27885e-06 -9.00354e-07 0
-9.7946e-07 -7.7874e-07 0
-1.14135e-09 -5.86997e-11 0
1.21099e-09 -4.24837e-10 0
3.27844e-10 1.22259e-06 0
-2.31687e-06 1.18241e-06 0
-1.60196e-06 -9.33188e-08 0
-1.15184e-06 -4.04926e-08 0
-1.01783e-06 4.18677e-08 0
-9.7325e-07 5.96908e-08 0
-9.52946e-07 5.61632e-08 0
-9.40976e-07 4.7267e-08 0
-9.32819e-07 3.79122e-08 0
-9.26874e-07 2.96336e-08 0
-9.2242e-07 2.28028e-08 0
-9.19049e-07 1.7368e-08 0
-9.16492e-07 1.31359e-08 0
-9.14555e-07 9.88564e-09 0
-9.13092e-07 7.41258e-09 0
-9.1199e-07 5.54321e-09 0
-9.11163e-07 4.1368e-09 0
-9.10544e-07 3.08238e-09 0
-9.10082e-07 2.29388e-09 0
-9.09738e-07 1.70542e-09 0
-9.09483e-07 1.26689e-09 0
-9.09294e-07 9.40495e-10 0
-9.09156e-07 6.97774e-10 0
-9.09054e-07 5.17402e-10 0
-9.08981e-07 3.83428e-10 0
-9.08929e-07 2.83937e-10 0
-9.08893e-07 2.10038e-10 0
-9.08868e-07 1.55094e-10 0
-9.08853e-07 1.14137e-10 0
-9.08845e-07 8.34246e-11 0
-9.08841e-07 6.00864e-11 0
-9.08841e-07 4.18326e-11 0
-9.08843e-07 2.6679e-11 0
-9.08846e-07 1.26415e-11 0
-9.08848e-07 -2.64812e-12 0
-9.0885e-07 -2.24077e-11 0
-9.08854e-07 -5.10293e-11 0
-9.08868e-07 -9.36003e-11 0
-9.08914e-07 -1.54347e-10 0
-9.08999e-07 -2.38488e-10 0
0.0126115 8.59071e-07 0
0 -3.59448e-07 0
8.92429e-10 -3.82313e-07 0
-2.06705e-06 -5.01977e-07 0
-1.54967e-06 -1.59593e-07 0
-1.26879e-06 -7.61556e-08 0
-1.29976e-06 -2.72037e-07 0
-1.45457e-06 -5.14504e-07 0
-2.16858e-06 -1.24826e-06 0
-2.06078e-06 -9.69502e-07 0
-1.26697e-06 -6.47324e-12 0
-6.22853e-07 2.46243e-06 0
-1.95441e-07 1.94898e-06 0
-6.67085e-07 -8.24958e-07 0
-9.06108e-07 -3.58046e-07 0
-9.85101e-07 -3.0445e-08 0
-1.0067e-06 4.08043e-08 0
-1.00872e-06 4.69116e-08 0
-1.00426e-06 4.01241e-08 0
-9.9811e-07 3.18301e-08 0
-9.92092e-07 2.4527e-08 0
-9.86843e-07 1.8632e-08 0
-9.82517e-07 1.40393e-08 0
-9.79065e-07 1.05251e-08 0
-9.76368e-07 7.86425e-09 0
-9.7429e-07 5.86259e-09 0
-9.72705e-07 4.36331e-09 0
-9.71506e-07 3.24359e-09 0
-9.70603e-07 2.40903e-09 0
-9.69926e-07 1.78793e-09 0
-9.69421e-07 1.32619e-09 0
-9.69045e-07 9.83216e-10 0
-9.68766e-07 7.28624e-10 0
-9.6856e-07 5.39736e-10 0
-9.68408e-07 3.9965e-10 0
-9.68298e-07 2.95783e-10 0
-9.68218e-07 2.18774e-10 0
-9.68161e-07 1.61658e-10 0
-9.68122e-07 1.1925e-10 0
-9.68096e-07 8.76758e-11 0
-9.68079e-07 6.40172e-11 0
-9.6807e-07 4.60263e-11 0
-9.68066e-07 3.18797e-11 0
-9.68066e-07 1.99263e-11 0
-9.68068e-07 8.36149e-12 0
-9.68074e-07 -5.28657e-12 0
-9.68083e-07 -2.50209e-11 0
-9.68101e-07 -5.76491e-11 0
-9.68142e-07 -1.13523e-10 0
-9.68228e-07 -2.04136e-10 0
-9.68357e-07 -3.50766e-10 0
0.0125924 1.2844e-06 0
0 -4.87601e-07 0
4.73857e-10 -3.62299e-07 0
-1.944e-06 -4.63622e-07 0
-1.96609e-06 -1.26402e-07 0
-1.91142e-06 2.16987e-08 0
-1.8848e-06 2.10946e-07 0
-2.01499e-06 1.72135e-07 0
-2.14864e-06 -1.21491e-07 0
-3.08966e-06 -1.08065e-06 0
-3.27873e-06 -1.79228e-06 0
-3.52239e-06 -2.0546e-07 0
-1.19244e-06 1.09934e-06 0
-1.71267e-06 6.8193e-07 0
-2.00831e-06 3.2189e-07 0
-2.04528e-06 1.58811e-07 0
-2.02521e-06 8.83567e-08 0
-1.99915e-06 5.51012e-08 0
-1.97659e-06 3.69471e-08 0
-1.95867e-06 2.57453e-08 0
-1.94485e-06 1.83022e-08 0
-1.93434e-06 1.31595e-08 0
-1.92641e-06 9.53098e-09 0
-1.92046e-06 6.93851e-09 0
-1.91602e-06 5.07055e-09 0
-1.9127e-06 3.71622e-09 0
-1.91024e-06 2.72958e-09 0
-1.9084e-06 2.00816e-09 0
-1.90704e-06 1.47917e-09 0
-1.90604e-06 1.09046e-09 0
-1.90529e-06 8.04377e-10 0
-1.90474e-06 5.93579e-10 0
-1.90433e-06 4.38125e-10 0
-1.90403e-06 3.23416e-10 0
-1.90381e-06 2.38735e-10 0
-1.90365e-06 1.76199e-10 0
-1.90354e-06 1.29998e-10 0
-1.90345e-06 9.5843e-11 0
-1.90339e-06 7.0563e-11 0
-1.90335e-06 5.1801e-11 0
-1.90333e-06 3.77907e-11 0
-1.90331e-06 2.71774e-11 0
-1.9033e-06 1.88626e-11 0
-1.9033e-06 1.1845e-11 0
-1.9033e-06 4.998e-12 0
-1.9033e-06 -3.33261e-12 0
-1.90332e-06 -1.6203e-11 0
-1.90335e-06 -4.02123e-11 0
-1.90343e-06 -9.02952e-11 0
-1.90359e-06 -1.99196e-10 0
-1.90391e-06 -5.09011e-10 0
0.0119255 1.58916e-06 0
0 0 0
1.82419e-10 0 0
-1.02633e-06 0 0
-1.22072e-06 0 0
-1.27675e-06 0 0
-1.23395e-06 0 0
-1.04659e-06 0 0
-9.59262e-07 0 0
-1.02948e-06 0 0
-2.01132e-06 0 0
-2.89921e-06 0 0
-2.3261e-06 0 0
-1.88347e-06 0 0
-1.66478e-06 0 0
-1.55763e-06 0 0
-1.50042e-06 0 0
-1.46629e-06 0 0
-1.44414e-06 0 0
-1.42901e-06 0 0
-1.41838e-06 0 0
-1.41079e-06 0 0
-1.40532e-06 0 0
-1.40135e-06 0 0
-1.39846e-06 0 0
-1.39635e-06 0 0
-1.39479e-06 0 0
-1.39365e-06 0 0
-1.39282e-06 0 0
-1.3922e-06 0 0
-1.39175e-06 0 0
-1.39141e-06 0 0
-1.39117e-06 0 0
-1.39099e-06 0 0
-1.39085e-06 0 0
-1.39076e-06 0 0
-1.39069e-06 0 0
-1.39064e-06 0 0
-1.3906e-06 0 0
-1.39058e-06 0 0
-1.39056e-06 0 0
-1.39055e-06 0 0
-1.39054e-06 0 0
-1.39054e-06 0 0
-1.39054e-06 0 0
-1.39054e-06 0 0
-1.39055e-06 0 0
-1.39057e-06 0 0
-1.39062e-06 0 0
-1.39073e-06 0 0
-1.39097e-06 0 0
0.00563875 0 0
0 0 3.72127e-07
2.42259e-10 0 2.69439e-07
-1.68508e-06 0 2.89942e-07
-1.98292e-06 0 -3.31974e-08
-1.6541e-06 0 -1.05342e-07
-8.77191e-07 0 -4.15406e-08
-1.27445e-06 0 2.86528e-08
-1.28661e-06 0 2.90139e-08
-1.21978e-06 0 8.1308e-09
-1.19217e-06 0 -8.29363e-09
-1.26898e-06 0 -1.10474e-08
-1.38791e-06 0 -8.26982e-09
-1.50447e-06 0 -4.96971e-09
-1.60296e-06 0 -2.67109e-09
-1.68114e-06 0 -1.36703e-09
-1.74087e-06 0 -7.07118e-10
-1.78531e-06 0 -3.9048e-10
-1.81781e-06 0 -2.37302e-10
-1.84133e-06 0 -1.57685e-10
-1.85829e-06 0 -1.11278e-10
-1.87051e-06 0 -8.10225e-11
-1.87932e-06 0 -5.97415e-11
-1.8857e-06 0 -4.41894e-11
-1.89034e-06 0 -3.26603e-11
-1.89373e-06 0 -2.40898e-11
-1.89621e-06 0 -1.77296e-11
-1.89803e-06 0 -1.30236e-11
-1.89937e-06 0 -9.55128e-12
-1.90036e-06 0 -6.9954e-12
-1.9011e-06 0 -5.11759e-12
-1.90164e-06 0 -3.74e-12
-1.90205e-06 0 -2.73067e-12
-1.90235e-06 0 -1.99211e-12
-1.90258e-06 0 -1.45265e-12
-1.90275e-06 0 -1.05994e-12
-1.90287e-06 0 -7.76213e-13
-1.90297e-06 0 -5.74935e-13
-1.90305e-06 0 -4.38768e-13
-1.9031e-06 0 -3.5855e-13
-1.90315e-06 0 -3.33096e-13
-1.90319e-06 0 -3.68684e-13
-1.90322e-06 0 -4.73958e-13
-1.90324e-06 0 -6.35584e-13
-1.90327e-06 0 -7.26917e-13
-1.90329e-06 0 -2.00658e-13
-1.90332e-06 0 2.87489e-12
-1.90337e-06 0 1.4515e-11
-1.90346e-06 0 5.00217e-11
-1.90363e-06 0 1.35318e-10
-1.90395e-06 0 3.74301e-10
0.0119255 0 -1.19187e-06
0.0036 7.35031e-07 3.86168e-07
0.00359867 -0.00526079 -0.00267735
0.0144409 -0.00971254 -0.0042813
0.0242283 -0.00868459 -0.00248457
0.0338939 -0.00810182 -0.00137041
0.0444142 -0.00493754 -0.000703938
0.0460463 -0.000721736 -0.000319807
0.0455283 0.00226261 -0.000159908
0.0402055 0.00405159 -9.53577e-05
0.0352725 0.00392653 -6.51777e-05
0.0314087 0.00308794 -3.79295e-05
0.0287637 0.00215394 -2.06109e-05
0.0271044 0.00138179 -1.08052e-05
0.0261279 0.000829426 -5.52076e-06
0.0255869 0.00046805 -2.7794e-06
0.0253076 0.000246547 -1.39887e-06
0.0251771 0.000118192 -7.14446e-07
0.0251268 4.78798e-05 -3.74949e-07
0.0251166 1.18435e-05 -2.03897e-07
0.0251246 -4.92867e-06 -1.15329e-07
0.0251393 -1.14252e-05 -6.78517e-08
0.025155 -1.27887e-05 -4.14213e-08
0.0251692 -1.18343e-05 -2.61403e-08
0.0251811 -1.00287e-05 -1.69825e-08
0.0251906 -8.08717e-06 -1.131e-08
0.0251981 -6.32266e-06 -7.69065e-09
0.0252037 -4.84276e-06 -5.32015e-09
0.025208 -3.65724e-06 -3.73226e-09
0.0252112 -2.73457e-06 -2.64824e-09
0.0252135 -2.0301e-06 -1.89656e-09
0.0252153 -1.49931e-06 -1.36879e-09
0.0252166 -1.10311e-06 -9.94696e-10
0.0252175 -8.09341e-07 -7.27869e-10
0.0252182 -5.92606e-07 -5.3723e-10
0.0252187 -4.33295e-07 -4.01997e-10
0.0252191 -3.1654e-07 -3.08778e-10
0.0252193 -2.31206e-07 -2.50155e-10
0.0252195 -1.69046e-07 -2.24604e-10
0.0252197 -1.24026e-07 -2.38025e-10
0.0252198 -9.18305e-08 -3.07912e-10
0.0252199 -6.95289e-08 -4.72781e-10
0.0252199 -5.54249e-08 -8.13831e-10
0.02522 -4.91374e-08 -1.50907e-09
0.02522 -5.20572e-08 -2.98389e-09
0.0252201 -6.85376e-08 -6.37566e-09
0.0252202 -1.08777e-07 -1.5106e-08
0.0252203 -1.96542e-07 -4.07622e-08
0.0252206 -3.95325e-07 -1.2804e-07
0.0252211 -9.16988e-07 -4.6714e-07
0.0252221 -2.33619e-06 -1.63115e-06
0.0252239 -3.37319e-06 -2.5245e-06
0.01 6.96858e-07 4.85966e-07
0.0100005 -0.00830827 -0.00477576
0.0180372 -0.0163417 -0.00736994
0.0259674 -0.0166447 -0.00384494
0.0351803 -0.0185135 -0.00188503
0.0525402 -0.0112106 -0.000804135
0.0518012 -0.000615573 -0.00025135
0.0523238 0.00610903 -0.000118139
0.0421649 0.0104009 -8.71531e-05
0.0353998 0.00887767 -8.25152e-05
0.0312752 0.00655228 -4.90706e-05
0.0288379 0.00432719 -2.48784e-05
0.0275361 0.00264774 -1.23514e-05
0.026887 0.0015236 -5.91622e-06
0.0265919 0.000823475 -2.72496e-06
0.0264793 0.000411438 -1.21687e-06
0.0264544 0.000181673 -5.32421e-07
0.0264676 6.09697e-05 -2.30692e-07
0.0264941 2.37026e-06 -1.00079e-07
0.0265224 -2.25679e-05 -4.40071e-08
0.0265478 -3.02777e-05 -1.9906e-08
0.0265689 -2.98527e-05 -9.42533e-09
0.0265857 -2.61026e-05 -4.75677e-09
0.0265986 -2.14325e-05 -2.59406e-09
0.0266084 -1.69475e-05 -1.53441e-09
0.0266157 -1.3079e-05 -9.76996e-10
0.0266212 -9.92891e-06 -6.59841e-10
0.0266252 -7.45155e-06 -4.65332e-10
0.0266282 -5.54684e-06 -3.38365e-10
0.0266304 -4.10473e-06 -2.51598e-10
0.026632 -3.02452e-06 -1.90494e-10
0.0266332 -2.22156e-06 -1.4678e-10
0.026634 -1.62801e-06 -1.15513e-10
0.0266346 -1.19103e-06 -9.37701e-11
0.0266351 -8.70325e-07 -8.01354e-11
0.0266354 -6.35543e-07 -7.46754e-11
0.0266357 -4.64071e-07 -7.93942e-11
0.0266358 -3.39216e-07 -9.93617e-11
0.026636 -2.48791e-07 -1.45038e-10
0.0266361 -1.84081e-07 -2.36958e-10
0.0266361 -1.39149e-07 -4.15538e-10
0.0266362 -1.10502e-07 -7.63254e-10
0.0266362 -9.71979e-08 -1.46034e-09
0.0266363 -1.0165e-07 -2.9413e-09
0.0266363 -1.31706e-07 -6.38258e-09
0.0266364 -2.05327e-07 -1.53666e-08
0.0266364 -3.60324e-07 -4.21301e-08
0.0266366 -6.68121e-07 -1.33987e-07
0.0266368 -1.22051e-06 -4.93107e-07
0.0266369 -2.14604e-06 -1.72498e-06
0.0266367 -2.72309e-06 -2.66977e-06
0.0148 -6.00172e-07 1.13335e-06
0.014802 -0.00909314 -0.00653662
0.0199898 -0.0186907 -0.0101027
0.0241374 -0.0215431 -0.00518602
0.0262791 -0.0323411 -0.0024271
0.0280835 -0.020413 -0.00085954
0.0269548 -9.96551e-06 -7.80193e-05
0.0276992 0.0121719 -3.95109e-05
0.0331688 0.0211209 -3.20477e-05
0.0297669 0.0148999 -3.75646e-05
0.0273122 0.00969463 -3.44406e-05
0.0261637 0.00591631 -2.14583e-05
0.0258276 0.00334475 -1.10958e-05
0.0258631 0.00177985 -5.03767e-06
0.0260183 0.000878858 -2.02544e-06
0.026184 0.000385528 -7.13065e-07
0.0263221 0.000130598 -2.01851e-07
0.0264263 8.61197e-06 -2.71587e-08
0.0265012 -4.2724e-05 2.00011e-08
0.0265539 -5.85497e-05 2.47602e-08
0.0265907 -5.78803e-05 1.86154e-08
0.0266162 -5.05708e-05 1.17703e-08
0.0266341 -4.146e-05 6.71778e-09
0.0266467 -3.27334e-05 3.51432e-09
0.0266555 -2.52275e-05 1.65365e-09
0.0266618 -1.91301e-05 6.44003e-10
0.0266663 -1.43444e-05 1.33433e-10
0.0266695 -1.06705e-05 -1.00668e-10
0.0266718 -7.89222e-06 -1.89615e-10
0.0266735 -5.81303e-06 -2.07155e-10
0.0266747 -4.26854e-06 -1.92987e-10
0.0266756 -3.12737e-06 -1.67573e-10
0.0266762 -2.2875e-06 -1.40961e-10
0.0266767 -1.67118e-06 -1.1788e-10
0.026677 -1.21991e-06 -1.00692e-10
0.0266772 -8.90091e-07 -9.12353e-11
0.0266774 -6.49471e-07 -9.22681e-11
0.0266775 -4.74335e-07 -1.09124e-10
0.0266776 -3.47401e-07 -1.52317e-10
0.0266777 -2.56264e-07 -2.42411e-10
0.0266778 -1.92335e-07 -4.20027e-10
0.0266778 -1.50233e-07 -7.6845e-10
0.0266778 -1.27669e-07 -1.47054e-09
0.0266778 -1.25964e-07 -2.96898e-09
0.0266778 -1.51395e-07 -6.46486e-09
0.0266778 -2.17464e-07 -1.56126e-08
0.0266778 -3.47312e-07 -4.28453e-08
0.0266778 -5.75454e-07 -1.35886e-07
0.0266776 -9.49823e-07 -4.96644e-07
0.0266774 -1.50046e-06 -1.7294e-06
0.026677 -1.82066e-06 -2.67426e-06
0.018 -1.83199e-06 1.10409e-06
0.0180014 -0.007846 -0.0078035
0.0206565 -0.016169 -0.0121341
0.0208579 -0.017068 -0.00618269
0.0159343 -0.0193008 -0.00280074
-1.93205e-07 -0.0105622 -0.000947468
0.000123397 5.67434e-05 8.15526e-08
-5.83283e-05 6.42534e-05 -6.46108e-06
0.0121772 0.0084242 -1.06136e-06
0.0211439 0.0147892 5.35532e-06
0.0216436 0.0101886 -7.78091e-06
0.0224946 0.0058306 -1.37399e-05
0.0236595 0.00295855 -8.80105e-06
0.0246602 0.00133818 -3.73725e-06
0.0253898 0.000505232 -1.18181e-06
0.0258764 0.000109008 -1.96588e-07
0.0261849 -6.00077e-05 9.32588e-08
0.0263752 -0.000117848 1.32015e-07
0.0264911 -0.000125103 1.01705e-07
0.0265615 -0.000111918 6.46775e-08
0.0266044 -9.25537e-05 3.69434e-08
0.0266308 -7.32851e-05 1.93701e-08
0.0266473 -5.65105e-05 9.21694e-09
0.0266578 -4.28343e-05 3.73963e-09
0.0266646 -3.20947e-05 9.80051e-10
0.026669 -2.38559e-05 -2.87914e-10
0.026672 -1.76321e-05 -7.78917e-10
0.026674 -1.29792e-05 -8.89537e-10
0.0266754 -9.52606e-06 -8.30815e-10
0.0266763 -6.97662e-06 -7.10106e-10
0.026677 -5.10141e-06 -5.78831e-10
0.0266775 -3.72588e-06 -4.59299e-10
0.0266778 -2.71892e-06 -3.59377e-10
0.0266781 -1.98289e-06 -2.80342e-10
0.0266782 -1.44551e-06 -2.21064e-10
0.0266784 -1.05357e-06 -1.80339e-10
0.0266785 -7.67999e-07 -1.58497e-10
0.0266785 -5.60213e-07 -1.59083e-10
0.0266786 -4.09415e-07 -1.91502e-10
0.0266786 -3.00587e-07 -2.7599e-10
0.0266786 -2.23085e-07 -4.53946e-10
0.0266787 -1.69705e-07 -8.11243e-10
0.0266787 -1.36171e-07 -1.53656e-09
0.0266787 -1.21004e-07 -3.08387e-09
0.0266786 -1.25771e-07 -6.67256e-09
0.0266786 -1.55644e-07 -1.59712e-08
0.0266785 -2.20147e-07 -4.33589e-08
0.0266783 -3.33367e-07 -1.36378e-07
0.0266781 -5.14185e-07 -4.97077e-07
0.0266778 -7.67204e-07 -1.72958e-06
0.0266773 -9.10337e-07 -2.67415e-06
0.0196 -1.81995e-06 4.42062e-07
0.0196003 -0.00501979 -0.00846105
0.0209718 -0.0100836 -0.0131867
0.0197249 -0.00970719 -0.00665502
0.0147005 -0.00774752 -0.00287552
0.00445329 -0.00310596 -0.00118909
9.80672e-05 -9.11684e-05 -0.00024345
3.284e-05 -3.284e-05 -2.95467e-08
-5.61822e-05 6.04745e-05 -2.93236e-06
0.00842418 0.00545615 -1.53087e-06
0.0147954 0.00836142 -3.63705e-06
0.018422 0.00391321 -1.08965e-05
0.0215915 0.00118708 -8.58228e-06
0.0237205 5.38801e-05 -3.60536e-06
0.0250112 -0.000335222 -1.02271e-06
0.0257542 -0.000408509 -7.95172e-08
0.0261708 -0.000367655 1.50501e-07
0.0264013 -0.000297293 1.47819e-07
0.0265278 -0.000228851 9.74804e-08
0.0265969 -0.000171781 5.38629e-08
0.0266345 -0.000127202 2.5821e-08
0.0266549 -9.34844e-05 1.01316e-08
0.026666 -6.84141e-05 2.20813e-09
0.0266719 -4.99477e-05 -1.35102e-09
0.0266752 -3.64167e-05 -2.64276e-09
0.0266769 -2.65312e-05 -2.84594e-09
0.0266778 -1.93211e-05 -2.58333e-09
0.0266783 -1.40671e-05 -2.16566e-09
0.0266785 -1.02405e-05 -1.73709e-09
0.0266786 -7.45431e-06 -1.35669e-09
0.0266787 -5.42598e-06 -1.04218e-09
0.0266787 -3.94948e-06 -7.92647e-10
0.0266787 -2.87476e-06 -6.00032e-10
0.0266787 -2.09251e-06 -4.54636e-10
0.0266787 -1.52318e-06 -3.47738e-10
0.0266787 -1.10885e-06 -2.72883e-10
0.0266787 -8.0737e-07 -2.26791e-10
0.0266787 -5.88074e-07 -2.10627e-10
0.0266787 -4.28652e-07 -2.32411e-10
0.0266787 -3.12888e-07 -3.11952e-10
0.0266787 -2.29006e-07 -4.91301e-10
0.0266787 -1.68457e-07 -8.5831e-10
0.0266787 -1.25013e-07 -1.60501e-09
0.0266787 -9.40576e-08 -3.18883e-09
0.0266786 -7.19623e-08 -6.82727e-09
0.0266786 -5.55302e-08 -1.61691e-08
0.0266785 -4.16613e-08 -4.35448e-08
0.0266783 -2.78751e-08 -1.36423e-07
0.026678 -1.47861e-08 -4.96994e-07
0.0266776 -4.26574e-09 -1.72946e-06
0.0266772 2.72383e-10 -2.67402e-06
0.0196 -1.18753e-06 -2.82471e-07
0.0196003 -0.00192815 -0.00847595
0.02129 -0.00382159 -0.0131928
0.0209658 -0.00310223 -0.00664963
0.0179414 -0.000197578 -0.00281967
0.0136419 0.00581852 -0.00135579
0.00864739 0.00480849 -0.000594089
9.86034e-05 -8.37333e-05 -0.000125521
2.75511e-05 -2.75511e-05 -1.81021e-08
-5.44533e-05 5.79112e-05 -1.17838e-06
0.00545431 0.000200804 -1.48716e-06
0.014464 -0.000956204 -1.15575e-05
0.0205219 -0.00233301 -1.73198e-05
0.0236546 -0.00207745 -8.24804e-06
0.0252071 -0.0015263 -2.81746e-06
0.0259738 -0.00104955 -7.96191e-07
0.0263514 -0.000706601 -1.87229e-07
0.0265359 -0.000474554 -3.61505e-08
0.0266243 -0.000320569 -9.97566e-09
0.026665 -0.000218565 -1.01347e-08
0.0266824 -0.000150553 -1.22791e-08
0.0266887 -0.000104738 -1.24481e-08
0.0266899 -7.35157e-05 -1.11392e-08
0.0266889 -5.19956e-05 -9.25181e-09
0.0266873 -3.70077e-05 -7.34656e-09
0.0266855 -2.64747e-05 -5.67435e-09
0.026684 -1.90161e-05 -4.30737e-09
0.0266827 -1.3702e-05 -3.23405e-09
0.0266817 -9.89696e-06 -2.41155e-09
0.026681 -7.16197e-06 -1.79084e-09
0.0266804 -5.19015e-06 -1.3271e-09
0.0266799 -3.76528e-06 -9.83106e-10
0.0266796 -2.73381e-06 -7.29515e-10
0.0266794 -1.98613e-06 -5.44023e-10
0.0266792 -1.44362e-06 -4.10346e-10
0.0266791 -1.04966e-06 -3.17432e-10
0.026679 -7.63374e-07 -2.59206e-10
0.0266789 -5.55172e-07 -2.35176e-10
0.0266788 -4.03531e-07 -2.525e-10
0.0266788 -2.92702e-07 -3.30768e-10
0.0266788 -2.10983e-07 -5.12414e-10
0.0266788 -1.49365e-07 -8.86248e-10
0.0266787 -1.00358e-07 -1.64557e-09
0.0266787 -5.68187e-08 -3.2484e-09
0.0266787 -1.05659e-08 -6.90938e-09
0.0266786 4.9314e-08 -1.62645e-08
0.0266785 1.38239e-07 -4.36107e-08
0.0266784 2.76403e-07 -1.36367e-07
0.0266781 4.82973e-07 -4.96775e-07
0.0266778 7.58061e-07 -1.72929e-06
0.0266773 9.10865e-07 -2.67397e-06
0.018 -8.11853e-07 -7.71726e-07
0.0180009 0.000590186 -0.00790623
0.0209125 0.00101479 -0.0122624
0.0222708 0.00130564 -0.00617711
0.0217666 0.00332105 -0.00265355
0.0212084 0.00812154 -0.00126654
0.022006 0.0145048 -0.000664226
0.0140493 0.00882242 -0.000295349
0.00010062 -6.68469e-05 -6.4028e-05
-4.71912e-05 -7.19786e-05 4.44713e-07
6.18801e-06 -0.00610453 2.78449e-05
0.0146387 -0.0111463 1.05945e-05
0.0223301 -0.00799485 -2.7464e-05
0.0251755 -0.00462589 -1.44246e-05
0.0262107 -0.00265154 -5.37239e-06
0.026596 -0.00155146 -1.91431e-06
0.0267319 -0.000929163 -7.26092e-07
0.0267695 -0.000569821 -3.09891e-07
0.0267693 -0.000357788 -1.51227e-07
0.0267565 -0.000229827 -8.26303e-08
0.026741 -0.000150803 -4.87855e-08
0.0267269 -0.000100866 -3.0228e-08
0.0267151 -6.86038e-05 -1.93183e-08
0.0267057 -4.73274e-05 -1.26251e-08
0.0266986 -3.30343e-05 -8.40372e-09
0.0266932 -2.32771e-05 -5.68558e-09
0.0266891 -1.65258e-05 -3.90382e-09
0.0266861 -1.18019e-05 -2.71635e-09
0.0266839 -8.46687e-06 -1.91263e-09
0.0266823 -6.09558e-06 -1.36094e-09
0.0266811 -4.40016e-06 -9.77564e-10
0.0266802 -3.18274e-06 -7.08519e-10
0.0266796 -2.30568e-06 -5.18486e-10
0.0266791 -1.67223e-06 -3.84211e-10
0.0266788 -1.21383e-06 -2.90558e-10
0.0266786 -8.81591e-07 -2.28316e-10
0.0266784 -6.40438e-07 -1.933e-10
0.0266782 -4.65071e-07 -1.86695e-10
0.0266781 -3.37105e-07 -2.17044e-10
0.0266781 -2.42997e-07 -3.05021e-10
0.026678 -1.7247e-07 -4.93855e-10
0.026678 -1.17217e-07 -8.72893e-10
0.026678 -6.96488e-08 -1.63578e-09
0.0266779 -2.14391e-08 -3.24096e-09
0.0266779 3.84836e-08 -6.90396e-09
0.0266779 1.26968e-07 -1.62604e-08
0.0266778 2.71159e-07 -4.35888e-08
0.0266778 5.13684e-07 -1.36217e-07
0.0266777 9.10387e-07 -4.96228e-07
0.0266774 1.48785e-06 -1.72869e-06
0.026677 1.82112e-06 -2.6736e-06
0.0148 -7.3962e-07 -1.13613e-06
0.0148014 0.00199364 -0.00685276
0.0195949 0.00350555 -0.0105718
0.0228537 0.00314108 -0.00533253
0.0246057 0.00435984 -0.00237641
0.0263213 0.00737086 -0.00117407
0.0295638 0.0129433 -0.000632236
0.0345445 0.022423 -0.000321959
0.0297868 0.0141206 -6.41657e-05
0.0305117 1.44467e-10 8.57972e-05
0.0328462 -0.0144345 8.47971e-05
0.0312257 -0.0232746 1.78471e-05
0.0294505 -0.0128581 -2.76417e-05
0.028435 -0.00595042 -1.52366e-05
0.0278214 -0.00294292 -5.9281e-06
0.0274274 -0.00156884 -2.2137e-06
0.0271691 -0.000879107 -8.5385e-07
0.0269985 -0.000511452 -3.4419e-07
0.0268849 -0.000307321 -1.4303e-07
0.0268087 -0.000190168 -5.93398e-08
0.0267569 -0.000120885 -2.31591e-08
0.0267213 -7.87319e-05 -7.31875e-09
0.0266967 -5.2385e-05 -5.64917e-10
0.0266794 -3.54985e-05 2.04599e-09
0.0266672 -2.44258e-05 2.78384e-09
0.0266585 -1.70178e-05 2.71658e-09
0.0266524 -1.19757e-05 2.34734e-09
0.0266479 -8.49411e-06 1.90675e-09
0.0266447 -6.06179e-06 1.49316e-09
0.0266424 -4.3465e-06 1.14163e-09
0.0266407 -3.12788e-06 8.58121e-10
0.0266395 -2.25713e-06 6.36408e-10
0.0266386 -1.63217e-06 4.66102e-10
0.026638 -1.18209e-06 3.36232e-10
0.0266375 -8.5709e-07 2.3652e-10
0.0266372 -6.21897e-07 1.5743e-10
0.026637 -4.51337e-07 8.94201e-11
0.0266368 -3.27305e-07 2.13543e-11
0.0266367 -2.36639e-07 -6.23514e-11
0.0266366 -1.69584e-07 -1.87079e-10
0.0266365 -1.186e-07 -3.98749e-10
0.0266364 -7.73331e-08 -7.87499e-10
0.0266364 -3.95342e-08 -1.54601e-09
0.0266364 2.36385e-09 -3.13061e-09
0.0266364 5.94831e-08 -6.75649e-09
0.0266364 1.50546e-07 -1.60651e-08
0.0266364 3.09886e-07 -4.33272e-08
0.0266365 6.03929e-07 -1.3564e-07
0.0266367 1.15842e-06 -4.93958e-07
0.0266368 2.12209e-06 -1.72393e-06
0.0266365 2.72331e-06 -2.66777e-06
0.01 -1.12085e-06 -1.6287e-06
0.0100003 0.00180621 -0.00544209
0.0170067 0.00306554 -0.00831494
0.0217682 0.00244953 -0.00419557
0.0251096 0.00296971 -0.00197292
0.0287485 0.0047936 -0.00101595