# vtk DataFile Version 2.0
Tobias Weinzierl: CPU, Manycore and Cluster Computing
ASCII

DATASET STRUCTURED_POINTS
DIMENSIONS  51 11 6

ORIGIN 0 0 0 

SPACING 0.1 0.1 0.1 

POINT_DATA 3366

VECTORS velocity float
0 0 0
9.69861e-12 0 0
9.79724e-09 0 0
-7.0827e-09 0 0
-6.73537e-08 0 0
-2.48809e-08 0 0
-1.71595e-08 0 0
-1.63984e-08 0 0
-1.1026e-08 0 0
-3.45438e-09 0 0
-1.90243e-09 0 0
-1.09786e-08 0 0
-2.57651e-08 0 0
-3.76809e-08 0 0
-4.25768e-08 0 0
-4.2404e-08 0 0
-4.09708e-08 0 0
-4.04583e-08 0 0
-4.11477e-08 0 0
-4.24964e-08 0 0
-4.3944e-08 0 0
-4.51739e-08 0 0
-4.60853e-08 0 0
-4.66978e-08 0 0
-4.70764e-08 0 0
-4.72906e-08 0 0
-4.73982e-08 0 0
-4.74414e-08 0 0
-4.74485e-08 0 0
-4.74374e-08 0 0
-4.74187e-08 0 0
-4.73981e-08 0 0
-4.73785e-08 0 0
-4.73611e-08 0 0
-4.73463e-08 0 0
-4.73339e-08 0 0
-4.73237e-08 0 0
-4.73154e-08 0 0
-4.73085e-08 0 0
-4.73028e-08 0 0
-4.7298e-08 0 0
-4.7294e-08 0 0
-4.72905e-08 0 0
-4.72875e-08 0 0
-4.72849e-08 0 0
-4.7283e-08 0 0
-4.72817e-08 0 0
-4.72812e-08 0 0
-4.72814e-08 0 0
-4.72842e-08 0 0
0.00211461 0 0
0 3.87177e-07 0
1.54322e-11 -1.05834e-08 0
1.82509e-08 -1.49014e-08 0
-4.60218e-09 5.48085e-09 0
-9.036e-08 -1.63613e-08 0
-2.13036e-08 -1.53976e-08 0
-2.085e-08 3.76525e-08 0
-3.304e-08 4.76193e-08 0
-3.17746e-08 3.26735e-08 0
-2.16443e-08 1.96656e-08 0
-1.63344e-08 1.76868e-08 0
-2.68943e-08 2.23769e-08 0
-4.90688e-08 2.26054e-08 0
-6.82283e-08 1.51461e-08 0
-7.63349e-08 5.86245e-09 0
-7.73397e-08 4.77103e-10 0
-7.81742e-08 -5.37908e-10 0
-8.17804e-08 4.36082e-10 0
-8.74858e-08 1.45842e-09 0
-9.36094e-08 1.87171e-09 0
-9.89428e-08 1.76509e-09 0
-1.0301e-07 1.40692e-09 0
-1.05829e-07 1.00092e-09 0
-1.07639e-07 6.49533e-10 0
-1.0872e-07 3.84988e-10 0
-1.09315e-07 2.03842e-10 0
-1.09607e-07 8.92873e-11 0
-1.09721e-07 2.25324e-11 0
-1.0974e-07 -1.2504e-11 0
-1.09712e-07 -2.79231e-11 0
-1.09664e-07 -3.20952e-11 0
-1.09613e-07 -3.04316e-11 0
-1.09565e-07 -2.6212e-11 0
-1.09523e-07 -2.12858e-11 0
-1.09487e-07 -1.65991e-11 0
-1.09458e-07 -1.25612e-11 0
-1.09435e-07 -9.28387e-12 0
-1.09415e-07 -6.72883e-12 0
-1.094e-07 -4.79391e-12 0
-1.09387e-07 -3.35964e-12 0
-1.09377e-07 -2.31243e-12 0
-1.09368e-07 -1.55451e-12 0
-1.09361e-07 -1.00499e-12 0
-1.09355e-07 -5.97069e-13 0
-1.09349e-07 -2.81956e-13 0
-1.09346e-07 -1.21843e-14 0
-1.09343e-07 3.00353e-13 0
-1.09343e-07 7.42263e-13 0
-1.09345e-07 2.19216e-12 0
-1.09353e-07 7.76106e-12 0
0.0059924 -6.95233e-08 0
0 -2.18681e-08 0
1.27359e-11 -9.0345e-09 0
2.59716e-08 -2.83663e-08 0
3.32129e-08 -5.35695e-08 0
3.28147e-10 -1.14182e-07 0
6.06877e-08 -8.62697e-08 0
2.28125e-08 1.17666e-08 0
-2.31253e-08 3.11466e-08 0
-5.26996e-08 2.3491e-08 0
-4.94033e-08 1.96613e-08 0
-3.73767e-08 1.56271e-08 0
-3.77557e-08 1.06402e-08 0
-5.34798e-08 9.33916e-09 0
-6.92938e-08 1.31291e-08 0
-7.44531e-08 1.86255e-08 0
-7.27185e-08 2.20565e-08 0
-7.15914e-08 2.22038e-08 0
-7.42702e-08 1.98401e-08 0
-7.98749e-08 1.62023e-08 0
-8.62919e-08 1.2293e-08 0
-9.19537e-08 8.75171e-09 0
-9.62163e-08 5.88195e-09 0
-9.90792e-08 3.73991e-09 0
-1.00826e-07 2.24221e-09 0
-1.01793e-07 1.25234e-09 0
-1.02263e-07 6.32135e-10 0
-1.02442e-07 2.65066e-10 0
-1.02464e-07 6.23987e-11 0
-1.02412e-07 -3.88257e-11 0
-1.02332e-07 -8.08432e-11 0
-1.02249e-07 -9.06087e-11 0
-1.02173e-07 -8.44905e-11 0
-1.02108e-07 -7.18961e-11 0
-1.02055e-07 -5.78712e-11 0
-1.02012e-07 -4.48581e-11 0
-1.01978e-07 -3.38275e-11 0
-1.01951e-07 -2.49734e-11 0
-1.0193e-07 -1.81213e-11 0
-1.01913e-07 -1.29541e-11 0
-1.019e-07 -9.12914e-12 0
-1.01889e-07 -6.33153e-12 0
-1.0188e-07 -4.29426e-12 0
-1.01872e-07 -2.79945e-12 0
-1.01865e-07 -1.66194e-12 0
-1.0186e-07 -7.09783e-13 0
-1.01857e-07 2.26527e-13 0
-1.01855e-07 1.54415e-12 0
-1.01856e-07 4.1957e-12 0
-1.01858e-07 8.75516e-12 0
-1.01865e-07 1.48804e-11 0
0.00839575 -1.34873e-07 0
0 -6.31085e-07 0
1.64223e-11 -1.47392e-08 0
3.27579e-08 -5.04109e-08 0
5.02378e-08 -9.66772e-08 0
8.09625e-09 -1.30783e-07 0
5.71078e-08 -6.97962e-08 0
2.65123e-08 -2.06224e-11 0
-6.48137e-09 -7.16395e-09 0
-5.88066e-08 -2.80036e-08 0
-6.59201e-08 -4.77259e-08 0
-5.72025e-08 -5.34886e-08 0
-6.45922e-08 -4.14587e-08 0
-8.4549e-08 -1.20528e-08 0
-1.00465e-07 1.82684e-08 0
-1.01217e-07 3.54264e-08 0
-9.0502e-08 3.89306e-08 0
-7.71505e-08 3.48704e-08 0
-6.73575e-08 2.83555e-08 0
-6.25834e-08 2.16823e-08 0
-6.13672e-08 1.5661e-08 0
-6.17457e-08 1.06462e-08 0
-6.24331e-08 6.77796e-09 0
-6.28974e-08 4.00638e-09 0
-6.30509e-08 2.15367e-09 0
-6.2976e-08 9.96349e-10 0
-6.27804e-08 3.24471e-10 0
-6.25455e-08 -3.10827e-11 0
-6.23189e-08 -1.93541e-10 0
-6.21225e-08 -2.46183e-10 0
-6.19626e-08 -2.41807e-10 0
-6.18373e-08 -2.11879e-10 0
-6.17413e-08 -1.73909e-10 0
-6.16685e-08 -1.36792e-10 0
-6.16136e-08 -1.04414e-10 0
-6.1572e-08 -7.79361e-11 0
-6.15404e-08 -5.71682e-11 0
-6.15159e-08 -4.13454e-11 0
-6.14969e-08 -2.95433e-11 0
-6.14818e-08 -2.08778e-11 0
-6.14697e-08 -1.45862e-11 0
-6.14597e-08 -1.00461e-11 0
-6.14514e-08 -6.76225e-12 0
-6.14443e-08 -4.34128e-12 0
-6.14383e-08 -2.46502e-12 0
-6.14334e-08 -8.11328e-13 0
-6.14298e-08 1.05952e-12 0
-6.14275e-08 3.50477e-12 0
-6.14265e-08 6.40183e-12 0
-6.14256e-08 9.43157e-12 0
-6.14278e-08 1.25325e-11 0
0.00922647 -1.27973e-07 0
0 -1.21733e-06 0
3.00824e-12 -2.57403e-08 0
1.45144e-08 -6.89331e-08 0
1.09238e-08 -8.74626e-08 0
-3.33797e-08 -6.75149e-08 0
-1.18244e-11 -2.32458e-08 0
-2.32468e-11 -3.3531e-11 0
3.93812e-11 -4.05946e-11 0
-2.68532e-08 -2.87997e-08 0
-7.5553e-08 -7.38033e-08 0
-9.01767e-08 -8.39069e-08 0
-1.00496e-07 -5.73882e-08 0
-1.1732e-07 -1.24957e-08 0
-1.28416e-07 2.56741e-08 0
-1.27302e-07 4.10894e-08 0
-1.13696e-07 3.85893e-08 0
-9.29981e-08 2.95108e-08 0
-7.31655e-08 2.08864e-08 0
-5.88525e-08 1.42814e-08 0
-5.02066e-08 9.26174e-09 0
-4.5358e-08 5.44464e-09 0
-4.25449e-08 2.69657e-09 0
-4.07334e-08 8.94938e-10 0
-3.94498e-08 -1.5295e-10 0
-3.84999e-08 -6.68093e-10 0
-3.77954e-08 -8.47196e-10 0
-3.72816e-08 -8.38238e-10 0
-3.69144e-08 -7.39681e-10 0
-3.66567e-08 -6.10498e-10 0
-3.6478e-08 -4.82279e-10 0
-3.63546e-08 -3.69475e-10 0
-3.62694e-08 -2.76764e-10 0
-3.62098e-08 -2.03816e-10 0
-3.61675e-08 -1.4811e-10 0
-3.61367e-08 -1.0648e-10 0
-3.61138e-08 -7.58674e-11 0
-3.60961e-08 -5.3634e-11 0
-3.60822e-08 -3.76411e-11 0
-3.60709e-08 -2.62211e-11 0
-3.60615e-08 -1.81046e-11 0
-3.60535e-08 -1.23399e-11 0
-3.60465e-08 -8.21722e-12 0
-3.60404e-08 -5.19194e-12 0
-3.60348e-08 -2.81968e-12 0
-3.603e-08 -7.79826e-13 0
-3.60258e-08 1.03971e-12 0
-3.60223e-08 2.58215e-12 0
-3.60193e-08 3.76942e-12 0
-3.60166e-08 4.76454e-12 0
-3.60173e-08 6.25353e-12 0
0.00946214 -7.02232e-08 0
0 -1.09232e-06 0
-1.21677e-11 -2.70059e-08 0
-2.37411e-09 -5.62278e-08 0
-1.37742e-08 -6.87373e-08 0
-5.32244e-08 -7.89013e-08 0
-3.84069e-08 -3.93902e-08 0
-3.12548e-11 3.42678e-11 0
3.02888e-12 -3.02888e-12 0
3.90583e-11 -3.99383e-11 0
-4.08443e-08 -3.92103e-08 0
-1.00889e-07 -8.65471e-08 0
-1.03681e-07 -6.81982e-08 0
-1.08383e-07 -1.21209e-08 0
-1.16103e-07 3.28424e-08 0
-1.24784e-07 4.72881e-08 0
-1.23118e-07 3.78461e-08 0
-1.06354e-07 2.15924e-08 0
-8.2877e-08 9.27694e-09 0
-6.25059e-08 2.34035e-09 0
-4.87745e-08 -1.21582e-09 0
-4.06262e-08 -2.97968e-09 0
-3.59623e-08 -3.68947e-09 0
-3.32343e-08 -3.7224e-09 0
-3.15759e-08 -3.35719e-09 0
-3.05406e-08 -2.81306e-09 0
-2.98895e-08 -2.23894e-09 0
-2.94827e-08 -1.71749e-09 0
-2.92316e-08 -1.28279e-09 0
-2.90785e-08 -9.39719e-10 0
-2.89859e-08 -6.78745e-10 0
-2.89298e-08 -4.85207e-10 0
-2.88952e-08 -3.44207e-10 0
-2.8873e-08 -2.42761e-10 0
-2.88578e-08 -1.7042e-10 0
-2.88464e-08 -1.19165e-10 0
-2.88373e-08 -8.3024e-11 0
-2.88294e-08 -5.76345e-11 0
-2.88224e-08 -3.98501e-11 0
-2.88159e-08 -2.74189e-11 0
-2.88099e-08 -1.87364e-11 0
-2.88043e-08 -1.26586e-11 0
-2.87988e-08 -8.36789e-12 0
-2.87936e-08 -5.29497e-12 0
-2.87886e-08 -3.07824e-12 0
-2.87838e-08 -1.50682e-12 0
-2.87794e-08 -4.3851e-13 0
-2.87756e-08 2.21231e-13 0
-2.87729e-08 4.62052e-13 0
-2.87708e-08 3.11488e-13 0
-2.87721e-08 3.77549e-13 0
0.00950727 6.39609e-09 0
0 -7.6064e-07 0
-5.95593e-12 -1.93648e-08 0
-3.30449e-09 -4.81054e-08 0
-1.42445e-08 -5.87625e-08 0
-7.00974e-08 -5.31851e-08 0
-9.1061e-08 -2.79678e-08 0
-3.18432e-08 -4.80322e-09 0
-2.78034e-11 4.2467e-11 0
-4.74292e-12 4.74292e-12 0
3.25271e-11 -4.47109e-11 0
-4.49709e-08 -4.77531e-08 0
-6.41776e-08 -6.77113e-08 0
-6.61119e-08 -5.44846e-09 0
-6.94443e-08 4.68534e-08 0
-8.73615e-08 6.08389e-08 0
-1.05095e-07 4.27661e-08 0
-1.03747e-07 1.64735e-08 0
-8.60489e-08 -1.74008e-09 0
-6.57468e-08 -9.93907e-09 0
-5.09909e-08 -1.20393e-08 0
-4.25536e-08 -1.13666e-08 0
-3.83914e-08 -9.63894e-09 0
-3.65476e-08 -7.65878e-09 0
-3.58238e-08 -5.81148e-09 0
-3.5604e-08 -4.26353e-09 0
-3.55956e-08 -3.05301e-09 0
-3.56647e-08 -2.14987e-09 0
-3.57522e-08 -1.49737e-09 0
-3.58337e-08 -1.03595e-09 0
-3.59009e-08 -7.14086e-10 0
-3.59525e-08 -4.91387e-10 0
-3.59901e-08 -3.37956e-10 0
-3.60163e-08 -2.32429e-10 0
-3.60335e-08 -1.59862e-10 0
-3.60439e-08 -1.0993e-10 0
-3.60495e-08 -7.55428e-11 0
-3.60516e-08 -5.1842e-11 0
-3.60513e-08 -3.54976e-11 0
-3.60495e-08 -2.42215e-11 0
-3.60466e-08 -1.64379e-11 0
-3.60431e-08 -1.10637e-11 0
-3.60391e-08 -7.36113e-12 0
-3.60348e-08 -4.83118e-12 0
-3.60303e-08 -3.1351e-12 0
-3.6026e-08 -2.05014e-12 0
-3.60222e-08 -1.44843e-12 0
-3.6019e-08 -1.30131e-12 0
-3.60171e-08 -1.7767e-12 0
-3.60158e-08 -3.18302e-12 0
-3.60177e-08 -5.22229e-12 0
0.00946211 8.05911e-08 0
0 -5.34122e-07 0
6.50343e-13 -1.51321e-08 0
-3.40124e-09 -3.68229e-08 0
-2.19625e-08 -4.41343e-08 0
-7.24011e-08 -3.33843e-08 0
-1.05905e-07 -1.05847e-08 0
-8.07445e-08 -3.67673e-09 0
-3.84811e-08 -4.03204e-09 0
-5.36622e-11 3.27254e-11 0
3.06272e-11 3.13601e-11 0
-4.58555e-12 -2.41635e-08 0
-4.87561e-08 -2.99692e-08 0
-6.37539e-08 1.55607e-08 0
-4.36741e-08 5.68995e-08 0
-3.44939e-08 6.51427e-08 0
-5.28655e-08 4.30018e-08 0
-7.23354e-08 1.30426e-08 0
-7.51958e-08 -7.48342e-09 0
-6.78144e-08 -1.59042e-08 0
-6.04126e-08 -1.67448e-08 0
-5.6645e-08 -1.43607e-08 0
-5.58415e-08 -1.11536e-08 0
-5.64965e-08 -8.16894e-09 0
-5.75842e-08 -5.76246e-09 0
-5.86252e-08 -3.96959e-09 0
-5.94631e-08 -2.69709e-09 0
-6.00852e-08 -1.82031e-09 0
-6.05276e-08 -1.2263e-09 0
-6.08348e-08 -8.27075e-10 0
-6.1045e-08 -5.59345e-10 0
-6.11874e-08 -3.79534e-10 0
-6.12829e-08 -2.58349e-10 0
-6.13462e-08 -1.76325e-10 0
-6.13874e-08 -1.20567e-10 0
-6.14136e-08 -8.25172e-11 0
-6.14296e-08 -5.6473e-11 0
-6.14386e-08 -3.86074e-11 0
-6.1443e-08 -2.63375e-11 0
-6.14442e-08 -1.79098e-11 0
-6.14435e-08 -1.21293e-11 0
-6.14413e-08 -8.17924e-12 0
-6.14383e-08 -5.49966e-12 0
-6.14347e-08 -3.71042e-12 0
-6.14309e-08 -2.56425e-12 0
-6.14271e-08 -1.92063e-12 0
-6.14238e-08 -1.7381e-12 0
-6.14212e-08 -2.06778e-12 0
-6.14199e-08 -3.17398e-12 0
-6.14196e-08 -5.86113e-12 0
-6.14225e-08 -1.06113e-11 0
0.0092264 1.30008e-07 0
0 -4.58694e-07 0
4.1704e-12 -8.89235e-09 0
-5.10698e-09 -2.39734e-08 0
-3.38241e-08 -3.15607e-08 0
-8.57964e-08 -2.41985e-08 0
-1.19493e-07 -2.61624e-10 0
-1.04761e-07 7.82772e-09 0
-8.39423e-08 -2.53499e-08 0
-5.10809e-08 -2.57209e-08 0
-4.31269e-08 -1.05268e-12 0
-5.00855e-08 8.47225e-09 0
-1.03267e-07 2.60776e-08 0
-1.22496e-07 3.64552e-08 0
-7.19978e-08 3.49483e-08 0
-2.04252e-08 2.66815e-08 0
-2.46015e-08 1.47525e-08 0
-5.85306e-08 3.1344e-09 0
-8.20611e-08 -4.81557e-09 0
-8.92735e-08 -8.18953e-09 0
-9.01395e-08 -8.35528e-09 0
-9.08889e-08 -7.08824e-09 0
-9.26278e-08 -5.48726e-09 0
-9.476e-08 -4.03002e-09 0
-9.67192e-08 -2.86615e-09 0
-9.82761e-08 -2.00006e-09 0
-9.94192e-08 -1.38178e-09 0
-1.00222e-07 -9.50665e-10 0
-1.00773e-07 -6.53537e-10 0
-1.01146e-07 -4.49652e-10 0
-1.01397e-07 -3.09791e-10 0
-1.01565e-07 -2.13692e-10 0
-1.01677e-07 -1.47513e-10 0
-1.01751e-07 -1.01838e-10 0
-1.01799e-07 -7.02608e-11 0
-1.0183e-07 -4.84058e-11 0
-1.01849e-07 -3.32748e-11 0
-1.0186e-07 -2.28045e-11 0
-1.01866e-07 -1.55698e-11 0
-1.01868e-07 -1.05841e-11 0
-1.01868e-07 -7.16287e-12 0
-1.01867e-07 -4.83205e-12 0
-1.01864e-07 -3.26629e-12 0
-1.01861e-07 -2.24937e-12 0
-1.01857e-07 -1.64897e-12 0
-1.01854e-07 -1.4001e-12 0
-1.01851e-07 -1.51886e-12 0
-1.01849e-07 -2.12059e-12 0
-1.01848e-07 -3.46933e-12 0
-1.01849e-07 -6.63203e-12 0
-1.01855e-07 -1.29668e-11 0
0.0083957 1.24317e-07 0
0 -4.76995e-07 0
1.09812e-11 -2.94077e-09 0
-7.58956e-09 -9.78085e-09 0
-4.17296e-08 -1.42875e-08 0
-9.01192e-08 -1.15282e-08 0
-1.22013e-07 -5.45385e-09 0
-1.12156e-07 -2.39921e-09 0
-9.56109e-08 -1.44197e-08 0
-1.10425e-07 -1.63984e-08 0
-1.00713e-07 6.15062e-09 0
-9.02879e-08 2.92913e-08 0
-9.10713e-08 4.11679e-08 0
-8.27997e-08 3.20213e-08 0
-4.39791e-08 8.16178e-09 0
-1.58984e-08 -1.49738e-08 0
-3.37626e-08 -2.42949e-08 0
-7.23278e-08 -1.84461e-08 0
-9.76907e-08 -7.41889e-09 0
-1.05458e-07 -1.17407e-10 0
-1.0551e-07 2.15522e-09 0
-1.046e-07 1.83385e-09 0
-1.04559e-07 9.32619e-10 0
-1.05214e-07 2.43816e-10 0
-1.06108e-07 -1.20386e-10 0
-1.06957e-07 -2.56405e-10 0
-1.0765e-07 -2.71598e-10 0
-1.08175e-07 -2.36417e-10 0
-1.08554e-07 -1.87777e-10 0
-1.08822e-07 -1.41812e-10 0
-1.09007e-07 -1.03927e-10 0
-1.09133e-07 -7.47317e-11 0
-1.09219e-07 -5.30603e-11 0
-1.09276e-07 -3.73292e-11 0
-1.09313e-07 -2.60701e-11 0
-1.09336e-07 -1.80885e-11 0
-1.0935e-07 -1.24709e-11 0
-1.09358e-07 -8.54115e-12 0
-1.09361e-07 -5.80856e-12 0
-1.09362e-07 -3.92105e-12 0
-1.09361e-07 -2.62854e-12 0
-1.09359e-07 -1.75538e-12 0
-1.09355e-07 -1.18065e-12 0
-1.09352e-07 -8.25469e-13 0
-1.09348e-07 -6.45154e-13 0
-1.09344e-07 -6.23999e-13 0
-1.09342e-07 -7.88652e-13 0
-1.0934e-07 -1.23049e-12 0
-1.0934e-07 -2.0631e-12 0
-1.09342e-07 -3.76002e-12 0
-1.09351e-07 -7.52794e-12 0
0.00599241 5.55776e-08 0
0 0 0
7.66111e-12 0 0
-4.22785e-09 0 0
-2.0816e-08 0 0
-4.17094e-08 0 0
-5.57617e-08 0 0
-5.62952e-08 0 0
-5.01559e-08 0 0
-5.93561e-08 0 0
-5.75862e-08 0 0
-4.02068e-08 0 0
-1.83193e-08 0 0
-3.38128e-09 0 0
4.38313e-09 0 0
-6.09521e-10 0 0
-1.9073e-08 0 0
-3.85044e-08 0 0
-4.88971e-08 0 0
-5.09519e-08 0 0
-4.95488e-08 0 0
-4.7862e-08 0 0
-4.68514e-08 0 0
-4.64662e-08 0 0
-4.64413e-08 0 0
-4.65691e-08 0 0
-4.67345e-08 0 0
-4.68863e-08 0 0
-4.70085e-08 0 0
-4.71002e-08 0 0
-4.71662e-08 0 0
-4.72123e-08 0 0
-4.72438e-08 0 0
-4.72647e-08 0 0
-4.72782e-08 0 0
-4.72865e-08 0 0
-4.72912e-08 0 0
-4.72934e-08 0 0
-4.72941e-08 0 0
-4.72936e-08 0 0
-4.72925e-08 0 0
-4.72909e-08 0 0
-4.72891e-08 0 0
-4.72871e-08 0 0
-4.72851e-08 0 0
-4.72833e-08 0 0
-4.72818e-08 0 0
-4.7281e-08 0 0
-4.72811e-08 0 0
-4.72824e-08 0 0
-4.7287e-08 0 0
0.00211464 0 0
0 0 5.32313e-07
1.82541e-11 0 7.95789e-10
2.25101e-08 0 2.20059e-08
7.46002e-09 0 7.16876e-08
-1.75397e-07 0 3.41662e-08
-6.85944e-08 0 -3.47995e-08
-3.23409e-08 0 -4.61289e-08
-8.36182e-09 0 -5.37392e-08
1.51044e-08 0 -4.56031e-08
3.92071e-08 0 -2.87763e-08
5.26111e-08 0 -1.01515e-08
4.21351e-08 0 1.49729e-09
1.09522e-08 0 4.10869e-09
-2.45948e-08 0 1.67611e-09
-5.0712e-08 0 -1.13073e-09
-6.5608e-08 0 -2.07586e-09
-7.46547e-08 0 -1.40103e-09
-8.23468e-08 0 -2.52016e-10
-8.99505e-08 0 5.8762e-10
-9.69844e-08 0 9.33597e-10
-1.02799e-07 0 9.22412e-10
-1.07148e-07 0 7.44969e-10
-1.10148e-07 0 5.33694e-10
-1.12077e-07 0 3.51884e-10
-1.13239e-07 0 2.17531e-10
-1.13889e-07 0 1.27093e-10
-1.14217e-07 0 7.01228e-11
-1.14354e-07 0 3.6111e-11
-1.14386e-07 0 1.67922e-11
-1.14365e-07 0 6.39552e-12
-1.14322e-07 0 1.17693e-12
-1.14272e-07 0 -1.16935e-12
-1.14224e-07 0 -2.00442e-12
-1.14181e-07 0 -2.10026e-12
-1.14145e-07 0 -1.87621e-12
-1.14115e-07 0 -1.54808e-12
-1.14091e-07 0 -1.21854e-12
-1.14072e-07 0 -9.2992e-13
-1.14056e-07 0 -6.94045e-13
-1.14043e-07 0 -5.08264e-13
-1.14032e-07 0 -3.63897e-13
-1.14023e-07 0 -2.50724e-13
-1.14016e-07 0 -1.57128e-13
-1.14009e-07 0 -6.79538e-14
-1.14004e-07 0 2.79213e-14
-1.14e-07 0 1.45908e-13
-1.13998e-07 0 3.20854e-13
-1.13997e-07 0 4.54523e-13
-1.13999e-07 0 9.9361e-13
-1.14007e-07 0 4.90065e-12
0.00595735 0 -2.54221e-08
0.0036 -2.94529e-07 -5.46221e-08
0.00359982 -0.00132013 6.89246e-06
0.00674249 -0.00381628 7.04994e-05
0.0136011 -0.00624718 -0.000899167
0.0238648 -0.0143565 -0.00463233
0.0461101 -0.0126826 -0.00494789
0.0494956 -0.00159301 -0.00169126
0.0492025 0.00284814 -0.000190153
0.0440971 0.00512335 0.000542437
0.0383797 0.00529006 0.000519635
0.0332274 0.00461355 0.000235692
0.0289674 0.00363906 -7.03321e-05
0.0256397 0.00261433 -0.000287003
0.0231463 0.00172909 -0.000360167
0.0213331 0.00109118 -0.000309254
0.0200426 0.000690219 -0.000204271
0.0191421 0.000450526 -0.000107689
0.0185278 0.000301584 -4.43481e-05
0.0181198 0.000202216 -1.1565e-05
0.0178568 0.000133152 1.88338e-06
0.0176925 8.51985e-05 5.61011e-06
0.0175931 5.27259e-05 5.39281e-06
0.0175352 3.14562e-05 4.0438e-06
0.0175027 1.79993e-05 2.68808e-06
0.0174853 9.77741e-06 1.65519e-06
0.0174767 4.93462e-06 9.61172e-07
0.017473 2.19865e-06 5.29046e-07
0.0174717 7.32355e-07 2.74527e-07
0.0174717 4.18633e-09 1.31602e-07
0.0174723 -3.12443e-07 5.51399e-08
0.0174729 -4.11683e-07 1.6578e-08
0.0174736 -4.04925e-07 -1.25667e-09
0.0174742 -3.5343e-07 -8.27659e-09
0.0174746 -2.89055e-07 -9.9932e-09
0.017475 -2.27015e-07 -9.3526e-09
0.0174753 -1.73507e-07 -7.8558e-09
0.0174755 -1.30116e-07 -6.21714e-09
0.0174756 -9.62833e-08 -4.73907e-09
0.0174758 -7.06143e-08 -3.51881e-09
0.0174758 -5.15432e-08 -2.55989e-09
0.0174759 -3.76369e-08 -1.83448e-09
0.0174759 -2.77109e-08 -1.31694e-09
0.017476 -2.08457e-08 -9.88758e-10
0.017476 -1.64002e-08 -8.69757e-10
0.017476 -1.40009e-08 -1.02082e-09
0.017476 -1.33579e-08 -1.2839e-09
0.0174761 -1.4696e-08 -1.37462e-09
0.0174761 -1.86339e-08 1.00663e-09
0.0174762 -3.68218e-08 3.29201e-09
0.0174763 -1.31848e-07 -4.06804e-08
0.0174765 -2.11383e-07 -8.45908e-08
0.01 -1.38916e-07 -1.42758e-06
0.0100007 -0.00299239 -0.000545807
0.0148655 -0.0098925 -0.000739743
0.0241287 -0.0177709 -0.00151345
0.0381098 -0.0319223 -0.00353712
0.0583565 -0.0238762 -0.000827998
0.0557543 -0.00233234 0.00293266
0.0553414 0.00546909 0.00305243
0.0496178 0.010507 0.00264943
0.0441365 0.0106117 0.00178006
0.0396551 0.00942803 0.000853626
0.0359349 0.00786206 9.87608e-05
0.0328928 0.00621199 -0.000403945
0.0305369 0.00466662 -0.000595685
0.0287821 0.00335521 -0.000529983
0.0275204 0.00232955 -0.000354216
0.0266442 0.00157328 -0.000188821
0.026056 0.00103744 -7.94239e-05
0.0256748 0.000668198 -2.20916e-05
0.0254371 0.000419779 2.01364e-06
0.0252951 0.000256719 9.18437e-06
0.0252144 0.000152443 9.30646e-06
0.025171 8.75334e-05 7.25462e-06
0.0251496 4.82399e-05 5.02822e-06
0.0251403 2.51537e-05 3.25675e-06
0.0251373 1.2044e-05 2.01674e-06
0.0251374 4.90663e-06 1.20833e-06
0.0251388 1.23904e-06 7.05016e-07
0.0251405 -4.81116e-07 4.01889e-07
0.0251421 -1.15482e-06 2.24052e-07
0.0251435 -1.2995e-06 1.2205e-07
0.0251447 -1.20199e-06 6.47588e-08
0.0251455 -1.01424e-06 3.32546e-08
0.0251462 -8.1168e-07 1.6327e-08
0.0251467 -6.27885e-07 7.48001e-09
0.025147 -4.74606e-07 3.02202e-09
0.0251473 -3.52977e-07 8.93961e-10
0.0251475 -2.59571e-07 -3.06266e-11
0.0251476 -1.89503e-07 -3.54434e-10
0.0251477 -1.37913e-07 -3.91606e-10
0.0251478 -1.00592e-07 -3.07542e-10
0.0251478 -7.41757e-08 -2.05066e-10
0.0251479 -5.61395e-08 -1.41633e-10
0.0251479 -4.47135e-08 -1.52875e-10
0.0251479 -3.9064e-08 -3.37279e-10
0.025148 -3.92243e-08 -1.86962e-10
0.025148 -4.77663e-08 1.24231e-09
0.025148 -7.96622e-08 4.76903e-09
0.0251481 -1.57396e-07 1.98615e-09
0.0251483 -3.06087e-07 -7.46159e-08
0.0251485 -4.01998e-07 -1.46051e-07
0.0148 -9.50315e-07 -1.71084e-06
0.0148023 -0.00527558 -0.00109828
0.0202538 -0.0162454 -0.00238314
0.0270915 -0.0282747 -0.00404415
0.0315808 -0.0451661 -0.00563789
0.0300929 -0.0278803 -0.0011852
0.0265147 -1.18336e-05 0.00316642
0.0261029 0.00722054 0.00324241
0.0299859 0.0148578 0.00306951
0.0304565 0.014445 0.00210836
0.0295906 0.0127152 0.00111968
0.0286287 0.0108084 0.000260382
0.0278528 0.00863914 -0.000283864
0.0274862 0.00643174 -0.00048333
0.0274038 0.00452934 -0.000423936
0.0274536 0.00306679 -0.000265319
0.0275376 0.00202125 -0.000119661
0.0276132 0.00130351 -2.66865e-05
0.0276723 0.000821231 1.75164e-05
0.0277193 0.00050295 3.07793e-05
0.0277583 0.000297717 2.91688e-05
0.0277912 0.000169187 2.25979e-05
0.0278183 9.13388e-05 1.57698e-05
0.0278398 4.59011e-05 1.03189e-05
0.0278563 2.04814e-05 6.46244e-06
0.0278685 6.99463e-06 3.9185e-06
0.0278774 3.59237e-07 2.31596e-06
0.0278837 -2.50727e-06 1.33942e-06
0.0278881 -3.41078e-06 7.59511e-07
0.0278912 -3.3709e-06 4.2246e-07
0.0278933 -2.93895e-06 2.30255e-07
0.0278947 -2.39654e-06 1.22608e-07
0.0278957 -1.87552e-06 6.34151e-08
0.0278964 -1.42819e-06 3.15179e-08
0.0278969 -1.06702e-06 1.4741e-08
0.0278972 -7.86425e-07 6.19371e-09
0.0278974 -5.74018e-07 2.03798e-09
0.0278976 -4.16233e-07 1.70883e-10
0.0278977 -3.00736e-07 -5.37908e-10
0.0278977 -2.17293e-07 -6.81986e-10
0.0278978 -1.57873e-07 -5.68399e-10
0.0278978 -1.16445e-07 -3.64544e-10
0.0278979 -8.87605e-08 -1.53618e-10
0.0278979 -7.21081e-08 1.03902e-10
0.0278979 -6.5359e-08 5.26963e-10
0.0278979 -7.11577e-08 1.54003e-09
0.027898 -9.64558e-08 3.19842e-09
0.027898 -1.48329e-07 2.42567e-09
0.0278981 -2.30641e-07 -1.62985e-08
0.0278981 -3.314e-07 -1.10805e-07
0.0278981 -3.83168e-07 -1.88294e-07
0.018 -1.93018e-06 -1.69911e-06
0.0180028 -0.00685886 -0.00188679
0.0206016 -0.0184892 -0.00489644
0.0204607 -0.0242119 -0.00633447
0.0159438 -0.0263699 -0.00752416
-1.5215e-06 -0.0137977 -0.0042004
9.70743e-05 2.76285e-05 8.68347e-07
-3.43071e-05 3.57981e-05 0.000592752
0.00681626 0.00439319 0.00127055
0.0141199 0.0100756 0.00119665
0.0175754 0.0110642 0.000768211
0.0192364 0.00992497 0.000209224
0.020897 0.00789188 -0.00022728
0.0226366 0.00562187 -0.000382125
0.0242341 0.00373996 -0.000332054
0.0255625 0.0023844 -0.000203472
0.0265762 0.00148485 -7.95155e-05
0.0272953 0.000909104 3.44215e-06
0.0277811 0.000542229 4.22238e-05
0.0281015 0.00030915 5.03006e-05
0.0283113 0.000164294 4.33175e-05
0.0284481 7.8047e-05 3.20102e-05
0.0285368 2.96955e-05 2.15944e-05
0.0285939 4.69145e-06 1.37135e-05
0.0286303 -6.74025e-06 8.34007e-06
0.0286532 -1.07924e-05 4.90636e-06
0.0286675 -1.11602e-05 2.80811e-06
0.0286763 -9.92011e-06 1.56802e-06
0.0286818 -8.1635e-06 8.54557e-07
0.0286851 -6.41504e-06 4.53546e-07
0.0286872 -4.89163e-06 2.33069e-07
0.0286885 -3.65367e-06 1.14595e-07
0.0286892 -2.68928e-06 5.2593e-08
0.0286897 -1.95853e-06 2.12292e-08
0.02869 -1.41535e-06 6.12414e-09
0.0286902 -1.01713e-06 -5.80539e-10
0.0286903 -7.28189e-07 -3.09715e-09
0.0286904 -5.20268e-07 -3.63301e-09
0.0286905 -3.71751e-07 -3.30984e-09
0.0286905 -2.66521e-07 -2.67224e-09
0.0286905 -1.9283e-07 -1.9727e-09
0.0286905 -1.42321e-07 -1.31783e-09
0.0286906 -1.09288e-07 -7.07165e-10
0.0286906 -9.06013e-08 -1.0515e-10
0.0286906 -8.5634e-08 3.81304e-10
0.0286906 -9.45489e-08 4.26969e-10
0.0286906 -1.16286e-07 -1.27363e-09
0.0286906 -1.46088e-07 -8.2252e-09
0.0286906 -1.79644e-07 -3.86343e-08
0.0286905 -2.07623e-07 -1.35417e-07
0.0286904 -2.1803e-07 -2.07202e-07
0.0196 -2.72091e-06 -2.58019e-06
0.0196009 -0.00568471 -0.00273911
0.0190852 -0.0127083 -0.00643207
0.0160608 -0.0155893 -0.00668024
0.0110875 -0.0145269 -0.00670012
0.00187696 -0.00596395 -0.00493919
7.27243e-05 -6.68266e-05 -0.00122385
3.25195e-05 -3.25195e-05 -3.91195e-08
-3.35994e-05 3.50148e-05 0.000212143
0.004289 0.00318795 0.000443256
0.00991237 0.00745304 0.000370524
0.0128042 0.0076496 4.40722e-05
0.0160359 0.00557827 -0.000296168
0.0191874 0.00344272 -0.000406911
0.0219074 0.0018631 -0.0003699
0.0241015 0.000872303 -0.000263928
0.0257507 0.000343112 -0.000138809
0.0268988 9.54826e-05 -3.68755e-05
0.0276496 -1.33753e-05 2.12933e-05
0.028122 -5.97082e-05 4.12082e-05
0.0284131 -7.5692e-05 3.94219e-05
0.0285901 -7.53542e-05 2.98695e-05
0.0286965 -6.6661e-05 1.99829e-05
0.0287596 -5.47947e-05 1.236e-05
0.0287964 -4.28652e-05 7.23674e-06
0.0288176 -3.24043e-05 4.06114e-06
0.0288295 -2.39199e-05 2.19688e-06
0.0288362 -1.73682e-05 1.14594e-06
0.0288398 -1.24692e-05 5.73138e-07
0.0288417 -8.88372e-06 2.70695e-07
0.0288427 -6.29721e-06 1.16404e-07
0.0288432 -4.44914e-06 4.10357e-08
0.0288435 -3.13705e-06 6.51176e-09
0.0288435 -2.20934e-06 -7.58396e-09
0.0288436 -1.55518e-06 -1.19284e-08
0.0288436 -1.09475e-06 -1.19515e-08
0.0288436 -7.71138e-07 -1.03172e-08
0.0288435 -5.4404e-07 -8.26499e-09
0.0288435 -3.8505e-07 -6.31924e-09
0.0288435 -2.74237e-07 -4.65732e-09
0.0288435 -1.97708e-07 -3.30599e-09
0.0288435 -1.45957e-07 -2.25922e-09
0.0288435 -1.1271e-07 -1.51474e-09
0.0288435 -9.36627e-08 -1.1954e-09
0.0288435 -8.5157e-08 -1.77613e-09
0.0288435 -8.31717e-08 -3.67102e-09
0.0288434 -8.33092e-08 -7.89142e-09
0.0288434 -7.94927e-08 -1.70021e-08
0.0288433 -6.27965e-08 -4.95699e-08
0.0288433 -2.34801e-08 -1.42543e-07
0.0288431 3.0085e-09 -2.09152e-07
0.0196 -1.2973e-06 -3.53831e-06
0.0196 -0.00355489 -0.00310068
0.0188823 -0.00769455 -0.00646668
0.0176413 -0.0075436 -0.00611316
0.0134456 -0.00371905 -0.00562538
0.009389 0.00293336 -0.00517568
0.00624642 0.00324978 -0.00287147
7.28403e-05 -6.08129e-05 -0.000577692
2.72135e-05 -2.72135e-05 -1.27019e-07
-3.29061e-05 3.42927e-05 6.99173e-05
0.00316772 0.00248944 0.00033587
0.00774766 0.00391972 0.000303336
0.0131269 0.00179392 -5.48149e-05
0.0177638 7.98699e-05 -0.000243322
0.0213283 -0.00088141 -0.00032352
0.0239625 -0.00124824 -0.000318897
0.0258246 -0.00119705 -0.000236091
0.0270477 -0.000951943 -0.000126033
0.0277909 -0.000687906 -4.18048e-05
0.0282163 -0.000477518 1.21603e-06
0.0284501 -0.000327135 1.4722e-05
0.0285747 -0.000222917 1.44618e-05
0.028639 -0.000151127 1.02689e-05
0.028671 -0.000101903 6.24679e-06
0.028686 -6.8413e-05 3.43802e-06
0.0286924 -4.58237e-05 1.74307e-06
0.0286946 -3.06926e-05 8.09633e-07
0.0286949 -2.05982e-05 3.31124e-07
0.0286944 -1.3871e-05 1.02692e-07
0.0286937 -9.38111e-06 3.29401e-09
0.028693 -6.37444e-06 -3.3387e-08
0.0286924 -4.35196e-06 -4.16899e-08
0.028692 -2.98464e-06 -3.85064e-08
0.0286916 -2.05551e-06 -3.1681e-08
0.0286913 -1.42108e-06 -2.45725e-08
0.0286911 -9.86014e-07 -1.84176e-08
0.028691 -6.86616e-07 -1.35105e-08
0.0286908 -4.80083e-07 -9.76741e-09
0.0286908 -3.375e-07 -6.98401e-09
0.0286907 -2.39253e-07 -4.94812e-09
0.0286907 -1.71998e-07 -3.49635e-09
0.0286906 -1.26529e-07 -2.56204e-09
0.0286906 -9.62026e-08 -2.18017e-09
0.0286906 -7.58344e-08 -2.4892e-09
0.0286906 -6.09266e-08 -3.80415e-09
0.0286905 -4.69728e-08 -6.13228e-09
0.0286905 -2.89019e-08 -1.0218e-08
0.0286905 1.0789e-09 -1.85481e-08
0.0286904 5.90548e-08 -4.72336e-08
0.0286904 1.6028e-07 -1.33354e-07
0.0286902 2.22775e-07 -1.96421e-07
0.018 -8.41397e-07 -3.5009e-06
0.0180009 -0.00189745 -0.00302491
0.0183737 -0.00353949 -0.00612066
0.0185294 -0.00215241 -0.00535308
0.0176367 0.00114741 -0.0043483
0.0174375 0.00738638 -0.00394866
0.0181426 0.0126626 -0.00277202
0.011187 0.00693314 -0.00130356
7.44119e-05 -4.72138e-05 -0.000385498
-2.60456e-05 -5.46612e-05 5.47406e-07
7.69272e-06 -0.000422511 0.000762249
0.00878325 -0.00239406 0.0011611
0.0164867 -0.00432099 0.000621687
0.021586 -0.00450431 0.000331067
0.0246016 -0.00401236 8.73759e-05
0.0263037 -0.00331535 -0.000130621
0.0272449 -0.00251753 -0.000227918
0.0277343 -0.0017484 -0.000200882
0.0279541 -0.00113585 -0.000126735
0.0280268 -0.00071246 -6.44937e-05
0.0280308 -0.000441458 -2.84921e-05
0.0280094 -0.000273171 -1.16312e-05
0.027983 -0.000169485 -4.71691e-06
0.0279598 -0.000105639 -2.08179e-06
0.0279416 -6.62649e-05 -1.07758e-06
0.0279283 -4.19078e-05 -6.52636e-07
0.0279189 -2.67604e-05 -4.33701e-07
0.0279124 -1.72686e-05 -2.97864e-07
0.0279079 -1.12638e-05 -2.04966e-07
0.0279048 -7.42408e-06 -1.39798e-07
0.0279027 -4.94105e-06 -9.43812e-08
0.0279012 -3.3175e-06 -6.32076e-08
0.0279002 -2.2448e-06 -4.21218e-08
0.0278995 -1.5293e-06 -2.80169e-08
0.027899 -1.04808e-06 -1.86484e-08
0.0278987 -7.22113e-07 -1.24473e-08
0.0278985 -5.00057e-07 -8.34539e-09
0.0278983 -3.48152e-07 -5.6298e-09
0.0278982 -2.4398e-07 -3.83339e-09
0.0278981 -1.72483e-07 -2.66055e-09
0.027898 -1.23364e-07 -1.9481e-09
0.027898 -8.93752e-08 -1.64072e-09
0.027898 -6.51694e-08 -1.73482e-09
0.0278979 -4.64551e-08 -2.27513e-09
0.0278979 -2.92839e-08 -3.46258e-09
0.0278979 -9.24485e-09 -5.18476e-09
0.0278979 1.9361e-08 -8.07065e-09
0.0278978 6.5428e-08 -1.42109e-08
0.0278978 1.5086e-07 -3.41195e-08
0.0278978 2.95618e-07 -1.08572e-07
0.0278978 3.83772e-07 -1.67318e-07
0.0148 -4.74274e-07 -3.09138e-06
0.0148015 -0.000951383 -0.002796
0.0163008 -0.00137981 -0.00540443
0.0180336 0.000391068 -0.00439605
0.0195954 0.00360595 -0.00326706
0.0215173 0.00755959 -0.00295035
0.025312 0.0129189 -0.00234316
0.0285545 0.0196127 -0.00137418
0.0234011 0.0114674 -0.00025373
0.0238183 4.84187e-11 0.000651709
0.0270443 -0.00667987 0.00157209
0.0309113 -0.0131822 0.00211968
0.0320803 -0.0113501 0.00174279
0.0315119 -0.00814342 0.00136147
0.0302236 -0.00549086 0.000826851
0.0288264 -0.00363833 0.000230004
0.0276399 -0.00235374 -0.000165722
0.0267668 -0.00145703 -0.000275927
0.0261756 -0.000863803 -0.000221162
0.0257923 -0.000500162 -0.000133904
0.0255495 -0.000288768 -6.98033e-05
0.0253978 -0.000168372 -3.34741e-05
0.0253038 -9.97064e-05 -1.53491e-05
0.0252458 -6.00863e-05 -6.89327e-06
0.0252099 -3.68664e-05 -3.07916e-06
0.0251876 -2.30217e-05 -1.38102e-06
0.0251737 -1.46173e-05 -6.24296e-07
0.0251648 -9.42315e-06 -2.83649e-07
0.0251591 -6.15731e-06 -1.28012e-07
0.0251554 -4.07099e-06 -5.59134e-08
0.025153 -2.71899e-06 -2.23225e-08
0.0251514 -1.83178e-06 -6.85801e-09
0.0251503 -1.2432e-06 -5.36953e-11
0.0251496 -8.49075e-07 2.60611e-09
0.0251491 -5.83095e-07 3.32272e-09
0.0251487 -4.02434e-07 3.18021e-09
0.0251485 -2.79094e-07 2.70804e-09
0.0251483 -1.94554e-07 2.15467e-09
0.0251482 -1.36415e-07 1.62469e-09
0.0251481 -9.6255e-08 1.14938e-09
0.0251481 -6.82258e-08 7.19341e-10
0.025148 -4.81098e-08 2.96265e-10
0.025148 -3.26466e-08 -1.6212e-10
0.025148 -1.89834e-08 -7.17576e-10
0.0251479 -4.19179e-09 -1.53191e-09
0.0251479 1.5291e-08 -2.47904e-09
0.0251479 4.47828e-08 -3.91089e-09
0.0251479 9.1901e-08 -7.33065e-09
0.025148 1.75805e-07 -1.81652e-08
0.0251481 3.13716e-07 -7.82786e-08
0.0251482 3.96798e-07 -1.30009e-07
0.01 -9.09893e-07 -2.78233e-06
0.0100007 -0.000588151 -0.00228569
0.0114214 -0.000573435 -0.00416466
0.0135193 0.000756938 -0.00304882