# vtk DataFile Version 2.0
Tobias Weinzierl: CPU, Manycore and Cluster Computing
ASCII

DATASET STRUCTURED_POINTS
DIMENSIONS  51 11 6

ORIGIN 0 0 0 

SPACING 0.1 0.1 0.1 

POINT_DATA 3366

VECTORS velocity float
0 0 0
1.77261e-11 0 0
-5.08732e-08 0 0
-1.65785e-07 0 0
-2.6275e-07 0 0
-9.92515e-08 0 0
-3.38651e-08 0 0
2.00548e-09 0 0
7.75887e-09 0 0
-2.84334e-08 0 0
-7.8991e-08 0 0
-1.14871e-07 0 0
-1.28199e-07 0 0
-1.269e-07 0 0
-1.21359e-07 0 0
-1.17475e-07 0 0
-1.16434e-07 0 0
-1.17271e-07 0 0
-1.18812e-07 0 0
-1.20332e-07 0 0
-1.21534e-07 0 0
-1.22372e-07 0 0
-1.22903e-07 0 0
-1.23211e-07 0 0
-1.23374e-07 0 0
-1.23447e-07 0 0
-1.2347e-07 0 0
-1.23467e-07 0 0
-1.23453e-07 0 0
-1.23437e-07 0 0
-1.23421e-07 0 0
-1.23407e-07 0 0
-1.23397e-07 0 0
-1.23389e-07 0 0
-1.23384e-07 0 0
-1.23381e-07 0 0
-1.23379e-07 0 0
-1.23379e-07 0 0
-1.2338e-07 0 0
-1.23381e-07 0 0
-1.23383e-07 0 0
-1.23385e-07 0 0
-1.23388e-07 0 0
-1.23391e-07 0 0
-1.23393e-07 0 0
-1.23396e-07 0 0
-1.23397e-07 0 0
-1.23399e-07 0 0
-1.23402e-07 0 0
-1.23411e-07 0 0
0.00242399 0 0
0 4.28367e-07 0
6.45155e-11 1.66227e-08 0
-8.46145e-08 4.83415e-08 0
-2.99902e-07 6.62751e-08 0
-4.43368e-07 4.49845e-08 0
-1.80972e-07 6.27121e-08 0
-1.05604e-07 1.07928e-07 0
-6.4891e-08 8.99234e-08 0
-2.82384e-08 6.99813e-08 0
-5.61069e-08 7.26853e-08 0
-1.26688e-07 6.55221e-08 0
-1.87779e-07 4.32508e-08 0
-2.15739e-07 1.83746e-08 0
-2.19729e-07 2.40985e-09 0
-2.1801e-07 -2.78858e-09 0
-2.20349e-07 -1.89491e-09 0
-2.27144e-07 2.85591e-10 0
-2.35539e-07 1.64423e-09 0
-2.43228e-07 1.99349e-09 0
-2.49221e-07 1.75131e-09 0
-2.5343e-07 1.302e-09 0
-2.56167e-07 8.60264e-10 0
-2.57835e-07 5.10271e-10 0
-2.58787e-07 2.65514e-10 0
-2.5929e-07 1.09932e-10 0
-2.59529e-07 1.97869e-11 0
-2.5962e-07 -2.67289e-11 0
-2.59636e-07 -4.63967e-11 0
-2.59616e-07 -5.08531e-11 0
-2.59585e-07 -4.75631e-11 0
-2.59553e-07 -4.09911e-11 0
-2.59525e-07 -3.3612e-11 0
-2.59503e-07 -2.66657e-11 0
-2.59487e-07 -2.06722e-11 0
-2.59475e-07 -1.57605e-11 0
-2.59468e-07 -1.18678e-11 0
-2.59464e-07 -8.85165e-12 0
-2.59463e-07 -6.55043e-12 0
-2.59464e-07 -4.81206e-12 0
-2.59467e-07 -3.50556e-12 0
-2.59471e-07 -2.52338e-12 0
-2.59476e-07 -1.77902e-12 0
-2.59481e-07 -1.20306e-12 0
-2.59486e-07 -7.39645e-13 0
-2.59492e-07 -3.26937e-13 0
-2.59496e-07 1.47774e-13 0
-2.59501e-07 7.8235e-13 0
-2.59507e-07 1.82182e-12 0
-2.59516e-07 6.50127e-12 0
-2.59538e-07 2.3653e-11 0
0.00667302 -1.54827e-07 0
0 3.39401e-09 0
1.05982e-10 1.85161e-08 0
-1.85178e-08 4.97205e-09 0
-1.77022e-07 -8.97057e-08 0
-2.18531e-07 -1.41789e-07 0
-3.04127e-08 -2.82897e-09 0
-1.04061e-07 1.50851e-07 0
-1.33022e-07 1.18562e-07 0
-1.01683e-07 3.83478e-08 0
-8.33086e-08 8.89273e-09 0
-1.20298e-07 6.42161e-09 0
-1.6384e-07 2.25205e-08 0
-1.85709e-07 4.20693e-08 0
-1.86352e-07 5.0022e-08 0
-1.82347e-07 4.65714e-08 0
-1.84384e-07 3.83257e-08 0
-1.92461e-07 2.93805e-08 0
-2.02611e-07 2.13302e-08 0
-2.11757e-07 1.47423e-08 0
-2.18673e-07 9.72515e-09 0
-2.23346e-07 6.12676e-09 0
-2.26249e-07 3.67607e-09 0
-2.27926e-07 2.08359e-09 0
-2.28823e-07 1.09499e-09 0
-2.29256e-07 5.10144e-10 0
-2.29432e-07 1.8311e-10 0
-2.29476e-07 1.34606e-11 0
-2.29457e-07 -6.45657e-11 0
-2.29416e-07 -9.21468e-11 0
-2.29371e-07 -9.39638e-11 0
-2.29331e-07 -8.41388e-11 0
-2.29298e-07 -7.03176e-11 0
-2.29273e-07 -5.63366e-11 0
-2.29256e-07 -4.38908e-11 0
-2.29244e-07 -3.35358e-11 0
-2.29237e-07 -2.52665e-11 0
-2.29233e-07 -1.8836e-11 0
-2.29232e-07 -1.39222e-11 0
-2.29233e-07 -1.02079e-11 0
-2.29236e-07 -7.41352e-12 0
-2.2924e-07 -5.30513e-12 0
-2.29245e-07 -3.68938e-12 0
-2.2925e-07 -2.39768e-12 0
-2.29256e-07 -1.26665e-12 0
-2.29261e-07 -1.2195e-13 0
-2.29266e-07 1.37879e-12 0
-2.29272e-07 4.32354e-12 0
-2.29278e-07 1.0664e-11 0
-2.29285e-07 2.06742e-11 0
-2.293e-07 3.3698e-11 0
0.00901422 -2.43303e-07 0
0 -6.11645e-07 0
1.13403e-10 -1.01072e-08 0
3.93949e-08 -8.38019e-08 0
-8.82521e-08 -2.34559e-07 0
-1.39074e-07 -3.07619e-07 0
5.13074e-08 -1.46849e-07 0
-3.22946e-08 -1.11029e-10 0
-6.61244e-08 -3.86528e-08 0
-1.42281e-07 -1.09803e-07 0
-1.54976e-07 -1.31521e-07 0
-1.86777e-07 -8.92728e-08 0
-2.22991e-07 -1.60239e-08 0
-2.35318e-07 4.87607e-08 0
-2.2046e-07 7.41116e-08 0
-1.94557e-07 7.05583e-08 0
-1.74168e-07 5.71967e-08 0
-1.64189e-07 4.29349e-08 0
-1.61671e-07 3.03919e-08 0
-1.62426e-07 2.03353e-08 0
-1.63858e-07 1.28717e-08 0
-1.64949e-07 7.6981e-09 0
-1.65526e-07 4.32003e-09 0
-1.65714e-07 2.23176e-09 0
-1.65677e-07 1.00956e-09 0
-1.65541e-07 3.37225e-10 0
-1.6538e-07 -3.46163e-12 0
-1.6523e-07 -1.54278e-10 0
-1.65106e-07 -2.02778e-10 0
-1.65009e-07 -2.00514e-10 0
-1.64937e-07 -1.76366e-10 0
-1.64886e-07 -1.45578e-10 0
-1.6485e-07 -1.15544e-10 0
-1.64826e-07 -8.93517e-11 0
-1.64811e-07 -6.78616e-11 0
-1.64802e-07 -5.08799e-11 0
-1.64797e-07 -3.77877e-11 0
-1.64795e-07 -2.78603e-11 0
-1.64796e-07 -2.04142e-11 0
-1.64798e-07 -1.48628e-11 0
-1.64802e-07 -1.07266e-11 0
-1.64806e-07 -7.62057e-12 0
-1.64812e-07 -5.23377e-12 0
-1.64818e-07 -3.30099e-12 0
-1.64823e-07 -1.54023e-12 0
-1.64829e-07 4.46017e-13 0
-1.64833e-07 3.08808e-12 0
-1.64836e-07 6.42844e-12 0
-1.64838e-07 1.0264e-11 0
-1.64836e-07 1.51592e-11 0
-1.6484e-07 2.23948e-11 0
0.00964133 -2.03989e-07 0
0 -1.17396e-06 0
4.321e-11 -5.07366e-08 0
1.62668e-08 -1.47977e-07 0
-1.20799e-07 -2.08297e-07 0
-2.26686e-07 -1.71648e-07 0
-5.04612e-11 -6.06387e-08 0
-1.3702e-10 -2.56225e-10 0
2.12763e-10 -2.37497e-10 0
-7.65944e-08 -8.24381e-08 0
-2.03925e-07 -1.66257e-07 0
-2.39599e-07 -1.20441e-07 0
-2.64121e-07 -2.33224e-08 0
-2.78843e-07 4.87188e-08 0
-2.67857e-07 6.86486e-08 0
-2.35303e-07 5.85123e-08 0
-1.99634e-07 4.38801e-08 0
-1.73619e-07 3.17696e-08 0
-1.58453e-07 2.19083e-08 0
-1.50367e-07 1.39891e-08 0
-1.45921e-07 8.11362e-09 0
-1.43218e-07 4.1617e-09 0
-1.41415e-07 1.74592e-09 0
-1.40158e-07 4.06152e-10 0
-1.39278e-07 -2.52663e-10 0
-1.38669e-07 -5.16574e-10 0
-1.38256e-07 -5.71155e-10 0
-1.37982e-07 -5.27166e-10 0
-1.37804e-07 -4.45905e-10 0
-1.37689e-07 -3.5856e-10 0
-1.37616e-07 -2.79191e-10 0
-1.37571e-07 -2.12746e-10 0
-1.37545e-07 -1.59706e-10 0
-1.37529e-07 -1.18628e-10 0
-1.37521e-07 -8.74527e-11 0
-1.37518e-07 -6.41184e-11 0
-1.37518e-07 -4.682e-11 0
-1.3752e-07 -3.4078e-11 0
-1.37524e-07 -2.47274e-11 0
-1.37528e-07 -1.78717e-11 0
-1.37533e-07 -1.28304e-11 0
-1.37539e-07 -9.08677e-12 0
-1.37545e-07 -6.23895e-12 0
-1.37551e-07 -3.96341e-12 0
-1.37557e-07 -2.02929e-12 0
-1.37562e-07 -3.42516e-13 0
-1.37565e-07 1.10887e-12 0
-1.37566e-07 2.41492e-12 0
-1.37566e-07 3.852e-12 0
-1.37562e-07 6.14736e-12 0
-1.37565e-07 1.0219e-11 0
0.00977088 -1.07613e-07 0
0 -1.04746e-06 0
-4.58947e-12 -5.59334e-08 0
-1.65376e-08 -1.2483e-07 0
-1.47863e-07 -1.68483e-07 0
-2.80523e-07 -1.90805e-07 0
-1.19704e-07 -9.12344e-08 0
-1.61994e-10 1.665e-10 0
4.49823e-11 -4.49823e-11 0
1.8586e-10 -2.39145e-10 0
-1.04583e-07 -7.77435e-08 0
-2.11214e-07 -1.20205e-07 0
-2.21853e-07 -1.96687e-08 0
-2.60293e-07 6.81067e-08 0
-2.88613e-07 7.85543e-08 0
-2.74529e-07 5.09193e-08 0
-2.33079e-07 2.63711e-08 0
-1.93604e-07 1.28794e-08 0
-1.67359e-07 5.61961e-09 0
-1.52272e-07 1.26848e-09 0
-1.43821e-07 -1.23845e-09 0
-1.38944e-07 -2.39049e-09 0
-1.36031e-07 -2.65683e-09 0
-1.34263e-07 -2.44855e-09 0
-1.3319e-07 -2.04977e-09 0
-1.32547e-07 -1.62135e-09 0
-1.32168e-07 -1.2378e-09 0
-1.3195e-07 -9.23775e-10 0
-1.31828e-07 -6.79425e-10 0
-1.31763e-07 -4.95084e-10 0
-1.31731e-07 -3.58675e-10 0
-1.31717e-07 -2.58952e-10 0
-1.31713e-07 -1.86596e-10 0
-1.31715e-07 -1.34335e-10 0
-1.3172e-07 -9.66865e-11 0
-1.31726e-07 -6.9598e-11 0
-1.31733e-07 -5.01132e-11 0
-1.31739e-07 -3.60908e-11 0
-1.31746e-07 -2.59859e-11 0
-1.31753e-07 -1.8686e-11 0
-1.3176e-07 -1.33896e-11 0
-1.31767e-07 -9.52084e-12 0
-1.31774e-07 -6.67563e-12 0
-1.3178e-07 -4.58399e-12 0
-1.31786e-07 -3.06162e-12 0
-1.31791e-07 -1.96564e-12 0
-1.31794e-07 -1.20945e-12 0
-1.31796e-07 -8.18234e-13 0
-1.31797e-07 -8.36198e-13 0
-1.31795e-07 -8.15425e-13 0
-1.31798e-07 8.52592e-14 0
0.00978947 3.37785e-09 0
0 -7.37183e-07 0
7.51699e-12 -4.93235e-08 0
-2.10575e-08 -1.17231e-07 0
-1.47701e-07 -1.28625e-07 0
-3.01437e-07 -1.06013e-07 0
-2.68057e-07 -6.33861e-08 0
-7.73775e-08 -1.80824e-08 0
-1.61393e-10 1.71558e-10 0
1.32572e-11 -1.32572e-11 0
1.28546e-10 -2.42004e-10 0
-8.57913e-08 -4.06401e-08 0
-9.97257e-08 1.13703e-08 0
-1.6837e-07 1.28187e-07 0
-2.64424e-07 1.1975e-07 0
-2.97491e-07 5.43361e-08 0
-2.62318e-07 7.21328e-09 0
-2.11636e-07 -1.09618e-08 0
-1.75468e-07 -1.47909e-08 0
-1.55603e-07 -1.38749e-08 0
-1.458e-07 -1.159e-08 0
-1.41122e-07 -9.04618e-09 0
-1.38914e-07 -6.72516e-09 0
-1.37892e-07 -4.83119e-09 0
-1.37444e-07 -3.39429e-09 0
-1.37271e-07 -2.35451e-09 0
-1.37227e-07 -1.62378e-09 0
-1.3724e-07 -1.11871e-09 0
-1.37274e-07 -7.72325e-10 0
-1.37314e-07 -5.35246e-10 0
-1.37351e-07 -3.72693e-10 0
-1.37384e-07 -2.60797e-10 0
-1.37412e-07 -1.83381e-10 0
-1.37435e-07 -1.29529e-10 0
-1.37455e-07 -9.18642e-11 0
-1.37471e-07 -6.53867e-11 0
-1.37484e-07 -4.66849e-11 0
-1.37496e-07 -3.34171e-11 0
-1.37506e-07 -2.39657e-11 0
-1.37515e-07 -1.72077e-11 0
-1.37524e-07 -1.23616e-11 0
-1.37532e-07 -8.88436e-12 0
-1.3754e-07 -6.39717e-12 0
-1.37547e-07 -4.63683e-12 0
-1.37554e-07 -3.43217e-12 0
-1.37559e-07 -2.69693e-12 0
-1.37563e-07 -2.43921e-12 0
-1.37566e-07 -2.83772e-12 0
-1.37568e-07 -4.28894e-12 0
-1.37567e-07 -6.91186e-12 0
-1.3757e-07 -9.92203e-12 0
0.00977085 1.13041e-07 0
0 -5.21823e-07 0
1.08737e-11 -4.38268e-08 0
-3.14299e-08 -1.00083e-07 0
-1.59378e-07 -9.99988e-08 0
-2.92417e-07 -5.67913e-08 0
-2.90503e-07 -1.88698e-08 0
-1.84983e-07 -3.39372e-08 0
-8.84974e-08 -2.8121e-08 0
-2.01469e-10 1.41684e-10 0
1.26291e-10 1.53449e-10 0
-3.20971e-11 -1.9315e-08 0
-3.7097e-08 6.92033e-08 0
-5.17558e-08 2.05e-07 0
-1.41044e-07 1.7527e-07 0
-2.30794e-07 6.39077e-08 0
-2.45787e-07 -9.88532e-09 0
-2.15917e-07 -3.19819e-08 0
-1.86144e-07 -3.08722e-08 0
-1.69671e-07 -2.40938e-08 0
-1.63108e-07 -1.73194e-08 0
-1.61387e-07 -1.18934e-08 0
-1.61513e-07 -7.94008e-09 0
-1.62152e-07 -5.22047e-09 0
-1.6281e-07 -3.41471e-09 0
-1.63346e-07 -2.23831e-09 0
-1.63746e-07 -1.47715e-09 0
-1.64034e-07 -9.83935e-10 0
-1.64239e-07 -6.62172e-10 0
-1.64385e-07 -4.50221e-10 0
-1.6449e-07 -3.09074e-10 0
-1.64565e-07 -2.14032e-10 0
-1.64621e-07 -1.4936e-10 0
-1.64662e-07 -1.04928e-10 0
-1.64693e-07 -7.41389e-11 0
-1.64717e-07 -5.26417e-11 0
-1.64736e-07 -3.75336e-11 0
-1.64751e-07 -2.68558e-11 0
-1.64764e-07 -1.92732e-11 0
-1.64775e-07 -1.38691e-11 0
-1.64785e-07 -1.00096e-11 0
-1.64794e-07 -7.25581e-12 0
-1.64803e-07 -5.3073e-12 0
-1.64811e-07 -3.96933e-12 0
-1.64818e-07 -3.13722e-12 0
-1.64824e-07 -2.79593e-12 0
-1.64828e-07 -3.02287e-12 0
-1.64831e-07 -4.06719e-12 0
-1.64834e-07 -6.70202e-12 0
-1.64835e-07 -1.23215e-11 0
-1.6484e-07 -2.10958e-11 0
0.00964125 2.03326e-07 0
0 -4.6062e-07 0
2.04159e-11 -3.37171e-08 0
-5.37633e-08 -7.94858e-08 0
-1.90283e-07 -7.8844e-08 0
-3.07609e-07 -4.03396e-08 0
-3.10857e-07 2.29526e-09 0
-2.30879e-07 -8.59157e-09 0
-1.80034e-07 -8.53308e-08 0
-9.34557e-08 -6.718e-08 0
-1.10116e-07 -8.61067e-13 0
-2.25837e-07 3.51358e-08 0
-2.79753e-07 1.08122e-07 0
-1.31815e-07 1.64761e-07 0
-5.88239e-08 1.46662e-07 0
-1.40461e-07 6.62495e-08 0
-2.17449e-07 1.55556e-09 0
-2.32416e-07 -2.33662e-08 0
-2.2453e-07 -2.44016e-08 0
-2.19152e-07 -1.82319e-08 0
-2.18851e-07 -1.21474e-08 0
-2.20793e-07 -7.7749e-09 0
-2.23047e-07 -4.93383e-09 0
-2.24905e-07 -3.15087e-09 0
-2.26257e-07 -2.03888e-09 0
-2.27189e-07 -1.33968e-09 0
-2.27818e-07 -8.93466e-10 0
-2.28241e-07 -6.03871e-10 0
-2.28527e-07 -4.1286e-10 0
-2.28723e-07 -2.8504e-10 0
-2.28858e-07 -1.98429e-10 0
-2.28954e-07 -1.3911e-10 0
-2.29023e-07 -9.81101e-11 0
-2.29073e-07 -6.95492e-11 0
-2.2911e-07 -4.95195e-11 0
-2.29138e-07 -3.53915e-11 0
-2.2916e-07 -2.53768e-11 0
-2.29177e-07 -1.82476e-11 0
-2.29192e-07 -1.31551e-11 0
-2.29204e-07 -9.50856e-12 0
-2.29214e-07 -6.89674e-12 0
-2.29224e-07 -5.03521e-12 0
-2.29233e-07 -3.73331e-12 0
-2.29241e-07 -2.87492e-12 0
-2.29248e-07 -2.41191e-12 0
-2.29255e-07 -2.37992e-12 0
-2.2926e-07 -2.91998e-12 0
-2.29264e-07 -4.29822e-12 0
-2.29269e-07 -7.42967e-12 0
-2.29272e-07 -1.5323e-11 0
-2.29283e-07 -3.08274e-11 0
0.00901412 2.28991e-07 0
0 -4.86867e-07 0
2.61821e-11 -1.73002e-08 0
-7.38819e-08 -4.24866e-08 0
-2.04343e-07 -4.14176e-08 0
-2.98533e-07 -2.22828e-08 0
-3.16847e-07 -1.58564e-08 0
-2.6727e-07 -3.38865e-08 0
-2.33657e-07 -7.99737e-08 0
-2.56908e-07 -5.40712e-08 0
-2.43665e-07 8.02106e-08 0
-2.86148e-07 1.67184e-07 0
-2.56379e-07 1.04199e-07 0
-1.33325e-07 -2.46858e-08 0
-8.5883e-08 -8.52938e-08 0
-1.71427e-07 -6.61994e-08 0
-2.52842e-07 -2.04688e-08 0
-2.72246e-07 7.76928e-09 0
-2.64666e-07 1.30754e-08 0
-2.56989e-07 8.90675e-09 0
-2.54042e-07 4.28251e-09 0
-2.53965e-07 1.48059e-09 0
-2.54926e-07 1.77116e-10 0
-2.56028e-07 -3.00483e-10 0
-2.56959e-07 -4.05668e-10 0
-2.57663e-07 -3.70907e-10 0
-2.58172e-07 -2.9824e-10 0
-2.58532e-07 -2.26447e-10 0
-2.58785e-07 -1.67171e-10 0
-2.58965e-07 -1.21688e-10 0
-2.59093e-07 -8.79783e-11 0
-2.59185e-07 -6.34173e-11 0
-2.59252e-07 -4.56698e-11 0
-2.59302e-07 -3.28934e-11 0
-2.59339e-07 -2.37075e-11 0
-2.59367e-07 -1.71032e-11 0
-2.59389e-07 -1.23518e-11 0
-2.59407e-07 -8.92999e-12 0
-2.59421e-07 -6.46351e-12 0
-2.59434e-07 -4.68538e-12 0
-2.59445e-07 -3.40646e-12 0
-2.59454e-07 -2.4952e-12 0
-2.59463e-07 -1.86421e-12 0
-2.59472e-07 -1.46325e-12 0
-2.59479e-07 -1.27947e-12 0
-2.59486e-07 -1.34983e-12 0
-2.59492e-07 -1.7942e-12 0
-2.59497e-07 -2.83109e-12 0
-2.59503e-07 -5.05276e-12 0
-2.59511e-07 -1.10064e-11 0
-2.59531e-07 -2.50667e-11 0
0.00667302 1.31981e-07 0
0 0 0
1.55341e-11 0 0
-3.91239e-08 0 0
-9.81482e-08 0 0
-1.36903e-07 0 0
-1.48091e-07 0 0
-1.43995e-07 0 0
-1.42126e-07 0 0
-1.63482e-07 0 0
-1.33551e-07 0 0
-6.03428e-08 0 0
-3.78878e-09 0 0
-3.49629e-09 0 0
-5.13725e-08 0 0
-1.12356e-07 0 0
-1.44963e-07 0 0
-1.46536e-07 0 0
-1.37046e-07 0 0
-1.28896e-07 0 0
-1.24472e-07 0 0
-1.22661e-07 0 0
-1.22166e-07 0 0
-1.22207e-07 0 0
-1.2241e-07 0 0
-1.22629e-07 0 0
-1.22814e-07 0 0
-1.22958e-07 0 0
-1.23065e-07 0 0
-1.23144e-07 0 0
-1.23202e-07 0 0
-1.23245e-07 0 0
-1.23277e-07 0 0
-1.233e-07 0 0
-1.23318e-07 0 0
-1.23332e-07 0 0
-1.23343e-07 0 0
-1.23352e-07 0 0
-1.23359e-07 0 0
-1.23365e-07 0 0
-1.2337e-07 0 0
-1.23375e-07 0 0
-1.2338e-07 0 0
-1.23384e-07 0 0
-1.23388e-07 0 0
-1.23391e-07 0 0
-1.23394e-07 0 0
-1.23397e-07 0 0
-1.234e-07 0 0
-1.23405e-07 0 0
-1.23418e-07 0 0
0.00242403 0 0
0 0 5.43345e-07
9.00541e-11 0 3.42603e-08
-7.65172e-08 0 1.17469e-07
-3.25085e-07 0 1.45604e-07
-7.12613e-07 0 -1.11522e-07
-2.52865e-07 0 -2.91609e-07
-3.61644e-08 0 -2.09202e-07
9.24911e-08 0 -1.31567e-07
1.41209e-07 0 -3.95615e-08
9.88993e-08 0 1.40476e-08
6.26458e-09 0 2.09009e-08
-8.56027e-08 0 5.94494e-09
-1.4964e-07 0 -6.35561e-09
-1.8546e-07 0 -9.2585e-09
-2.04306e-07 0 -6.64272e-09
-2.16915e-07 0 -3.03367e-09
-2.28061e-07 0 -4.91692e-10
-2.38203e-07 0 7.3266e-10
-2.46644e-07 0 1.06536e-09
-2.53021e-07 0 9.6627e-10
-2.57466e-07 0 7.30518e-10
-2.60367e-07 0 4.98921e-10
-2.62151e-07 0 3.18916e-10
-2.63186e-07 0 1.94412e-10
-2.63747e-07 0 1.1425e-10
-2.64023e-07 0 6.5125e-11
-2.64138e-07 0 3.61183e-11
-2.64168e-07 0 1.95003e-11
-2.64157e-07 0 1.02293e-11
-2.6413e-07 0 5.1869e-12
-2.641e-07 0 2.51655e-12
-2.64072e-07 0 1.14494e-12
-2.6405e-07 0 4.66985e-13
-2.64033e-07 0 1.49474e-13
-2.64022e-07 0 1.31451e-14
-2.64014e-07 0 -3.59374e-14
-2.6401e-07 0 -4.53726e-14
-2.64009e-07 0 -3.80167e-14
-2.64009e-07 0 -2.35899e-14
-2.64012e-07 0 -4.65522e-15
-2.64015e-07 0 2.06751e-14
-2.6402e-07 0 5.84301e-14
-2.64025e-07 0 1.19327e-13
-2.64031e-07 0 2.17736e-13
-2.64036e-07 0 3.83921e-13
-2.6404e-07 0 6.85925e-13
-2.64045e-07 0 1.07243e-12
-2.6405e-07 0 1.36119e-12
-2.64059e-07 0 4.12959e-12
-2.64081e-07 0 1.83602e-11
0.0066568 0 -9.17028e-08
0.0036 -1.35949e-07 5.03147e-08
0.00359979 -0.00131239 -4.21116e-05
0.00693336 -0.0041607 -0.000456812
0.0142429 -0.00750628 -0.00211968
0.0254817 -0.0140007 -0.00515869
0.0462654 -0.0109523 -0.00456033
0.0491653 -0.000910846 -0.00127969
0.0486583 0.0032095 0.000264211
0.0434175 0.00532819 0.000850018
0.0377592 0.00526955 0.00055392
0.0327288 0.00433565 4.00975e-05
0.0285551 0.00320662 -0.000307014
0.0253261 0.00219492 -0.000396117
0.0230097 0.00142926 -0.000315648
0.0214413 0.000914002 -0.000191413
0.0204157 0.000584902 -9.43256e-05
0.0197614 0.000373951 -3.79735e-05
0.0193535 0.000236601 -1.12341e-05
0.019105 0.000147075 -7.47841e-07
0.0189572 8.95165e-05 2.31044e-06
0.0188713 5.32718e-05 2.52354e-06
0.0188227 3.09616e-05 1.9173e-06
0.0187961 1.75382e-05 1.25213e-06
0.0187819 9.64387e-06 7.4457e-07
0.0187748 5.11002e-06 4.10481e-07
0.0187715 2.57307e-06 2.09171e-07
0.0187702 1.19639e-06 9.57645e-08
0.0187698 4.78134e-07 3.58455e-08
0.0187699 1.23721e-07 6.52659e-09
0.0187701 -3.59499e-08 -6.22015e-09
0.0187704 -9.56865e-08 -1.05106e-08
0.0187707 -1.07222e-07 -1.08196e-08
0.0187709 -9.78525e-08 -9.49656e-09
0.0187711 -8.13428e-08 -7.70321e-09
0.0187712 -6.41676e-08 -5.96499e-09
0.0187713 -4.90147e-08 -4.48258e-09
0.0187714 -3.67017e-08 -3.30152e-09
0.0187714 -2.71954e-08 -2.40132e-09
0.0187715 -2.01349e-08 -1.74119e-09
0.0187715 -1.50871e-08 -1.2841e-09
0.0187715 -1.16638e-08 -1.01156e-09
0.0187715 -9.5705e-09 -9.3534e-10
0.0187716 -8.63491e-09 -1.11705e-09
0.0187716 -8.83003e-09 -1.68308e-09
0.0187716 -1.02324e-08 -2.73375e-09
0.0187716 -1.33684e-08 -4.49184e-09
0.0187716 -1.97681e-08 -6.9749e-09
0.0187717 -2.95348e-08 -4.16787e-09
0.0187719 -7.47473e-08 -1.25591e-08
0.0187721 -2.91599e-07 -1.5014e-07
0.0187726 -4.68778e-07 -2.75187e-07
0.01 -8.1069e-08 -1.23489e-06
0.010001 -0.00313937 -0.000511526
0.0149975 -0.0103047 -0.00116938
0.0240341 -0.0182859 -0.00267898
0.037314 -0.0303475 -0.00419222
0.0569187 -0.0214642 -0.00116815
0.0549112 -0.0015765 0.00218032
0.0549619 0.0057527 0.00250601
0.0494332 0.010645 0.00232166
0.0439201 0.0106294 0.00137963
0.0392409 0.00939339 0.000304154
0.0351977 0.00770091 -0.000381881
0.0319716 0.00581561 -0.000597794
0.0296864 0.00406674 -0.000504546
0.028176 0.00269143 -0.000315136
0.0272139 0.00172148 -0.000158893
0.0266184 0.00107501 -6.57564e-05
0.0262605 0.000657393 -2.0518e-05
0.0260524 0.000393802 -2.18321e-06
0.0259355 0.000230943 3.56568e-06
0.0258725 0.000132396 4.31094e-06
0.0258401 7.39893e-05 3.48358e-06
0.0258245 4.01034e-05 2.42595e-06
0.0258178 2.08898e-05 1.56067e-06
0.0258156 1.02768e-05 9.5505e-07
0.0258154 4.59916e-06 5.64304e-07
0.0258161 1.6885e-06 3.24648e-07
0.0258171 2.87881e-07 1.82735e-07
0.025818 -3.15948e-07 1.00896e-07
0.0258187 -5.18306e-07 5.47008e-08
0.0258194 -5.32275e-07 2.91066e-08
0.0258198 -4.68673e-07 1.51709e-08
0.0258202 -3.82295e-07 7.71595e-09
0.0258205 -2.98131e-07 3.805e-09
0.0258206 -2.25908e-07 1.80104e-09
0.0258208 -1.67968e-07 8.05626e-10
0.0258209 -1.23401e-07 3.32678e-10
0.025821 -9.01394e-08 1.22374e-10
0.025821 -6.59464e-08 3.57233e-11
0.025821 -4.88468e-08 -6.55267e-12
0.0258211 -3.72846e-08 -6.20519e-11
0.0258211 -3.01639e-08 -1.89435e-10
0.0258211 -2.68682e-08 -4.67501e-10
0.0258211 -2.74181e-08 -1.0355e-09
0.0258212 -3.26963e-08 -1.89364e-09
0.0258212 -4.45091e-08 -2.47914e-09
0.0258213 -7.24739e-08 -2.85817e-09
0.0258214 -1.49981e-07 4.32605e-10
0.0258215 -3.08839e-07 -2.03677e-08
0.0258218 -5.65776e-07 -2.26766e-07
0.025822 -7.21276e-07 -4.08855e-07
0.0148 -9.53781e-07 -1.55431e-06
0.0148024 -0.00534462 -0.0010532
0.0199589 -0.0162365 -0.00265794
0.0262256 -0.027599 -0.00466804
0.030622 -0.0431542 -0.00531053
0.0291405 -0.0264658 -0.000869781
0.0262266 -1.11346e-05 0.00248991
0.0262037 0.00745753 0.00253957
0.0305982 0.0154894 0.00246195
0.030925 0.015205 0.0015383
0.0297496 0.0133003 0.000535519
0.0285824 0.0109148 -0.000160825
0.0277782 0.00811484 -0.000412381
0.0274827 0.00550688 -0.00037405
0.0274441 0.00354184 -0.000228918
0.0274833 0.00221181 -0.000100953
0.0275334 0.0013509 -2.54387e-05
0.0275797 0.000806338 7.58378e-06
0.0276205 0.000469243 1.68486e-05
0.0276552 0.000265571 1.59642e-05
0.0276833 0.00014564 1.20951e-05
0.0277051 7.68693e-05 8.21915e-06
0.0277212 3.85301e-05 5.23283e-06
0.0277327 1.78289e-05 3.18882e-06
0.0277409 7.08886e-06 1.88233e-06
0.0277464 1.82033e-06 1.08395e-06
0.0277503 -5.39015e-07 6.11487e-07
0.0277528 -1.41541e-06 3.3866e-07
0.0277546 -1.58118e-06 1.84226e-07
0.0277558 -1.44074e-06 9.83191e-08
0.0277565 -1.19652e-06 5.1309e-08
0.0277571 -9.43029e-07 2.60158e-08
0.0277574 -7.19162e-07 1.26657e-08
0.0277577 -5.36488e-07 5.78606e-09
0.0277579 -3.94206e-07 2.35561e-09
0.027758 -2.86724e-07 7.29232e-10
0.0277581 -2.0731e-07 2.39274e-11
0.0277581 -1.49691e-07 -2.26735e-10
0.0277582 -1.08647e-07 -2.65373e-10
0.0277582 -8.01268e-08 -2.1862e-10
0.0277582 -6.11837e-08 -1.59235e-10
0.0277582 -4.98978e-08 -1.41946e-10
0.0277582 -4.5346e-08 -2.05448e-10
0.0277583 -4.76937e-08 -3.31107e-10
0.0277583 -5.95987e-08 -4.29299e-10
0.0277583 -8.95205e-08 -6.06373e-10
0.0277584 -1.47659e-07 -2.91976e-09
0.0277584 -2.37372e-07 -8.87034e-09
0.0277585 -3.61062e-07 -5.19504e-08
0.0277586 -5.17161e-07 -2.77995e-07
0.0277585 -6.02192e-07 -4.64802e-07
0.018 -1.9812e-06 -1.70145e-06
0.0180026 -0.00665316 -0.00188864
0.0203003 -0.0177804 -0.00506343
0.0200678 -0.0232603 -0.00666679
0.0158477 -0.02537 -0.00706399
-1.32329e-06 -0.0132459 -0.00357316
9.97743e-05 3.10836e-05 7.30098e-07
-3.71078e-05 3.89588e-05 0.000482224
0.00720034 0.00489477 0.00100265
0.0150645 0.0111118 0.000882659
0.0184821 0.0118393 0.0004643
0.0200998 0.00998201 -4.21486e-06
0.0218206 0.00722595 -0.00026673
0.0235943 0.0046208 -0.00027744
0.0250941 0.0028084 -0.000170834
0.0261906 0.00167688 -6.19023e-05
0.0269236 0.000984776 4.53233e-06
0.0273926 0.000561693 3.04381e-05
0.0276878 0.000307083 3.29133e-05
0.027872 0.000158792 2.63082e-05
0.0279862 7.59962e-05 1.8283e-05
0.0280563 3.19689e-05 1.17077e-05
0.028099 9.9152e-06 7.10393e-06
0.0281248 -2.26114e-07 4.14717e-06
0.0281402 -4.21811e-06 2.34956e-06
0.0281495 -5.22807e-06 1.29769e-06
0.0281549 -4.92539e-06 6.99709e-07
0.0281582 -4.14819e-06 3.67715e-07
0.0281601 -3.28992e-06 1.87311e-07
0.0281613 -2.51532e-06 9.13968e-08
0.028162 -1.8773e-06 4.16691e-08
0.0281624 -1.37805e-06 1.67161e-08
0.0281627 -9.9975e-07 4.78054e-09
0.0281628 -7.19234e-07 -4.87061e-10
0.0281629 -5.1442e-07 -2.45605e-09
0.028163 -3.6663e-07 -2.87786e-09
0.028163 -2.61044e-07 -2.6385e-09
0.0281631 -1.86363e-07 -2.1691e-09
0.0281631 -1.34232e-07 -1.6677e-09
0.0281631 -9.86446e-08 -1.21917e-09
0.0281631 -7.54622e-08 -8.58952e-10
0.0281631 -6.2075e-08 -6.05568e-10
0.0281631 -5.73849e-08 -5.08928e-10
0.0281631 -6.20937e-08 -7.30456e-10
0.0281631 -7.78194e-08 -1.60971e-09
0.0281631 -1.04715e-07 -4.43898e-09
0.0281631 -1.41117e-07 -1.25898e-08
0.0281631 -1.83248e-07 -2.58804e-08
0.0281631 -2.31309e-07 -7.79396e-08
0.028163 -2.8938e-07 -3.02289e-07
0.0281629 -3.21221e-07 -4.81943e-07
0.0196 -2.59115e-06 -2.63801e-06
0.0196008 -0.00535111 -0.00272706
0.0191071 -0.0120764 -0.00654144
0.0161892 -0.0146811 -0.0070265
0.0113604 -0.0133768 -0.00663541
0.00219498 -0.0054235 -0.00439266
7.53797e-05 -6.93776e-05 -0.000966812
3.22698e-05 -3.22698e-05 -4.46509e-08
-3.61693e-05 3.80463e-05 0.000146139
0.00484658 0.00368916 0.000300797
0.0110365 0.00823464 0.0002404
0.0138246 0.00770181 -2.40434e-05
0.017116 0.00481471 -0.000290551
0.0204148 0.0023991 -0.000338807
0.0231671 0.00104131 -0.000248394
0.0251369 0.000415719 -0.000118735
0.0263998 0.000145806 -2.29329e-05
0.0271629 2.54568e-05 2.12716e-05
0.0276127 -2.76443e-05 3.08653e-05
0.0278749 -4.64636e-05 2.59015e-05
0.0280262 -4.78492e-05 1.78753e-05
0.0281128 -4.16358e-05 1.11254e-05
0.0281617 -3.32399e-05 6.49137e-06
0.0281891 -2.52329e-05 3.61793e-06
0.0282042 -1.85658e-05 1.9429e-06
0.0282125 -1.33924e-05 1.00718e-06
0.0282169 -9.53908e-06 5.01566e-07
0.0282193 -6.73985e-06 2.36446e-07
0.0282205 -4.73789e-06 1.01818e-07
0.0282212 -3.32009e-06 3.618e-08
0.0282215 -2.32214e-06 6.07343e-09
0.0282216 -1.62242e-06 -6.29761e-09
0.0282216 -1.13297e-06 -1.0193e-08
0.0282217 -7.91179e-07 -1.03134e-08
0.0282217 -5.52803e-07 -8.96877e-09
0.0282216 -3.86801e-07 -7.24053e-09
0.0282216 -2.71472e-07 -5.59408e-09
0.0282216 -1.91702e-07 -4.19762e-09
0.0282216 -1.37024e-07 -3.08568e-09
0.0282216 -1.00259e-07 -2.24481e-09
0.0282216 -7.66068e-08 -1.66571e-09
0.0282216 -6.30129e-08 -1.38509e-09
0.0282216 -5.75293e-08 -1.55591e-09
0.0282216 -5.84626e-08 -2.59559e-09
0.0282216 -6.38343e-08 -5.10151e-09
0.0282216 -7.1062e-08 -1.00042e-08
0.0282215 -7.64393e-08 -2.00862e-08
0.0282215 -7.30689e-08 -3.43913e-08
0.0282214 -5.34316e-08 -8.6619e-08
0.0282214 -1.86998e-08 -3.07528e-07
0.0282212 1.44008e-09 -4.83695e-07
0.0196 -1.27244e-06 -3.53519e-06
0.0196001 -0.00328373 -0.0030708
0.0190086 -0.0069578 -0.0066022
0.017725 -0.0066074 -0.00655999
0.0139024 -0.00290438 -0.0057326
0.0100287 0.00335697 -0.00453952
0.00645828 0.00332929 -0.00225295
7.54408e-05 -6.33144e-05 -0.00042113
2.71451e-05 -2.71451e-05 -1.3015e-07
-3.51174e-05 3.72211e-05 4.15174e-05
0.00367665 0.00282766 0.000339359
0.00830256 0.00397919 0.000378452
0.013738 0.000835942 -3.44717e-05
0.0186316 -0.00121447 -0.000321725
0.0224421 -0.00175751 -0.000377958
0.0249959 -0.00147879 -0.000258924
0.0264923 -0.00102206 -0.000114797
0.0273012 -0.000659357 -2.7969e-05
0.0277246 -0.000419728 5.18787e-06
0.0279438 -0.000267567 1.16331e-05
0.0280563 -0.000170733 9.41366e-06
0.0281133 -0.000108873 5.96721e-06
0.0281416 -6.94217e-05 3.35192e-06
0.0281552 -4.43507e-05 1.73364e-06
0.0281614 -2.84524e-05 8.30354e-07
0.028164 -1.83636e-05 3.5996e-07
0.0281648 -1.19387e-05 1.29565e-07
0.0281649 -7.82298e-06 2.46072e-08
0.0281647 -5.16694e-06 -1.79968e-08
0.0281644 -3.43873e-06 -3.12693e-08
0.0281641 -2.3047e-06 -3.17902e-08
0.0281639 -1.55447e-06 -2.75298e-08
0.0281637 -1.05438e-06 -2.21071e-08
0.0281635 -7.18812e-07 -1.70171e-08
0.0281634 -4.92386e-07 -1.27617e-08
0.0281633 -3.38972e-07 -9.40855e-09
0.0281633 -2.34794e-07 -6.85796e-09
0.0281632 -1.64094e-07 -4.96574e-09
0.0281632 -1.16376e-07 -3.59854e-09
0.0281632 -8.46098e-08 -2.66173e-09
0.0281631 -6.40283e-08 -2.12292e-09
0.0281631 -5.12296e-08 -2.04128e-09
0.0281631 -4.3523e-08 -2.59505e-09
0.0281631 -3.84096e-08 -4.10055e-09
0.0281631 -3.30278e-08 -6.91806e-09
0.0281631 -2.35513e-08 -1.17847e-08
0.028163 -4.30931e-09 -2.16053e-08
0.028163 3.58906e-08 -3.50634e-08
0.0281629 1.16605e-07 -8.31941e-08
0.0281629 2.46698e-07 -2.99529e-07
0.0281628 3.23371e-07 -4.74514e-07
0.018 -8.00397e-07 -3.46949e-06
0.018001 -0.00163899 -0.00301068
0.0184832 -0.00284138 -0.00626573
0.0188258 -0.0012734 -0.00579759
0.0182199 0.00182715 -0.00464069
0.0181659 0.00763148 -0.00363917
0.0187285 0.0126928 -0.00220988
0.0115476 0.00695871 -0.000990739
7.71699e-05 -4.94589e-05 -0.000318171
-2.82111e-05 -5.6894e-05 5.44321e-07
7.79493e-06 -0.000210355 0.000841384
0.00935444 -0.00247877 0.00135153
0.0170804 -0.00539298 0.000696988
0.0219548 -0.00603386 9.68921e-05
0.024847 -0.00505139 -0.000274829
0.0264782 -0.0034567 -0.000324943
0.0272964 -0.00207896 -0.000211373
0.02765 -0.00118388 -0.000101136
0.0277788 -0.000670203 -4.02178e-05
0.0278129 -0.000383601 -1.43357e-05
0.0278124 -0.000222188 -4.88081e-06
0.0278021 -0.000130004 -1.73036e-06
0.0277909 -7.68134e-05 -7.27859e-07
0.0277817 -4.58702e-05 -3.98729e-07
0.0277748 -2.77163e-05 -2.68337e-07
0.0277698 -1.69604e-05 -1.96599e-07
0.0277662 -1.05152e-05 -1.4596e-07
0.0277638 -6.60491e-06 -1.07142e-07
0.0277621 -4.2013e-06 -7.74447e-08
0.0277609 -2.70421e-06 -5.52615e-08
0.0277601 -1.75962e-06 -3.90769e-08
0.0277595 -1.15628e-06 -2.74797e-08
0.0277592 -7.66515e-07 -1.92705e-08
0.0277589 -5.12165e-07 -1.35029e-08
0.0277587 -3.44741e-07 -9.46756e-09
0.0277586 -2.33772e-07 -6.65111e-09
0.0277585 -1.59875e-07 -4.69132e-09
0.0277584 -1.10569e-07 -3.33942e-09
0.0277584 -7.77145e-08 -2.43326e-09
0.0277583 -5.58896e-08 -1.88257e-09
0.0277583 -4.13457e-08 -1.6635e-09
0.0277583 -3.12859e-08 -1.81721e-09
0.0277583 -2.33094e-08 -2.46804e-09
0.0277582 -1.49063e-08 -3.86602e-09
0.0277582 -2.86791e-09 -6.28325e-09
0.0277582 1.75098e-08 -1.0297e-08
0.0277582 5.32799e-08 -1.87315e-08
0.0277582 1.18315e-07 -2.96753e-08
0.0277582 2.47352e-07 -6.82444e-08
0.0277582 4.6774e-07 -2.73377e-07
0.0277582 6.01374e-07 -4.45028e-07
0.0148 -4.72331e-07 -3.01947e-06
0.0148015 -0.000731747 -0.00280199
0.0164851 -0.000771264 -0.00560223
0.0185889 0.00114623 -0.00484476
0.0205692 0.00412876 -0.00360476
0.0226747 0.00761583 -0.00287271
0.0262842 0.0127483 -0.00202903
0.0293964 0.0198207 -0.00111398
0.0239518 0.0117458 -0.000146188
0.0243394 3.58941e-11 0.0005853
0.0278822 -0.00694552 0.00150576
0.0324829 -0.0137336 0.00231868
0.0336868 -0.0119908 0.00201994
0.0323938 -0.0088677 0.00115938
0.030297 -0.00600779 0.000158954
0.0285358 -0.00368001 -0.000344598
0.0273918 -0.00204458 -0.000359065
0.0267218 -0.0010732 -0.000218357
0.0263404 -0.000556749 -0.000106014
0.0261234 -0.000292908 -4.6274e-05
0.0259992 -0.000157622 -1.92405e-05
0.0259274 -8.683e-05 -7.85832e-06
0.0258854 -4.8893e-05 -3.21188e-06
0.0258606 -2.80894e-05 -1.33082e-06
0.0258457 -1.6436e-05 -5.63842e-07
0.0258367 -9.78007e-06 -2.44998e-07
0.0258311 -5.91046e-06 -1.08616e-07
0.0258276 -3.62365e-06 -4.83626e-08
0.0258254 -2.2515e-06 -2.09737e-08
0.0258239 -1.41633e-06 -8.32999e-09
0.025823 -9.01131e-07 -2.53811e-09
0.0258224 -5.79314e-07 -5.73535e-12
0.025822 -3.75966e-07 9.69452e-10
0.0258217 -2.46144e-07 1.21765e-09
0.0258215 -1.62523e-07 1.14757e-09
0.0258214 -1.08273e-07 9.57033e-10
0.0258213 -7.28954e-08 7.35826e-10
0.0258212 -4.97434e-08 5.1707e-10
0.0258212 -3.45276e-08 3.02327e-10
0.0258212 -2.4384e-08 7.17623e-11
0.0258212 -1.72652e-08 -2.16333e-10
0.0258211 -1.15054e-08 -6.33351e-10
0.0258211 -5.45481e-09 -1.30004e-09
0.0258211 2.88824e-09 -2.42508e-09
0.0258211 1.63342e-08 -4.22386e-09
0.0258211 3.9459e-08 -7.07079e-09
0.0258211 7.97814e-08 -1.30602e-08
0.0258211 1.50226e-07 -2.03349e-08
0.0258212 2.93126e-07 -4.74867e-08
0.0258214 5.52906e-07 -2.29073e-07
0.0258216 7.14674e-07 -3.86604e-07
0.01 -9.17542e-07 -2.69303e-06
0.0100007 -0.000453339 -0.00233166
0.0117262 -0.000231814 -0.00439151