# vtk DataFile Version 2.0
Tobias Weinzierl: CPU, Manycore and Cluster Computing
ASCII

DATASET STRUCTURED_POINTS
DIMENSIONS  51 11 6

ORIGIN 0 0 0 

SPACING 0.1 0.1 0.1 

POINT_DATA 3366

VECTORS velocity float
0 0 0
8.28141e-12 0 0
2.76206e-09 0 0
-4.19198e-08 0 0
-1.28669e-07 0 0
-5.43102e-08 0 0
-3.46023e-08 0 0
-2.1513e-08 0 0
-4.15901e-09 0 0
2.36946e-09 0 0
-1.0279e-08 0 0
-3.43398e-08 0 0
-5.54405e-08 0 0
-6.5563e-08 0 0
-6.63486e-08 0 0
-6.36851e-08 0 0
-6.17236e-08 0 0
-6.15468e-08 0 0
-6.26071e-08 0 0
-6.40985e-08 0 0
-6.54965e-08 0 0
-6.6586e-08 0 0
-6.73421e-08 0 0
-6.78212e-08 0 0
-6.80996e-08 0 0
-6.82451e-08 0 0
-6.8309e-08 0 0
-6.83266e-08 0 0
-6.83202e-08 0 0
-6.83034e-08 0 0
-6.82835e-08 0 0
-6.82643e-08 0 0
-6.82474e-08 0 0
-6.82333e-08 0 0
-6.82219e-08 0 0
-6.82129e-08 0 0
-6.82057e-08 0 0
-6.82001e-08 0 0
-6.81957e-08 0 0
-6.81922e-08 0 0
-6.81893e-08 0 0
-6.8187e-08 0 0
-6.81851e-08 0 0
-6.81835e-08 0 0
-6.81823e-08 0 0
-6.81813e-08 0 0
-6.81807e-08 0 0
-6.81807e-08 0 0
-6.81812e-08 0 0
-6.81847e-08 0 0
0.00220661 0 0
0 3.976e-07 0
1.8168e-11 -9.5468e-09 0
8.90988e-09 -6.23311e-09 0
-6.47446e-08 2.06291e-08 0
-1.92056e-07 -1.35971e-09 0
-7.32841e-08 9.40496e-09 0
-6.25251e-08 7.03387e-08 0
-6.42843e-08 6.75846e-08 0
-4.15574e-08 4.08529e-08 0
-2.2488e-08 3.13336e-08 0
-3.1258e-08 3.48585e-08 0
-6.40064e-08 3.61e-08 0
-9.80434e-08 2.68167e-08 0
-1.15885e-07 1.2431e-08 0
-1.19004e-07 2.06354e-09 0
-1.1829e-07 -1.39118e-09 0
-1.20476e-07 -7.07883e-10 0
-1.26019e-07 8.31353e-10 0
-1.32872e-07 1.74499e-09 0
-1.39234e-07 1.90353e-09 0
-1.4426e-07 1.62285e-09 0
-1.47825e-07 1.19796e-09 0
-1.50158e-07 7.95054e-10 0
-1.51579e-07 4.78377e-10 0
-1.52383e-07 2.56296e-10 0
-1.52797e-07 1.13773e-10 0
-1.5298e-07 2.98484e-11 0
-1.53035e-07 -1.46347e-11 0
-1.53024e-07 -3.45159e-11 0
-1.52986e-07 -4.02035e-11 0
-1.52939e-07 -3.84711e-11 0
-1.52893e-07 -3.34387e-11 0
-1.52853e-07 -2.74355e-11 0
-1.5282e-07 -2.1659e-11 0
-1.52793e-07 -1.66344e-11 0
-1.52772e-07 -1.25147e-11 0
-1.52756e-07 -9.26468e-12 0
-1.52743e-07 -6.76845e-12 0
-1.52733e-07 -4.88694e-12 0
-1.52725e-07 -3.48669e-12 0
-1.52718e-07 -2.452e-12 0
-1.52713e-07 -1.68785e-12 0
-1.52709e-07 -1.11722e-12 0
-1.52706e-07 -6.79399e-13 0
-1.52704e-07 -3.29809e-13 0
-1.52702e-07 -2.64413e-15 0
-1.52701e-07 4.04908e-13 0
-1.52702e-07 9.73475e-13 0
-1.52706e-07 3.12706e-12 0
-1.52715e-07 1.15609e-11 0
0.00620165 -9.35585e-08 0
0 -1.75854e-08 0
2.25354e-11 -8.39767e-09 0
3.14081e-08 -3.02703e-08 0
2.50312e-09 -7.61566e-08 0
-5.05491e-08 -1.53314e-07 0
4.48324e-08 -9.09459e-08 0
-2.01662e-08 5.25409e-08 0
-7.60155e-08 7.34085e-08 0
-8.61523e-08 4.68152e-08 0
-6.01668e-08 2.73197e-08 0
-5.09509e-08 1.27536e-08 0
-6.87907e-08 7.05596e-09 0
-9.55617e-08 1.27851e-08 0
-1.09511e-07 2.26975e-08 0
-1.09107e-07 2.89475e-08 0
-1.05682e-07 2.96106e-08 0
-1.06612e-07 2.6422e-08 0
-1.12166e-07 2.14955e-08 0
-1.19645e-07 1.62749e-08 0
-1.26682e-07 1.15878e-08 0
-1.32163e-07 7.80628e-09 0
-1.35935e-07 4.98825e-09 0
-1.38294e-07 3.01722e-09 0
-1.39645e-07 1.71169e-09 0
-1.40343e-07 8.90133e-10 0
-1.40651e-07 4.00049e-10 0
-1.40743e-07 1.25548e-10 0
-1.40728e-07 -1.55047e-11 0
-1.40667e-07 -7.81643e-11 0
-1.40593e-07 -9.75617e-11 0
-1.40522e-07 -9.50666e-11 0
-1.40461e-07 -8.30211e-11 0
-1.4041e-07 -6.81222e-11 0
-1.4037e-07 -5.36972e-11 0
-1.40339e-07 -4.11624e-11 0
-1.40315e-07 -3.09157e-11 0
-1.40297e-07 -2.2859e-11 0
-1.40283e-07 -1.66889e-11 0
-1.40272e-07 -1.20484e-11 0
-1.40264e-07 -8.59893e-12 0
-1.40257e-07 -6.04803e-12 0
-1.40252e-07 -4.15545e-12 0
-1.40248e-07 -2.72479e-12 0
-1.40245e-07 -1.58166e-12 0
-1.40242e-07 -5.62121e-13 0
-1.40241e-07 5.2341e-13 0
-1.40241e-07 2.25759e-12 0
-1.40243e-07 5.94071e-12 0
-1.40246e-07 1.20889e-11 0
-1.40253e-07 2.00498e-11 0
0.00858936 -1.68922e-07 0
0 -6.28255e-07 0
2.34292e-11 -1.92823e-08 0
4.90098e-08 -6.9541e-08 0
3.96865e-08 -1.44261e-07 0
-2.56907e-08 -1.99738e-07 0
6.38065e-08 -1.05772e-07 0
7.70921e-09 -7.63779e-11 0
-3.32445e-08 -1.31231e-08 0
-8.78719e-08 -4.69088e-08 0
-8.54423e-08 -7.26173e-08 0
-8.46224e-08 -7.06211e-08 0
-1.08717e-07 -4.16796e-08 0
-1.35429e-07 2.89133e-09 0
-1.44606e-07 3.65479e-08 0
-1.34187e-07 4.87006e-08 0
-1.16137e-07 4.64233e-08 0
-1.01262e-07 3.86272e-08 0
-9.3299e-08 2.98611e-08 0
-9.08009e-08 2.17414e-08 0
-9.0991e-08 1.49034e-08 0
-9.18934e-08 9.5975e-09 0
-9.26233e-08 5.78021e-09 0
-9.2975e-08 3.21596e-09 0
-9.30195e-08 1.60064e-09 0
-9.28859e-08 6.47925e-10 0
-9.26785e-08 1.27902e-10 0
-9.24616e-08 -1.26351e-10 0
-9.2267e-08 -2.2737e-10 0
-9.21063e-08 -2.46508e-10 0
-9.19801e-08 -2.26486e-10 0
-9.18839e-08 -1.91364e-10 0
-9.18121e-08 -1.53711e-10 0
-9.1759e-08 -1.19384e-10 0
-9.17199e-08 -9.05498e-11 0
-9.16912e-08 -6.74908e-11 0
-9.16699e-08 -4.96382e-11 0
-9.16541e-08 -3.61233e-11 0
-9.16421e-08 -2.60535e-11 0
-9.16329e-08 -1.86319e-11 0
-9.16258e-08 -1.31961e-11 0
-9.16202e-08 -9.21521e-12 0
-9.16156e-08 -6.26894e-12 0
-9.16119e-08 -4.02173e-12 0
-9.1609e-08 -2.18553e-12 0
-9.16067e-08 -4.12358e-13 0
-9.16051e-08 1.77387e-12 0
-9.16041e-08 4.623e-12 0
-9.16036e-08 7.84387e-12 0
-9.1602e-08 1.12639e-11 0
-9.16027e-08 1.53006e-11 0
0.0093485 -1.53309e-07 0
0 -1.20619e-06 0
-5.88036e-12 -3.63349e-08 0
2.34868e-08 -9.83942e-08 0
-5.51505e-09 -1.26707e-07 0
-8.2231e-08 -9.85811e-08 0
-3.53121e-11 -3.39737e-08 0
-7.55629e-10 -7.23312e-10 0
6.61631e-10 -7.22026e-10 0
-3.91181e-08 -4.34997e-08 0
-1.09035e-07 -1.02733e-07 0
-1.32268e-07 -1.01404e-07 0
-1.50808e-07 -5.27022e-08 0
-1.7032e-07 6.16352e-09 0
-1.76798e-07 4.25678e-08 0
-1.65542e-07 4.87811e-08 0
-1.41308e-07 4.00774e-08 0
-1.15117e-07 2.94207e-08 0
-9.52153e-08 2.08318e-08 0
-8.30528e-08 1.41235e-08 0
-7.63575e-08 8.84331e-09 0
-7.26262e-08 4.90408e-09 0
-7.03302e-08 2.22491e-09 0
-6.87599e-08 5.88594e-10 0
-6.76242e-08 -2.90877e-10 0
-6.67956e-08 -6.80244e-10 0
-6.61993e-08 -7.84407e-10 0
-6.57789e-08 -7.41738e-10 0
-6.54882e-08 -6.36698e-10 0
-6.52902e-08 -5.16088e-10 0
-6.51565e-08 -4.02952e-10 0
-6.50666e-08 -3.06572e-10 0
-6.50061e-08 -2.28946e-10 0
-6.49651e-08 -1.68646e-10 0
-6.49369e-08 -1.22948e-10 0
-6.49172e-08 -8.89168e-11 0
-6.49031e-08 -6.38946e-11 0
-6.48927e-08 -4.56664e-11 0
-6.48849e-08 -3.24746e-11 0
-6.48788e-08 -2.29664e-11 0
-6.48738e-08 -1.61192e-11 0
-6.48698e-08 -1.1168e-11 0
-6.48663e-08 -7.53669e-12 0
-6.48633e-08 -4.7702e-12 0
-6.48606e-08 -2.50057e-12 0
-6.48582e-08 -5.05631e-13 0
-6.48557e-08 1.23975e-12 0
-6.4853e-08 2.67766e-12 0
-6.48504e-08 3.83531e-12 0
-6.48471e-08 5.08026e-12 0
-6.48466e-08 7.26186e-12 0
0.00954205 -8.29972e-08 0
0 -1.07857e-06 0
-2.5318e-11 -3.69967e-08 0
-1.09417e-09 -7.79281e-08 0
-3.58026e-08 -1.00112e-07 0
-1.10019e-07 -1.1695e-07 0
-6.42826e-08 -5.77803e-08 0
-7.23213e-10 6.93457e-10 0
-3.14779e-11 3.14779e-11 0
6.28915e-10 -6.94529e-10 0
-5.8902e-08 -5.22014e-08 0
-1.36759e-07 -1.02919e-07 0
-1.39368e-07 -6.08193e-08 0
-1.49824e-07 1.28747e-08 0
-1.67038e-07 5.37544e-08 0
-1.76175e-07 5.2903e-08 0
-1.62571e-07 3.35577e-08 0
-1.33685e-07 1.63187e-08 0
-1.0559e-07 6.32059e-09 0
-8.59745e-08 1.13036e-09 0
-7.43133e-08 -1.65106e-09 0
-6.77117e-08 -3.05198e-09 0
-6.38998e-08 -3.51786e-09 0
-6.16085e-08 -3.38433e-09 0
-6.01927e-08 -2.93928e-09 0
-5.93117e-08 -2.39042e-09 0
-5.87676e-08 -1.85966e-09 0
-5.84366e-08 -1.40312e-09 0
-5.82387e-08 -1.03636e-09 0
-5.81223e-08 -7.54216e-10 0
-5.8055e-08 -5.43292e-10 0
-5.80164e-08 -3.88605e-10 0
-5.79944e-08 -2.76615e-10 0
-5.79816e-08 -1.96239e-10 0
-5.7974e-08 -1.38886e-10 0
-5.7969e-08 -9.81177e-11 0
-5.79655e-08 -6.921e-11 0
-5.79626e-08 -4.87429e-11 0
-5.79601e-08 -3.42606e-11 0
-5.79578e-08 -2.40083e-11 0
-5.79555e-08 -1.67337e-11 0
-5.79532e-08 -1.15413e-11 0
-5.7951e-08 -7.79377e-12 0
-5.79487e-08 -5.05895e-12 0
-5.79463e-08 -3.06782e-12 0
-5.79438e-08 -1.64736e-12 0
-5.79412e-08 -6.65016e-13 0
-5.79386e-08 -6.30769e-14 0
-5.79366e-08 1.00809e-13 0
-5.79343e-08 -2.51873e-14 0
-5.79344e-08 3.25183e-13 0
0.00957572 5.32248e-09 0
0 -7.54081e-07 0
-1.36854e-11 -2.8581e-08 0
-3.06831e-09 -6.97339e-08 0
-3.69106e-08 -8.21926e-08 0
-1.30751e-07 -7.22446e-08 0
-1.48199e-07 -3.86145e-08 0
-4.68976e-08 -7.40311e-09 0
-7.11773e-10 6.75304e-10 0
-4.60506e-11 4.60506e-11 0
5.87895e-10 -6.70112e-10 0
-5.91414e-08 -5.30452e-08 0
-7.40413e-08 -5.76671e-08 0
-7.9779e-08 3.26803e-08 0
-1.08576e-07 8.14818e-08 0
-1.48956e-07 7.02375e-08 0
-1.62667e-07 3.31558e-08 0
-1.43554e-07 3.94664e-09 0
-1.13913e-07 -9.64423e-09 0
-9.06535e-08 -1.34371e-08 0
-7.69562e-08 -1.30459e-08 0
-7.00109e-08 -1.11662e-08 0
-6.67616e-08 -8.90481e-09 0
-6.53248e-08 -6.75961e-09 0
-6.47375e-08 -4.95053e-09 0
-6.45386e-08 -3.53526e-09 0
-6.45102e-08 -2.48262e-09 0
-6.45497e-08 -1.72564e-09 0
-6.46097e-08 -1.19295e-09 0
-6.46694e-08 -8.22949e-10 0
-6.47209e-08 -5.67745e-10 0
-6.47621e-08 -3.92214e-10 0
-6.47935e-08 -2.71498e-10 0
-6.48167e-08 -1.8835e-10 0
-6.48333e-08 -1.30941e-10 0
-6.48448e-08 -9.11933e-11 0
-6.48524e-08 -6.35966e-11 0
-6.48572e-08 -4.43846e-11 0
-6.48599e-08 -3.09751e-11 0
-6.48612e-08 -2.15907e-11 0
-6.48614e-08 -1.50055e-11 0
-6.48608e-08 -1.03762e-11 0
-6.48597e-08 -7.12578e-12 0
-6.48582e-08 -4.8586e-12 0
-6.48564e-08 -3.30481e-12 0
-6.48545e-08 -2.29515e-12 0
-6.48525e-08 -1.74858e-12 0
-6.48507e-08 -1.69822e-12 0
-6.48495e-08 -2.40219e-12 0
-6.48483e-08 -4.13088e-12 0
-6.48488e-08 -6.37495e-12 0
0.00954201 9.16412e-08 0
0 -5.30257e-07 0
-4.30753e-12 -2.289e-08 0
-6.10077e-09 -5.49374e-08 0
-4.83664e-08 -6.25057e-08 0
-1.31161e-07 -4.27441e-08 0
-1.66399e-07 -1.20651e-08 0
-1.15962e-07 -8.92541e-09 0
-5.37468e-08 -9.15001e-09 0
-7.2524e-10 6.25443e-10 0
5.69569e-10 6.4409e-10 0
-2.40476e-11 -2.81939e-08 0
-5.72344e-08 -1.79904e-08 0
-5.43751e-08 6.10902e-08 0
-4.05826e-08 1.05768e-07 0
-6.94226e-08 8.48816e-08 0
-1.11028e-07 3.4721e-08 0
-1.24205e-07 -3.39491e-09 0
-1.13533e-07 -1.95906e-08 0
-9.92921e-08 -2.19892e-08 0
-9.06143e-08 -1.88959e-08 0
-8.73022e-08 -1.45206e-08 0
-8.69056e-08 -1.04904e-08 0
-8.76241e-08 -7.29516e-09 0
-8.85707e-08 -4.95685e-09 0
-8.94106e-08 -3.32652e-09 0
-9.00619e-08 -2.22198e-09 0
-9.05367e-08 -1.48496e-09 0
-9.08722e-08 -9.96058e-10 0
-9.11056e-08 -6.71683e-10 0
-9.12667e-08 -4.55621e-10 0
-9.13776e-08 -3.10856e-10 0
-9.14536e-08 -2.13212e-10 0
-9.15056e-08 -1.46912e-10 0
-9.1541e-08 -1.01615e-10 0
-9.15649e-08 -7.0496e-11 0
-9.15808e-08 -4.90158e-11 0
-9.15912e-08 -3.41297e-11 0
-9.15977e-08 -2.37797e-11 0
-9.16015e-08 -1.65665e-11 0
-9.16035e-08 -1.15336e-11 0
-9.16042e-08 -8.0242e-12 0
-9.1604e-08 -5.58787e-12 0
-9.16031e-08 -3.92189e-12 0
-9.16019e-08 -2.83636e-12 0
-9.16006e-08 -2.23853e-12 0
-9.15991e-08 -2.12785e-12 0
-9.15979e-08 -2.59785e-12 0
-9.15974e-08 -4.04217e-12 0
-9.15972e-08 -7.48778e-12 0
-9.15989e-08 -1.33655e-11 0
0.00934842 1.54301e-07 0
0 -4.59182e-07 0
5.95173e-12 -1.46582e-08 0
-1.27326e-08 -3.84004e-08 0
-6.82294e-08 -4.65576e-08 0
-1.47505e-07 -3.08902e-08 0
-1.8175e-07 2.07071e-09 0
-1.47606e-07 6.79325e-09 0
-1.15774e-07 -4.08139e-08 0
-6.56189e-08 -3.74606e-08 0
-5.26353e-08 5.57061e-13 0
-8.31352e-08 1.89048e-08 0
-1.67921e-07 4.48499e-08 0
-1.4988e-07 5.75675e-08 0
-5.60415e-08 6.08776e-08 0
-2.56642e-08 4.64644e-08 0
-7.18112e-08 2.14448e-08 0
-1.16868e-07 3.91976e-10 0
-1.31226e-07 -1.03501e-08 0
-1.30673e-07 -1.26383e-08 0
-1.2921e-07 -1.09308e-08 0
-1.29965e-07 -8.25579e-09 0
-1.31974e-07 -5.84794e-09 0
-1.34132e-07 -4.01221e-09 0
-1.35935e-07 -2.71322e-09 0
-1.37281e-07 -1.82724e-09 0
-1.38231e-07 -1.23273e-09 0
-1.38883e-07 -8.35491e-10 0
-1.39325e-07 -5.69407e-10 0
-1.39623e-07 -3.90181e-10 0
-1.39825e-07 -2.68669e-10 0
-1.39962e-07 -1.85762e-10 0
-1.40054e-07 -1.28873e-10 0
-1.40117e-07 -8.96451e-11 0
-1.4016e-07 -6.24851e-11 0
-1.40189e-07 -4.36168e-11 0
-1.40208e-07 -3.04731e-11 0
-1.40221e-07 -2.12982e-11 0
-1.40229e-07 -1.48845e-11 0
-1.40234e-07 -1.03979e-11 0
-1.40236e-07 -7.26134e-12 0
-1.40238e-07 -5.07632e-12 0
-1.40238e-07 -3.57172e-12 0
-1.40237e-07 -2.57126e-12 0
-1.40236e-07 -1.97271e-12 0
-1.40235e-07 -1.74174e-12 0
-1.40234e-07 -1.93741e-12 0
-1.40234e-07 -2.71026e-12 0
-1.40234e-07 -4.45179e-12 0
-1.40236e-07 -8.79414e-12 0
-1.40241e-07 -1.76265e-11 0
0.00858929 1.56507e-07 0
0 -4.79958e-07 0
1.65682e-11 -5.86635e-09 0
-1.97826e-08 -1.76551e-08 0
-8.03055e-08 -2.24918e-08 0
-1.48972e-07 -1.53297e-08 0
-1.82066e-07 -6.74143e-09 0
-1.58766e-07 -7.0012e-09 0
-1.35491e-07 -2.94137e-08 0
-1.53682e-07 -3.23512e-08 0
-1.36752e-07 1.11656e-08 0
-1.37026e-07 6.12435e-08 0
-1.4375e-07 7.5225e-08 0
-1.097e-07 3.81247e-08 0
-4.39445e-08 -1.18816e-08 0
-3.58301e-08 -3.90001e-08 0
-8.88633e-08 -3.49196e-08 0
-1.36537e-07 -1.56186e-08 0
-1.52616e-07 -6.61808e-10 0
-1.51901e-07 4.41608e-09 0
-1.48775e-07 3.90044e-09 0
-1.47473e-07 2.10253e-09 0
-1.47733e-07 7.31178e-10 0
-1.48644e-07 5.3237e-12 0
-1.4964e-07 -2.8159e-10 0
-1.5049e-07 -3.42315e-10 0
-1.51143e-07 -3.09181e-10 0
-1.51619e-07 -2.48557e-10 0
-1.51956e-07 -1.88558e-10 0
-1.52192e-07 -1.38577e-10 0
-1.52355e-07 -1.0002e-10 0
-1.52468e-07 -7.14325e-11 0
-1.52546e-07 -5.06952e-11 0
-1.52599e-07 -3.58369e-11 0
-1.52635e-07 -2.52667e-11 0
-1.5266e-07 -1.77789e-11 0
-1.52676e-07 -1.24884e-11 0
-1.52687e-07 -8.75731e-12 0
-1.52694e-07 -6.13004e-12 0
-1.52698e-07 -4.28354e-12 0
-1.527e-07 -2.99031e-12 0
-1.52701e-07 -2.09186e-12 0
-1.52701e-07 -1.48075e-12 0
-1.527e-07 -1.0895e-12 0
-1.52699e-07 -8.83035e-13 0
-1.52698e-07 -8.59516e-13 0
-1.52697e-07 -1.07352e-12 0
-1.52697e-07 -1.64869e-12 0
-1.52699e-07 -2.78063e-12 0
-1.52702e-07 -5.42517e-12 0
-1.52712e-07 -1.16033e-11 0
0.00620166 7.61338e-08 0
0 0 0
1.13372e-11 0 0
-1.0914e-08 0 0
-3.94611e-08 0 0
-6.8194e-08 0 0
-8.27628e-08 0 0
-8.02394e-08 0 0
-7.34459e-08 0 0
-8.81133e-08 0 0
-8.41347e-08 0 0
-5.39146e-08 0 0
-1.71763e-08 0 0
3.60946e-09 0 0
4.43391e-09 0 0
-1.90003e-08 0 0
-5.17371e-08 0 0
-7.22888e-08 0 0
-7.699e-08 0 0
-7.4209e-08 0 0
-7.0624e-08 0 0
-6.83779e-08 0 0
-6.73993e-08 0 0
-6.71561e-08 0 0
-6.72387e-08 0 0
-6.74236e-08 0 0
-6.76121e-08 0 0
-6.77697e-08 0 0
-6.78908e-08 0 0
-6.79797e-08 0 0
-6.80433e-08 0 0
-6.80882e-08 0 0
-6.81196e-08 0 0
-6.81412e-08 0 0
-6.81561e-08 0 0
-6.81661e-08 0 0
-6.81727e-08 0 0
-6.8177e-08 0 0
-6.81796e-08 0 0
-6.81811e-08 0 0
-6.81818e-08 0 0
-6.81819e-08 0 0
-6.81817e-08 0 0
-6.81813e-08 0 0
-6.81807e-08 0 0
-6.81802e-08 0 0
-6.81798e-08 0 0
-6.81798e-08 0 0
-6.81806e-08 0 0
-6.81826e-08 0 0
-6.81883e-08 0 0
0.00220664 0 0
0 0 5.36759e-07
2.62368e-11 0 6.77857e-09
1.68174e-08 0 4.81551e-08
-5.52074e-08 0 1.10796e-07
-3.37937e-07 0 1.37444e-08
-1.40563e-07 0 -1.03477e-07
-6.26395e-08 0 -1.03141e-07
-4.77257e-09 0 -9.80333e-08
4.73757e-08 0 -6.47407e-08
7.73815e-08 0 -2.52189e-08
6.81474e-08 0 1.84573e-09
2.43039e-08 0 9.05681e-09
-3.00942e-08 0 4.40236e-09
-7.28157e-08 0 -1.52659e-09
-9.74285e-08 0 -3.94461e-09
-1.10374e-07 0 -3.23642e-09
-1.19443e-07 0 -1.43248e-09
-1.28012e-07 0 5.06588e-11
-1.36161e-07 0 8.05658e-10
-1.43127e-07 0 9.85079e-10
-1.48477e-07 0 8.64273e-10
-1.52244e-07 0 6.47576e-10
-1.54713e-07 0 4.40318e-10
-1.56228e-07 0 2.7959e-10
-1.57098e-07 0 1.68225e-10
-1.57556e-07 0 9.65088e-11
-1.57767e-07 0 5.27562e-11
-1.57839e-07 0 2.72364e-11
-1.57839e-07 0 1.29695e-11
-1.57805e-07 0 5.35273e-12
-1.5776e-07 0 1.51761e-12
-1.57715e-07 0 -2.49731e-13
-1.57675e-07 0 -9.37153e-13
-1.57641e-07 0 -1.09454e-12
-1.57613e-07 0 -1.01651e-12
-1.57592e-07 0 -8.536e-13
-1.57574e-07 0 -6.77576e-13
-1.57561e-07 0 -5.18697e-13
-1.57551e-07 0 -3.86222e-13
-1.57542e-07 0 -2.79267e-13
-1.57536e-07 0 -1.92411e-13
-1.57531e-07 0 -1.17963e-13
-1.57527e-07 0 -4.47249e-14
-1.57523e-07 0 4.11978e-14
-1.57521e-07 0 1.51326e-13
-1.57519e-07 0 3.22975e-13
-1.57518e-07 0 5.92051e-13
-1.57518e-07 0 7.87878e-13
-1.57521e-07 0 1.81832e-12
-1.57531e-07 0 8.31965e-12
0.00617426 0 -4.29065e-08
0.0036 -2.62885e-07 -3.26438e-08
0.00359983 -0.00128435 1.69774e-05
0.00676637 -0.0038352 -2.60986e-05
0.0136854 -0.00660184 -0.00124845
0.0242533 -0.0143013 -0.00487398
0.0461141 -0.0121926 -0.00494138
0.0493812 -0.00140028 -0.00165128
0.0490157 0.0029482 -0.000104155
0.043845 0.0052084 0.00064344
0.0381341 0.00534992 0.000585957
0.0330363 0.00459624 0.000227446
0.0288222 0.00353256 -0.000135539
0.0255198 0.0024686 -0.000347424
0.0230603 0.00160472 -0.000372818
0.0213079 0.00101189 -0.000280813
0.0200983 0.000644697 -0.000164875
0.0192839 0.000420083 -7.78731e-05
0.0187486 0.000276168 -2.83441e-05
0.0184059 0.000179805 -5.5463e-06
0.0181925 0.00011455 2.69573e-06
0.0180633 7.1007e-05 4.42795e-06
0.0179874 4.27058e-05 3.82944e-06
0.0179442 2.48451e-05 2.71824e-06
0.0179207 1.39059e-05 1.7386e-06
0.0179084 7.40856e-06 1.03664e-06
0.0179025 3.6759e-06 5.83718e-07
0.0179 1.61396e-06 3.10671e-07
0.0178993 5.31569e-07 1.54525e-07
0.0178994 4.67603e-09 6.94691e-08
0.0178999 -2.19544e-07 2.55515e-08
0.0179004 -2.87392e-07 4.43501e-09
0.0179009 -2.80746e-07 -4.59595e-09
0.0179013 -2.43583e-07 -7.55992e-09
0.0179016 -1.98238e-07 -7.70871e-09
0.0179018 -1.55095e-07 -6.72389e-09
0.017902 -1.18218e-07 -5.42617e-09
0.0179022 -8.85259e-08 -4.18145e-09
0.0179023 -6.5515e-08 -3.12603e-09
0.0179024 -4.81616e-08 -2.28805e-09
0.0179024 -3.53632e-08 -1.65227e-09
0.0179025 -2.61359e-08 -1.19665e-09
0.0179025 -1.96846e-08 -9.10701e-10
0.0179025 -1.54174e-08 -8.05258e-10
0.0179025 -1.29718e-08 -9.52224e-10
0.0179026 -1.21608e-08 -1.42164e-09
0.0179026 -1.29009e-08 -2.09959e-09
0.0179026 -1.59089e-08 -2.91459e-09
0.0179026 -2.17625e-08 -5.61057e-10
0.0179027 -4.73896e-08 -5.27434e-10
0.0179029 -1.77821e-07 -6.9993e-08
0.0179032 -2.86254e-07 -1.36704e-07
0.01 -1.32346e-07 -1.39456e-06
0.0100008 -0.00300679 -0.000508515
0.0149169 -0.00993918 -0.000782244
0.0240958 -0.0179133 -0.00180762
0.0378507 -0.0315203 -0.00373064
0.0578895 -0.0231786 -0.000920504
0.0554364 -0.00205685 0.00267844
0.0551503 0.00562266 0.00282338
0.0494928 0.0105847 0.00252073
0.0440435 0.0106134 0.00168932
0.0395603 0.00940232 0.000719906
0.035765 0.00782443 -6.43358e-05
0.0326358 0.00612667 -0.000513277
0.0302558 0.00450897 -0.000604292
0.0285499 0.00314836 -0.000468477
0.0273778 0.00211634 -0.000279579
0.0265992 0.00138394 -0.000134468
0.0260983 0.000884299 -5.0528e-05
0.025787 0.000552395 -1.11003e-05
0.0256008 0.000337005 3.69966e-06
0.0254941 0.000200471 7.25202e-06
0.0254357 0.00011597 6.60955e-06
0.0254056 6.49343e-05 4.90404e-06
0.0253914 3.4892e-05 3.29429e-06
0.0253857 1.77011e-05 2.08512e-06
0.0253843 8.18752e-06 1.26758e-06
0.0253847 3.14394e-06 7.47809e-07
0.025386 6.29201e-07 4.30641e-07
0.0253873 -5.03338e-07 2.42846e-07
0.0253885 -9.13715e-07 1.34284e-07
0.0253896 -9.70939e-07 7.27972e-08
0.0253904 -8.74063e-07 3.86194e-08
0.025391 -7.25453e-07 1.99698e-08
0.0253915 -5.74097e-07 9.99249e-09
0.0253918 -4.4059e-07 4.77616e-09
0.025392 -3.31182e-07 2.12808e-09
0.0253922 -2.45426e-07 8.39215e-10
0.0253924 -1.80195e-07 2.54028e-10
0.0253924 -1.31678e-07 2.32998e-11
0.0253925 -9.62889e-08 -3.74527e-11
0.0253926 -7.10271e-08 -3.31698e-11
0.0253926 -5.35756e-08 -3.77645e-11
0.0253926 -4.22697e-08 -1.02185e-10
0.0253927 -3.61057e-08 -3.09419e-10
0.0253927 -3.49936e-08 -7.46893e-10
0.0253927 -3.95608e-08 -7.46904e-10
0.0253927 -5.42632e-08 3.03533e-10
0.0253928 -1.0007e-07 3.6309e-09
0.025393 -2.03993e-07 -3.75391e-09
0.0253932 -3.89209e-07 -1.17317e-07
0.0253933 -5.05446e-07 -2.20964e-07
0.0148 -9.55799e-07 -1.68949e-06
0.0148023 -0.00527633 -0.001067
0.0201818 -0.0161896 -0.00239123
0.0268342 -0.0280461 -0.00418688
0.0312775 -0.0446102 -0.00553088
0.0297864 -0.0274964 -0.00104289
0.0263882 -1.16254e-05 0.00298867
0.0261134 0.00728836 0.00301192
0.0301863 0.0150417 0.00286474
0.0306426 0.0146829 0.0019344
0.0296762 0.0129405 0.000930908
0.0286285 0.0109265 9.2729e-05
0.0278237 0.00855453 -0.000366896
0.0274817 0.00616857 -0.000470397
0.0274287 0.00419552 -0.00035827
0.0274865 0.00275169 -0.000196741
0.0275605 0.00176165 -7.3789e-05
0.0276221 0.00110343 -6.14224e-06
0.0276707 0.000674105 2.07626e-05
0.0277107 0.000399932 2.57337e-05
0.0277443 0.000229364 2.18607e-05
0.027772 0.000126355 1.59328e-05
0.0277941 6.6106e-05 1.06677e-05
0.0278111 3.20832e-05 6.76548e-06
0.0278236 1.36475e-05 4.13055e-06
0.0278326 4.18233e-06 2.45046e-06
0.027839 -2.98471e-07 1.42047e-06
0.0278434 -2.12396e-06 8.07147e-07
0.0278465 -2.613e-06 4.50273e-07
0.0278486 -2.48679e-06 2.46624e-07
0.02785 -2.12293e-06 1.32427e-07
0.027851 -1.70749e-06 6.94628e-08
0.0278517 -1.32346e-06 3.5353e-08
0.0278522 -1.00082e-06 1.72418e-08
0.0278525 -7.44002e-07 7.86287e-09
0.0278527 -5.46483e-07 3.17014e-09
0.0278528 -3.98122e-07 9.43605e-10
0.0278529 -2.88629e-07 -1.56104e-11
0.027853 -2.09e-07 -3.42974e-10
0.0278531 -1.51943e-07 -3.68824e-10
0.0278531 -1.11859e-07 -2.65591e-10
0.0278531 -8.46772e-08 -1.3184e-10
0.0278532 -6.77182e-08 -1.47575e-11
0.0278532 -5.95272e-08 1.26209e-10
0.0278532 -6.0362e-08 4.24894e-10
0.0278532 -7.51618e-08 1.27709e-09
0.0278533 -1.12832e-07 1.90766e-09
0.0278533 -1.79509e-07 -9.77064e-10
0.0278534 -2.77463e-07 -2.72369e-08
0.0278535 -3.96482e-07 -1.59975e-07
0.0278534 -4.58527e-07 -2.69356e-07
0.018 -1.94332e-06 -1.71578e-06
0.0180027 -0.00678738 -0.00187984
0.0205145 -0.0182399 -0.00489911
0.0203389 -0.0238787 -0.00639593
0.0159019 -0.026074 -0.00742462
-1.46738e-06 -0.013657 -0.00404906
9.78391e-05 2.86501e-05 8.33303e-07
-3.51445e-05 3.6746e-05 0.000555824
0.00693469 0.00454558 0.00118241
0.0144218 0.0104212 0.00109455
0.017872 0.0113822 0.000661797
0.0195116 0.0100429 0.000118624
0.0211914 0.00774684 -0.000264009
0.0229581 0.00529724 -0.000361275
0.0245535 0.00338913 -0.000278366
0.0258283 0.0021002 -0.000145627
0.0267504 0.00128182 -3.7647e-05
0.0273728 0.000768205 2.2735e-05
0.0277783 0.000445293 4.3622e-05
0.028039 0.000245074 4.24056e-05
0.028206 0.00012515 3.29816e-05
0.0283124 5.67831e-05 2.28082e-05
0.0283798 2.01484e-05 1.46634e-05
0.028422 2.06988e-06 8.96923e-06
0.0284483 -5.74592e-06 5.28881e-06
0.0284644 -8.24055e-06 3.02932e-06
0.0284743 -8.20755e-06 1.69236e-06
0.0284803 -7.14253e-06 9.23465e-07
0.0284839 -5.79573e-06 4.91621e-07
0.0284861 -4.50939e-06 2.54237e-07
0.0284874 -3.41385e-06 1.26524e-07
0.0284883 -2.53653e-06 5.94438e-08
0.0284888 -1.85993e-06 2.52527e-08
0.0284891 -1.35095e-06 8.54298e-09
0.0284893 -9.74618e-07 9.05449e-10
0.0284894 -6.99838e-07 -2.16919e-09
0.0284895 -5.01135e-07 -3.05061e-09
0.0284895 -3.58618e-07 -2.95218e-09
0.0284896 -2.57242e-07 -2.47234e-09
0.0284896 -1.85907e-07 -1.89094e-09
0.0284896 -1.36633e-07 -1.33185e-09
0.0284896 -1.03871e-07 -8.35595e-10
0.0284896 -8.41079e-08 -3.90616e-10
0.0284897 -7.60901e-08 -3.88942e-11
0.0284897 -8.05204e-08 3.09153e-11
0.0284897 -9.78142e-08 -7.06636e-10
0.0284897 -1.26471e-07 -4.52524e-09
0.0284897 -1.61589e-07 -1.45559e-08
0.0284896 -1.99891e-07 -5.226e-08
0.0284896 -2.37117e-07 -1.85807e-07
0.0284895 -2.5431e-07 -2.88562e-07
0.0196 -2.6848e-06 -2.60936e-06
0.0196009 -0.00557064 -0.00273029
0.0190982 -0.0124878 -0.00642919
0.0161059 -0.0152952 -0.00674599
0.011158 -0.0141793 -0.00671322
0.00196195 -0.0058039 -0.00482075
7.35072e-05 -6.75722e-05 -0.00115211
3.24278e-05 -3.24278e-05 -4.02641e-08
-3.43685e-05 3.59205e-05 0.000190065
0.00446535 0.00336316 0.000394037
0.0102992 0.00777111 0.000323026
0.0131576 0.00777339 1.48655e-05
0.016385 0.00539927 -0.00030186
0.0195648 0.0030832 -0.00039373
0.0223209 0.00151483 -0.00033963
0.0244887 0.000648167 -0.000216993
0.0260318 0.000239506 -9.05836e-05
0.0270425 6.0378e-05 -5.11724e-06
0.0276715 -1.91075e-05 3.24373e-05
0.0280531 -5.30662e-05 3.85854e-05
0.0282817 -6.29901e-05 3.14206e-05
0.0284173 -5.99935e-05 2.16843e-05
0.0284968 -5.11514e-05 1.36116e-05
0.0285428 -4.07877e-05 8.03021e-06
0.0285691 -3.11449e-05 4.52787e-06
0.0285838 -2.31081e-05 2.46026e-06
0.028592 -1.68194e-05 1.29114e-06
0.0285965 -1.2087e-05 6.52214e-07
0.0285989 -8.61368e-06 3.13512e-07
0.0286001 -6.10538e-06 1.39535e-07
0.0286008 -4.31289e-06 5.35188e-08
0.0286011 -3.04052e-06 1.32366e-08
0.0286012 -2.14117e-06 -3.97635e-09
0.0286012 -1.50717e-06 -1.00099e-08
0.0286012 -1.061e-06 -1.09487e-08
0.0286012 -7.47398e-07 -9.81132e-09
0.0286012 -5.27255e-07 -8.03025e-09
0.0286012 -3.73016e-07 -6.23681e-09
0.0286012 -2.65348e-07 -4.67055e-09
0.0286012 -1.90756e-07 -3.38984e-09
0.0286012 -1.39922e-07 -2.38833e-09
0.0286012 -1.06607e-07 -1.6637e-09
0.0286012 -8.67827e-08 -1.25743e-09
0.0286012 -7.75027e-08 -1.43027e-09
0.0286011 -7.58788e-08 -2.7421e-09
0.0286011 -7.85142e-08 -5.63325e-09
0.0286011 -8.1492e-08 -1.18977e-08
0.0286011 -7.85886e-08 -2.37784e-08
0.028601 -6.08085e-08 -6.29355e-08
0.0286009 -2.22854e-08 -1.9266e-07
0.0286008 2.42562e-09 -2.90741e-07
0.0196 -1.28631e-06 -3.54737e-06
0.0196 -0.00347308 -0.0030845
0.0189332 -0.00746315 -0.00647062
0.0176762 -0.00723808 -0.00621613
0.0135691 -0.00344876 -0.0056823
0.00956476 0.0030726 -0.00502214
0.00630648 0.00327463 -0.00269108
7.36014e-05 -6.1543e-05 -0.000524928
2.71746e-05 -2.71746e-05 -1.28461e-07
-3.35714e-05 3.51655e-05 5.95885e-05
0.00334715 0.00264752 0.000334719
0.00797625 0.00406184 0.000335523
0.0133483 0.00159419 -2.37917e-05
0.017997 -0.000346762 -0.000254182
0.0216247 -0.00128717 -0.00035788
0.024288 -0.00145056 -0.000324897
0.0260799 -0.00120047 -0.000204238
0.0271739 -0.000859977 -8.6084e-05
0.027795 -0.000580963 -1.64124e-05
0.0281329 -0.000386493 1.02362e-05
0.0283122 -0.000256671 1.45444e-05
0.0284054 -0.000170217 1.13078e-05
0.0284526 -0.000112552 7.15224e-06
0.0284757 -7.42217e-05 4.03502e-06
0.0284864 -4.89008e-05 2.096e-06
0.0284909 -3.22626e-05 1.00722e-06
0.0284925 -2.1359e-05 4.3823e-07
0.0284927 -1.42107e-05 1.59357e-07
0.0284924 -9.51024e-06 3.25289e-08
0.0284919 -6.4042e-06 -1.88074e-08
0.0284914 -4.33916e-06 -3.48042e-08
0.028491 -2.95712e-06 -3.55682e-08
0.0284906 -2.02603e-06 -3.06983e-08
0.0284904 -1.39482e-06 -2.45025e-08
0.0284902 -9.64499e-07 -1.8728e-08
0.02849 -6.69755e-07 -1.39403e-08
0.0284899 -4.67153e-07 -1.01981e-08
0.0284898 -3.27616e-07 -7.37076e-09
0.0284898 -2.31562e-07 -5.28148e-09
0.0284897 -1.65749e-07 -3.77194e-09
0.0284897 -1.2117e-07 -2.7404e-09
0.0284897 -9.15423e-08 -2.17671e-09
0.0284897 -7.21919e-08 -2.1731e-09
0.0284896 -5.92816e-08 -2.9585e-09
0.0284896 -4.91926e-08 -4.85874e-09
0.0284896 -3.78867e-08 -7.93669e-09
0.0284896 -2.03306e-08 -1.39001e-08
0.0284895 1.22771e-08 -2.49519e-08
0.0284895 7.77861e-08 -6.00709e-08
0.0284894 1.89908e-07 -1.83577e-07
0.0284893 2.58094e-07 -2.7889e-07
0.018 -8.29449e-07 -3.49779e-06
0.0180009 -0.00182366 -0.0030124
0.0184099 -0.00333194 -0.00612959
0.0186206 -0.00187186 -0.00545511
0.0178041 0.00138546 -0.00445518
0.0176525 0.00748609 -0.00389186
0.0183242 0.0126712 -0.00260729
0.011306 0.00693335 -0.00119859
7.52317e-05 -4.78543e-05 -0.000362157
-2.66941e-05 -5.526e-05 5.54651e-07
7.68078e-06 -0.000340299 0.000778951
0.0090053 -0.0023369 0.00122351
0.0167869 -0.0045159 0.000697465
0.0217991 -0.00492861 0.00032205
0.0246994 -0.00445042 -2.43825e-05
0.0263383 -0.00352843 -0.000242683
0.0272414 -0.00247348 -0.000264504
0.0276934 -0.00157827 -0.00017982
0.0278843 -0.000958336 -9.31499e-05
0.0279436 -0.000573347 -4.05258e-05
0.0279466 -0.000343514 -1.58574e-05
0.0279306 -0.000207045 -5.97106e-06
0.0279117 -0.00012566 -2.36669e-06
0.0278954 -7.6875e-05 -1.09589e-06
0.0278829 -4.74771e-05 -6.19956e-07
0.0278738 -2.96442e-05 -4.0519e-07
0.0278675 -1.8733e-05 -2.81815e-07
0.0278631 -1.19859e-05 -1.98518e-07
0.02786 -7.76361e-06 -1.38968e-07
0.0278579 -5.08767e-06 -9.62757e-08
0.0278565 -3.37005e-06 -6.61033e-08
0.0278555 -2.25398e-06 -4.51163e-08
0.0278548 -1.52048e-06 -3.07018e-08
0.0278543 -1.03344e-06 -2.08844e-08
0.027854 -7.07139e-07 -1.42284e-08
0.0278537 -4.86873e-07 -9.72322e-09
0.0278536 -3.37306e-07 -6.67368e-09
0.0278535 -2.35335e-07 -4.61064e-09
0.0278534 -1.65683e-07 -3.22494e-09
0.0278533 -1.18098e-07 -2.32574e-09
0.0278533 -8.55412e-08 -1.81983e-09
0.0278532 -6.29819e-08 -1.6919e-09
0.0278532 -4.65597e-08 -1.97673e-09
0.0278532 -3.29246e-08 -2.81125e-09
0.0278532 -1.86148e-08 -4.42506e-09
0.0278532 7.3936e-10 -6.75299e-09
0.0278531 3.11805e-08 -1.13688e-08
0.0278531 8.30146e-08 -1.99903e-08
0.0278531 1.82724e-07 -4.57566e-08
0.0278531 3.53986e-07 -1.5722e-07
0.0278531 4.58528e-07 -2.48249e-07
0.0148 -4.71986e-07 -3.0756e-06
0.0148015 -0.000893004 -0.00278598
0.0163526 -0.00120789 -0.0054319
0.0181909 0.000628059 -0.00451057
0.0198828 0.00379692 -0.00338851
0.0218809 0.00760159 -0.00295999
0.025633 0.0128613 -0.00226046
0.0288367 0.0196695 -0.00128995
0.0235946 0.0115562 -0.000208504
0.0239997 5.8961e-11 0.000655255
0.0272891 -0.00676051 0.00154528
0.0313557 -0.0133689 0.00213347
0.0326099 -0.0115355 0.00185397
0.0319259 -0.00830464 0.00142211
0.0303977 -0.00563569 0.00069542
0.0288112 -0.0037017 1.09834e-05
0.0275679 -0.00230518 -0.00030191
0.0267297 -0.00134897 -0.000298856
0.0262037 -0.000757078 -0.000191504
0.0258829 -0.000419436 -0.000100168
0.0256894 -0.000234007 -4.71261e-05
0.0255732 -0.000132694 -2.10034e-05
0.0255034 -7.67289e-05 -9.13892e-06
0.0254614 -4.52814e-05 -3.9568e-06
0.0254359 -2.72669e-05 -1.72668e-06
0.0254202 -1.67386e-05 -7.65598e-07
0.0254104 -1.04615e-05 -3.45851e-07
0.0254043 -6.64618e-06 -1.58527e-07
0.0254004 -4.28483e-06 -7.28069e-08
0.0253978 -2.79876e-06 -3.26995e-08
0.0253961 -1.84926e-06 -1.37049e-08
0.025395 -1.23427e-06 -4.76475e-09
0.0253943 -8.31109e-07 -7.07748e-10
0.0253938 -5.63995e-07 9.66743e-10
0.0253934 -3.85406e-07 1.49817e-09
0.0253932 -2.65096e-07 1.50716e-09
0.025393 -1.83553e-07 1.3011e-09
0.0253929 -1.28023e-07 1.02528e-09
0.0253928 -9.00463e-08 7.39569e-10
0.0253928 -6.38998e-08 4.57528e-10
0.0253927 -4.55836e-08 1.62374e-10
0.0253927 -3.21299e-08 -1.87206e-10
0.0253927 -2.10868e-08 -6.49261e-10
0.0253927 -1.00642e-08 -1.34556e-09
0.0253927 3.68553e-09 -2.45485e-09
0.0253927 2.39527e-08 -3.87218e-09
0.0253927 5.68166e-08 -6.66116e-09
0.0253927 1.11459e-07 -1.19695e-08
0.0253927 2.14126e-07 -2.75582e-08
0.0253928 3.91038e-07 -1.21173e-07
0.025393 4.99432e-07 -2.02483e-07
0.01 -9.10833e-07 -2.75817e-06
0.0100007 -0.000554051 -0.00228779
0.0114982 -0.000479774 -0.00421045
0.013749 0.00087322 -0.00315497