# vtk DataFile Version 2.0
Tobias Weinzierl: CPU, Manycore and Cluster Computing
ASCII

DATASET STRUCTURED_POINTS
DIMENSIONS  51 11 6

ORIGIN 0 0 0 

SPACING 0.1 0.1 0.1 

POINT_DATA 3366

VECTORS velocity float
0 0 0
-2.28594e-13 0 0
3.55983e-10 0 0
1.02272e-09 0 0
-3.09572e-09 0 0
3.49092e-09 0 0
4.96288e-09 0 0
4.6728e-09 0 0
4.56149e-09 0 0
4.61535e-09 0 0
4.29923e-09 0 0
3.62749e-09 0 0
2.78889e-09 0 0
1.5535e-09 0 0
-3.11459e-10 0 0
-2.38442e-09 0 0
-3.97148e-09 0 0
-4.84135e-09 0 0
-5.31193e-09 0 0
-5.81592e-09 0 0
-6.56336e-09 0 0
-7.51528e-09 0 0
-8.5181e-09 0 0
-9.42773e-09 0 0
-1.01634e-08 0 0
-1.07063e-08 0 0
-1.10772e-08 0 0
-1.13126e-08 0 0
-1.14508e-08 0 0
-1.15238e-08 0 0
-1.1556e-08 0 0
-1.15646e-08 0 0
-1.15606e-08 0 0
-1.15511e-08 0 0
-1.154e-08 0 0
-1.15293e-08 0 0
-1.15202e-08 0 0
-1.15128e-08 0 0
-1.15071e-08 0 0
-1.15028e-08 0 0
-1.14997e-08 0 0
-1.14976e-08 0 0
-1.14961e-08 0 0
-1.14952e-08 0 0
-1.14946e-08 0 0
-1.14941e-08 0 0
-1.14938e-08 0 0
-1.14937e-08 0 0
-1.14938e-08 0 0
-1.14942e-08 0 0
0.00192768 0 0
0 3.79939e-07 0
-1.31304e-12 -6.10629e-10 0
5.05295e-10 -2.09896e-09 0
2.82202e-09 -6.56361e-10 0
-1.04404e-09 -3.55506e-09 0
1.04114e-08 -4.74609e-09 0
1.24318e-08 2.69817e-10 0
1.20244e-08 5.68937e-10 0
1.27385e-08 -7.0036e-10 0
1.37482e-08 -1.5022e-09 0
1.3696e-08 -1.8564e-09 0
1.24416e-08 -1.65429e-09 0
1.00892e-08 -2.37593e-10 0
6.57834e-09 2.02193e-09 0
2.22641e-09 3.60052e-09 0
-1.91108e-09 3.56491e-09 0
-4.9369e-09 2.43668e-09 0
-6.96258e-09 1.30857e-09 0
-8.81097e-09 7.86187e-10 0
-1.11726e-08 8.02332e-10 0
-1.41762e-08 1.01192e-09 0
-1.75056e-08 1.14822e-09 0
-2.07143e-08 1.12307e-09 0
-2.34615e-08 9.68923e-10 0
-2.55939e-08 7.55738e-10 0
-2.71161e-08 5.41831e-10 0
-2.81232e-08 3.59749e-10 0
-2.87404e-08 2.20463e-10 0
-2.90862e-08 1.22176e-10 0
-2.9256e-08 5.75555e-11 0
-2.93195e-08 1.80648e-11 0
-2.93239e-08 -3.95961e-12 0
-2.92994e-08 -1.45949e-11 0
-2.92638e-08 -1.82924e-11 0
-2.9227e-08 -1.81121e-11 0
-2.91939e-08 -1.60357e-11 0
-2.91662e-08 -1.32651e-11 0
-2.91443e-08 -1.04708e-11 0
-2.91276e-08 -7.98152e-12 0
-2.91153e-08 -5.9199e-12 0
-2.91064e-08 -4.29407e-12 0
-2.91001e-08 -3.05533e-12 0
-2.90958e-08 -2.13327e-12 0
-2.9093e-08 -1.45594e-12 0
-2.90911e-08 -9.56956e-13 0
-2.90898e-08 -5.77712e-13 0
-2.9089e-08 -2.62482e-13 0
-2.90887e-08 6.56869e-14 0
-2.90893e-08 6.30218e-13 0
-2.90906e-08 2.06829e-12 0
0.00554229 -2.13666e-08 0
0 -1.97727e-08 0
-1.80998e-12 -7.1969e-10 0
1.33699e-09 -4.17956e-09 0
6.6319e-09 -7.65721e-09 0
9.92168e-09 -1.37654e-08 0
1.83498e-08 -1.07422e-08 0
1.49445e-08 -8.10021e-10 0
1.45632e-08 -8.40483e-10 0
1.61552e-08 -4.36731e-09 0
1.80482e-08 -8.20367e-09 0
1.66344e-08 -1.13767e-08 0
1.32785e-08 -1.18592e-08 0
9.76866e-09 -8.22997e-09 0
5.69433e-09 -2.35359e-09 0
1.11933e-09 2.83442e-09 0
-3.04537e-09 6.18069e-09 0
-6.0653e-09 7.99986e-09 0
-8.09769e-09 8.77261e-09 0
-9.87671e-09 8.78851e-09 0
-1.20459e-08 8.2509e-09 0
-1.47962e-08 7.32499e-09 0
-1.78944e-08 6.15357e-09 0
-2.09225e-08 4.88064e-09 0
-2.35197e-08 3.64754e-09 0
-2.55038e-08 2.56485e-09 0
-2.68662e-08 1.69197e-09 0
-2.77056e-08 1.03875e-09 0
-2.81587e-08 5.81582e-10 0
-2.83551e-08 2.81571e-10 0
-2.83971e-08 9.77994e-11 0
-2.8357e-08 -5.51721e-12 0
-2.82809e-08 -5.64724e-11 0
-2.81959e-08 -7.55108e-11 0
-2.81163e-08 -7.66111e-11 0
-2.8048e-08 -6.87889e-11 0
-2.79929e-08 -5.75045e-11 0
-2.79502e-08 -4.58151e-11 0
-2.7918e-08 -3.52426e-11 0
-2.78943e-08 -2.63862e-11 0
-2.78773e-08 -1.93314e-11 0
-2.78653e-08 -1.3909e-11 0
-2.7857e-08 -9.84814e-12 0
-2.78514e-08 -6.85974e-12 0
-2.78476e-08 -4.67919e-12 0
-2.78452e-08 -3.07844e-12 0
-2.78436e-08 -1.85562e-12 0
-2.78427e-08 -7.95355e-13 0
-2.78425e-08 4.39397e-13 0
-2.78433e-08 2.2423e-12 0
-2.78448e-08 4.92622e-12 0
0.00797078 -5.034e-08 0
0 -6.29092e-07 0
-6.0734e-13 -2.17145e-09 0
2.69547e-09 -7.74715e-09 0
9.31028e-09 -1.48027e-08 0
1.14143e-08 -2.06471e-08 0
1.14292e-08 -1.14263e-08 0
7.48241e-09 -7.14065e-12 0
7.21139e-09 -1.35593e-09 0
5.68565e-09 -6.99085e-09 0
4.48515e-09 -1.48156e-08 0
3.00467e-09 -2.04884e-08 0
4.76749e-10 -2.24545e-08 0
-1.57082e-09 -1.93225e-08 0
-5.07874e-09 -1.17088e-08 0
-1.00745e-08 -1.86328e-09 0
-1.50418e-08 7.71612e-09 0
-1.83477e-08 1.44772e-08 0
-1.92647e-08 1.71654e-08 0
-1.81807e-08 1.64555e-08 0
-1.61822e-08 1.39545e-08 0
-1.43371e-08 1.09849e-08 0
-1.31815e-08 8.20566e-09 0
-1.26959e-08 5.83143e-09 0
-1.25913e-08 3.90425e-09 0
-1.25858e-08 2.41582e-09 0
-1.25221e-08 1.33183e-09 0
-1.23603e-08 5.94673e-10 0
-1.21249e-08 1.32423e-10 0
-1.18583e-08 -1.28295e-10 0
-1.15972e-08 -2.5218e-10 0
-1.13643e-08 -2.90375e-10 0
-1.11699e-08 -2.79947e-10 0
-1.10151e-08 -2.45762e-10 0
-1.08962e-08 -2.03254e-10 0
-1.08076e-08 -1.61158e-10 0
-1.07429e-08 -1.23784e-10 0
-1.06966e-08 -9.27316e-11 0
-1.06641e-08 -6.80766e-11 0
-1.06414e-08 -4.91448e-11 0
-1.06259e-08 -3.49759e-11 0
-1.06155e-08 -2.45815e-11 0
-1.06085e-08 -1.70703e-11 0
-1.06039e-08 -1.16946e-11 0
-1.0601e-08 -7.85132e-12 0
-1.05992e-08 -5.05831e-12 0
-1.05981e-08 -2.90319e-12 0
-1.05974e-08 -9.99412e-13 0
-1.05972e-08 9.94942e-13 0
-1.05973e-08 3.23996e-12 0
-1.05977e-08 5.4576e-12 0
0.00900872 -5.44736e-08 0
0 -1.23286e-06 0
-1.63783e-12 -4.25319e-09 0
9.66305e-10 -1.18782e-08 0
3.49793e-09 -1.57259e-08 0
2.69493e-09 -1.27337e-08 0
1.17359e-12 -4.63242e-09 0
-3.27692e-11 -4.70162e-11 0
4.55885e-11 -4.74379e-11 0
-2.29278e-09 -4.99226e-09 0
-1.1484e-08 -1.67502e-08 0
-1.62262e-08 -2.77546e-08 0
-1.55243e-08 -3.27211e-08 0
-1.61835e-08 -2.89807e-08 0
-1.94251e-08 -1.70841e-08 0
-2.38285e-08 -1.75002e-09 0
-2.77235e-08 1.19863e-08 0
-2.97371e-08 2.01051e-08 0
-2.8858e-08 2.15822e-08 0
-2.49584e-08 1.841e-08 0
-1.91206e-08 1.35099e-08 0
-1.2993e-08 8.88655e-09 0
-7.81245e-09 5.27991e-09 0
-4.00163e-09 2.70043e-09 0
-1.39337e-09 9.47472e-10 0
3.75371e-10 -1.72751e-10 0
1.61762e-09 -8.15696e-10 0
2.53054e-09 -1.11268e-09 0
3.22049e-09 -1.17714e-09 0
3.74421e-09 -1.10196e-09 0
4.13697e-09 -9.56593e-10 0
4.42573e-09 -7.87933e-10 0
4.63344e-09 -6.24127e-10 0
4.77974e-09 -4.79579e-10 0
4.88086e-09 -3.59659e-10 0
4.94958e-09 -2.64425e-10 0
4.9956e-09 -1.91232e-10 0
5.026e-09 -1.36396e-10 0
5.04582e-09 -9.6144e-11 0
5.05858e-09 -6.70827e-11 0
5.06667e-09 -4.63837e-11 0
5.07172e-09 -3.18004e-11 0
5.0748e-09 -2.16063e-11 0
5.0766e-09 -1.45042e-11 0
5.07756e-09 -9.52993e-12 0
5.07806e-09 -5.95924e-12 0
5.07842e-09 -3.25174e-12 0
5.07887e-09 -1.04587e-12 0
5.07949e-09 8.10467e-13 0
5.08027e-09 2.31722e-12 0
5.08105e-09 3.38249e-12 0
0.009402 -3.02756e-08 0
0 -1.11681e-06 0
-3.94169e-12 -4.4627e-09 0
-1.85853e-09 -1.00607e-08 0
-2.07642e-09 -1.21745e-08 0
-3.98701e-09 -1.20367e-08 0
-3.01852e-09 -5.4602e-09 0
-3.94477e-11 3.93207e-11 0
6.2623e-12 -6.2623e-12 0
4.26435e-11 -4.84671e-11 0
-7.05386e-09 -8.93425e-09 0
-2.22921e-08 -2.74459e-08 0
-2.5654e-08 -3.76396e-08 0
-2.78739e-08 -3.25456e-08 0
-2.99086e-08 -1.81845e-08 0
-3.08317e-08 -8.41286e-10 0
-3.07687e-08 1.37884e-08 0
-3.00114e-08 2.14725e-08 0
-2.78647e-08 2.14403e-08 0
-2.33476e-08 1.63308e-08 0
-1.6676e-08 9.7788e-09 0
-9.30384e-09 4.19524e-09 0
-2.76483e-09 3.47661e-10 0
2.1739e-09 -1.93616e-09 0
5.5143e-09 -3.07958e-09 0
7.62846e-09 -3.46089e-09 0
8.92601e-09 -3.36492e-09 0
9.71644e-09 -3.00145e-09 0
1.01984e-08 -2.52105e-09 0
1.04915e-08 -2.02382e-09 0
1.06673e-08 -1.56817e-09 0
1.07701e-08 -1.18133e-09 0
1.08276e-08 -8.69925e-10 0
1.08577e-08 -6.28906e-10 0
1.08717e-08 -4.47865e-10 0
1.08768e-08 -3.1501e-10 0
1.08771e-08 -2.19292e-10 0
1.08752e-08 -1.51337e-10 0
1.08724e-08 -1.03663e-10 0
1.08694e-08 -7.05385e-11 0
1.08668e-08 -4.77038e-11 0
1.08644e-08 -3.20578e-11 0
1.08625e-08 -2.13781e-11 0
1.0861e-08 -1.40863e-11 0
1.08598e-08 -9.06963e-12 0
1.08589e-08 -5.56406e-12 0
1.08586e-08 -3.08584e-12 0
1.08589e-08 -1.3674e-12 0
1.08597e-08 -2.76059e-13 0
1.08608e-08 2.08425e-13 0
1.08617e-08 1.91108e-13 0
0.00949892 8.28332e-09 0
0 -7.69863e-07 0
-2.10157e-12 -2.62932e-09 0
-1.90547e-09 -6.69448e-09 0
-1.72391e-09 -8.80618e-09 0
-5.33932e-09 -9.12762e-09 0
-7.42881e-09 -6.34217e-09 0
-3.42501e-09 -1.95656e-09 0
-3.93791e-11 3.91578e-11 0
3.46114e-12 -3.46114e-12 0
4.01265e-11 -4.55309e-11 0
-1.02988e-08 -1.5843e-08 0
-2.23816e-08 -3.39136e-08 0
-2.94091e-08 -3.01483e-08 0
-3.20752e-08 -1.5534e-08 0
-3.09795e-08 1.00654e-09 0
-2.72202e-08 1.38411e-08 0
-2.28969e-08 1.9632e-08 0
-1.89724e-08 1.81467e-08 0
-1.4722e-08 1.21017e-08 0
-9.53411e-09 5.10418e-09 0
-3.98706e-09 -4.6395e-10 0
8.09374e-10 -3.91072e-09 0
4.16713e-09 -5.53493e-09 0
6.06416e-09 -5.90309e-09 0
6.86694e-09 -5.51999e-09 0
7.00808e-09 -4.7589e-09 0
6.82255e-09 -3.87285e-09 0
6.51823e-09 -3.01701e-09 0
6.2043e-09 -2.27172e-09 0
5.92845e-09 -1.66552e-09 0
5.70511e-09 -1.1958e-09 0
5.53293e-09 -8.44601e-10 0
5.40434e-09 -5.88951e-10 0
5.31037e-09 -4.06564e-10 0
5.24271e-09 -2.78412e-10 0
5.19448e-09 -1.89405e-10 0
5.16032e-09 -1.28135e-10 0
5.13621e-09 -8.62524e-11 0
5.11923e-09 -5.77832e-11 0
5.10729e-09 -3.85197e-11 0
5.0989e-09 -2.55309e-11 0
5.09302e-09 -1.67909e-11 0
5.08892e-09 -1.09139e-11 0
5.08611e-09 -6.97006e-12 0
5.08433e-09 -4.35404e-12 0
5.0835e-09 -2.68336e-12 0
5.08347e-09 -1.72989e-12 0
5.08395e-09 -1.39065e-12 0
5.08458e-09 -1.7643e-12 0
5.08508e-09 -2.86728e-12 0
0.00940198 4.37486e-08 0
0 -5.39578e-07 0
3.20573e-13 -1.72354e-09 0
-7.06247e-10 -4.62164e-09 0
-1.09869e-09 -6.66878e-09 0
-4.40337e-09 -6.64114e-09 0
-9.26824e-09 -3.58952e-09 0
-9.8782e-09 -4.09187e-10 0
-5.93193e-09 3.10417e-10 0
-4.31129e-11 3.48208e-11 0
3.94437e-11 2.96337e-11 0
3.42635e-12 -8.77823e-09 0
-1.36105e-08 -2.08824e-08 0
-2.73043e-08 -1.88487e-08 0
-3.44536e-08 -6.12013e-09 0
-3.34129e-08 6.38752e-09 0
-2.57116e-08 1.34734e-08 0
-1.6261e-08 1.44746e-08 0
-9.3111e-09 1.08194e-08 0
-5.55174e-09 5.05346e-09 0
-3.58067e-09 -3.09782e-10 0
-2.35377e-09 -3.91785e-09 0
-1.74683e-09 -5.65934e-09 0
-1.89962e-09 -6.03138e-09 0
-2.7404e-09 -5.59707e-09 0
-3.99348e-09 -4.78013e-09 0
-5.35707e-09 -3.85313e-09 0
-6.6184e-09 -2.97384e-09 0
-7.67376e-09 -2.21941e-09 0
-8.50001e-09 -1.61393e-09 0
-9.11811e-09 -1.15056e-09 0
-9.56613e-09 -8.08023e-10 0
-9.88383e-09 -5.61106e-10 0
-1.01058e-08 -3.86331e-10 0
-1.02593e-08 -2.64227e-10 0
-1.03649e-08 -1.79722e-10 0
-1.04372e-08 -1.21645e-10 0
-1.04867e-08 -8.19474e-11 0
-1.05206e-08 -5.49362e-11 0
-1.05439e-08 -3.66342e-11 0
-1.05598e-08 -2.42834e-11 0
-1.05707e-08 -1.59839e-11 0
-1.05782e-08 -1.0437e-11 0
-1.05833e-08 -6.76346e-12 0
-1.05867e-08 -4.37319e-12 0
-1.05889e-08 -2.87606e-12 0
-1.05901e-08 -2.02887e-12 0
-1.05905e-08 -1.71038e-12 0
-1.05905e-08 -1.9315e-12 0
-1.05906e-08 -2.92592e-12 0
-1.05909e-08 -4.84811e-12 0
0.0090087 5.9999e-08 0
0 -4.57464e-07 0
4.23333e-13 -8.9932e-10 0
6.1324e-11 -2.55907e-09 0
-1.1222e-09 -3.95757e-09 0
-5.66565e-09 -4.21787e-09 0
-1.20743e-08 -1.15165e-09 0
-1.46949e-08 2.39288e-09 0
-1.36848e-08 -1.69952e-09 0
-8.90774e-09 -3.32506e-09 0
-7.22121e-09 -3.97621e-13 0
-6.44723e-09 -4.71688e-09 0
-1.74526e-08 -9.19828e-09 0
-3.27278e-08 -4.7848e-09 0
-3.98294e-08 3.77823e-09 0
-3.4691e-08 9.79949e-09 0
-2.16755e-08 1.03433e-08 0
-9.2652e-09 6.72165e-09 0
-3.29395e-09 1.64388e-09 0
-3.70265e-09 -2.49869e-09 0
-7.19311e-09 -4.56953e-09 0
-1.10365e-08 -4.8235e-09 0
-1.42549e-08 -4.1466e-09 0
-1.68802e-08 -3.26444e-09 0
-1.91212e-08 -2.50123e-09 0
-2.10693e-08 -1.91387e-09 0
-2.27236e-08 -1.46671e-09 0
-2.40703e-08 -1.11894e-09 0
-2.51206e-08 -8.44757e-10 0
-2.59101e-08 -6.29257e-10 0
-2.64869e-08 -4.62234e-10 0
-2.68993e-08 -3.35083e-10 0
-2.71898e-08 -2.39992e-10 0
-2.73921e-08 -1.7001e-10 0
-2.75321e-08 -1.19222e-10 0
-2.76284e-08 -8.28141e-11 0
-2.76947e-08 -5.69969e-11 0
-2.77401e-08 -3.88716e-11 0
-2.77713e-08 -2.62657e-11 0
-2.77927e-08 -1.75788e-11 0
-2.78074e-08 -1.16496e-11 0
-2.78175e-08 -7.64578e-12 0
-2.78243e-08 -4.97899e-12 0
-2.7829e-08 -3.23827e-12 0
-2.78322e-08 -2.14238e-12 0
-2.78343e-08 -1.50988e-12 0
-2.78356e-08 -1.24163e-12 0
-2.78362e-08 -1.31274e-12 0
-2.78367e-08 -1.77613e-12 0
-2.78376e-08 -2.8121e-12 0
-2.78391e-08 -4.57345e-12 0
0.00797079 4.78694e-08 0
0 -4.71577e-07 0
1.24873e-12 -1.16134e-10 0
4.82186e-10 -5.14602e-10 0
-1.25375e-09 -1.03099e-09 0
-6.59944e-09 -1.22202e-09 0
-1.39099e-08 -8.67705e-10 0
-1.74006e-08 6.62701e-10 0
-1.64876e-08 -1.03782e-10 0
-1.91805e-08 -1.64455e-09 0
-1.77415e-08 -6.58239e-10 0
-1.57601e-08 4.74175e-10 0
-1.99474e-08 2.49672e-09 0
-2.52933e-08 4.49188e-09 0
-2.56747e-08 4.83314e-09 0
-1.88393e-08 3.79708e-09 0
-8.82133e-09 1.7218e-09 0
-2.0833e-09 -7.84839e-10 0
-1.89875e-09 -2.67049e-09 0
-6.63433e-09 -3.22025e-09 0
-1.26911e-08 -2.64016e-09 0
-1.7666e-08 -1.65779e-09 0
-2.10032e-08 -8.43938e-10 0
-2.31068e-08 -3.76202e-10 0
-2.4504e-08 -1.82452e-10 0
-2.5533e-08 -1.32812e-10 0
-2.63493e-08 -1.33205e-10 0
-2.70107e-08 -1.37994e-10 0
-2.75402e-08 -1.33174e-10 0
-2.79537e-08 -1.19029e-10 0
-2.82684e-08 -9.99026e-11 0
-2.85025e-08 -7.98411e-11 0
-2.86735e-08 -6.14151e-11 0
-2.87965e-08 -4.58264e-11 0
-2.88839e-08 -3.3354e-11 0
-2.89456e-08 -2.37699e-11 0
-2.89887e-08 -1.66283e-11 0
-2.90189e-08 -1.14362e-11 0
-2.90399e-08 -7.73902e-12 0
-2.90544e-08 -5.15525e-12 0
-2.90645e-08 -3.38201e-12 0
-2.90715e-08 -2.18843e-12 0
-2.90763e-08 -1.40432e-12 0
-2.90797e-08 -9.08337e-13 0
-2.9082e-08 -6.17628e-13 0
-2.90835e-08 -4.82077e-13 0
-2.90845e-08 -4.7793e-13 0
-2.90851e-08 -6.05652e-13 0
-2.90858e-08 -8.73639e-13 0
-2.90871e-08 -1.27974e-12 0
-2.90891e-08 -1.9288e-12 0
0.00554232 1.7321e-08 0
0 0 0
1.06187e-12 0 0
3.0305e-10 0 0
-6.02999e-10 0 0
-3.13551e-09 0 0
-6.69469e-09 0 0
-9.15877e-09 0 0
-8.73481e-09 0 0
-1.02765e-08 0 0
-1.0521e-08 0 0
-9.30947e-09 0 0
-7.84105e-09 0 0
-6.19021e-09 0 0
-4.45538e-09 0 0
-2.24082e-09 0 0
-2.05573e-10 0 0
2.95693e-10 0 0
-1.23847e-09 0 0
-3.95366e-09 0 0
-6.59295e-09 0 0
-8.46095e-09 0 0
-9.5343e-09 0 0
-1.00874e-08 0 0
-1.03851e-08 0 0
-1.05836e-08 0 0
-1.07481e-08 0 0
-1.08962e-08 0 0
-1.10276e-08 0 0
-1.11392e-08 0 0
-1.12299e-08 0 0
-1.13009e-08 0 0
-1.13546e-08 0 0
-1.13944e-08 0 0
-1.14234e-08 0 0
-1.14441e-08 0 0
-1.14588e-08 0 0
-1.14692e-08 0 0
-1.14765e-08 0 0
-1.14816e-08 0 0
-1.14852e-08 0 0
-1.14877e-08 0 0
-1.14894e-08 0 0
-1.14907e-08 0 0
-1.14915e-08 0 0
-1.14921e-08 0 0
-1.14925e-08 0 0
-1.14927e-08 0 0
-1.14931e-08 0 0
-1.14937e-08 0 0
-1.14946e-08 0 0
0.0019277 0 0
0 0 5.27293e-07
-8.87194e-13 0 2.53881e-10
-2.32679e-10 0 1.07292e-09
2.35011e-09 0 4.10438e-09
-1.10224e-08 0 1.08593e-09
5.60672e-09 0 -3.31187e-09
1.08066e-08 0 -1.45219e-09
1.13612e-08 0 -1.68727e-10
1.12871e-08 0 7.56603e-10
1.18852e-08 0 1.76321e-09
1.35763e-08 0 2.843e-09
1.6295e-08 0 3.16323e-09
1.89331e-08 0 2.30991e-09
1.94893e-08 0 1.07639e-09
1.6521e-08 0 3.35128e-10
1.0789e-08 0 9.29828e-11
4.41632e-09 0 1.87517e-11
-1.13863e-09 0 3.13216e-11
-5.79827e-09 0 1.88781e-10
-1.01095e-08 0 4.5028e-10
-1.44015e-08 0 6.89096e-10
-1.85818e-08 0 8.08228e-10
-2.23565e-08 0 7.9072e-10
-2.54796e-08 0 6.77076e-10
-2.78592e-08 0 5.22966e-10
-2.95428e-08 0 3.71566e-10
-3.06551e-08 0 2.45778e-10
-3.1341e-08 0 1.52138e-10
-3.17315e-08 0 8.78711e-11
-3.19303e-08 0 4.6605e-11
-3.20124e-08 0 2.16813e-11
-3.20284e-08 0 7.57496e-12
-3.20109e-08 0 2.26085e-13
-3.19793e-08 0 -3.12839e-12
-3.19447e-08 0 -4.26326e-12
-3.19125e-08 0 -4.26228e-12
-3.18852e-08 0 -3.75426e-12
-3.18633e-08 0 -3.08274e-12
-3.18464e-08 0 -2.42031e-12
-3.18339e-08 0 -1.84214e-12
-3.18247e-08 0 -1.37103e-12
-3.18183e-08 0 -1.00327e-12
-3.18138e-08 0 -7.2377e-13
-3.18109e-08 0 -5.15742e-13
-3.18089e-08 0 -3.63355e-13
-3.18076e-08 0 -2.53936e-13
-3.18067e-08 0 -1.83467e-13
-3.18063e-08 0 -1.6943e-13
-3.18068e-08 0 -1.88994e-13
-3.1808e-08 0 2.14022e-13
0.0054788 0 -1.59679e-09
0.0036 -3.02436e-07 -6.14357e-08
0.0035998 -0.00138962 -2.29853e-05
0.00670704 -0.00393142 0.000109173
0.013612 -0.00588853 -0.000510557
0.0235104 -0.0144586 -0.00427801
0.0463516 -0.0133946 -0.00488317
0.0498726 -0.00191943 -0.00164396
0.049611 0.00264565 -0.000162657
0.044623 0.00497129 0.000570745
0.0390173 0.00513815 0.000557497
0.0339159 0.00447007 0.000286694
0.0296276 0.00358618 9.83337e-06
0.0262225 0.00271256 -0.00018554
0.0236377 0.00194548 -0.000282269
0.0217214 0.00133444 -0.000295423
0.0202992 0.000891904 -0.000252051
0.0192298 0.000597287 -0.000181454
0.0184189 0.000411493 -0.000109137
0.0178064 0.000293974 -5.15687e-05
0.017352 0.000214549 -1.42996e-05
0.0170239 0.000156076 5.10972e-06
0.0167948 0.000110882 1.23449e-05
0.0166409 7.59882e-05 1.28891e-05
0.0165416 4.98994e-05 1.06095e-05
0.0164805 3.1244e-05 7.69505e-06
0.0164449 1.85192e-05 5.12918e-06
0.0164255 1.02388e-05 3.20358e-06
0.016416 5.10362e-06 1.88957e-06
0.0164122 2.08482e-06 1.05105e-06
0.0164115 4.25577e-07 5.44113e-07
0.0164122 -3.99609e-07 2.52635e-07
0.0164136 -7.38695e-07 9.39986e-08
0.016415 -8.12402e-07 1.366e-08
0.0164164 -7.54794e-07 -2.25789e-08
0.0164175 -6.43339e-07 -3.52733e-08
0.0164184 -5.19997e-07 -3.62985e-08
0.0164191 -4.05368e-07 -3.22265e-08
0.0164197 -3.07817e-07 -2.65034e-08
0.01642 -2.29148e-07 -2.07984e-08
0.0164203 -1.67981e-07 -1.58118e-08
0.0164205 -1.21666e-07 -1.17419e-08
0.0164207 -8.73019e-08 -8.55065e-09
0.0164208 -6.22375e-08 -6.12052e-09
0.0164209 -4.42569e-08 -4.31711e-09
0.0164209 -3.1614e-08 -3.00354e-09
0.016421 -2.29905e-08 -2.01075e-09
0.016421 -1.74351e-08 -1.00941e-09
0.016421 -1.4497e-08 1.01172e-09
0.016421 -1.63369e-08 4.6515e-09
0.0164211 -4.0832e-08 -4.80817e-10
0.0164212 -6.26611e-08 -7.79256e-09
0.01 -1.35699e-07 -1.43299e-06
0.0100007 -0.00298741 -0.000599872
0.0147855 -0.00996036 -0.00079383
0.0241761 -0.0177372 -0.00124067
0.0385709 -0.0325594 -0.00334564
0.0592571 -0.0248706 -0.000819406
0.0564926 -0.00274136 0.00317768
0.0559282 0.00508859 0.00338803
0.0501458 0.0100662 0.00300803
0.0446744 0.0102128 0.00211772
0.0401767 0.0091329 0.00116874
0.0364711 0.00771749 0.000420398
0.0335038 0.00624548 -9.97514e-05
0.0312293 0.00488382 -0.000402221
0.0294905 0.00373174 -0.000508368
0.0281374 0.00280971 -0.000469923
0.0270758 0.00208982 -0.000354493
0.0262547 0.00153378 -0.000223015
0.0256386 0.00110807 -0.000113906
0.0251934 0.000785635 -4.07771e-05
0.024884 0.000544623 -5.41367e-07
0.0246781 0.000367512 1.6579e-05
0.0245476 0.000240256 2.04112e-05
0.0244697 0.000151364 1.8107e-05
0.0244268 9.12789e-05 1.38825e-05
0.024406 5.21145e-05 9.76655e-06
0.0243983 2.75806e-05 6.48563e-06
0.0243976 1.28857e-05 4.1285e-06
0.0244003 4.55236e-06 2.54081e-06
0.0244043 1.68452e-07 1.51797e-06
0.0244084 -1.87054e-06 8.80942e-07
0.024412 -2.59076e-06 4.95348e-07
0.0244151 -2.62283e-06 2.68111e-07
0.0244175 -2.33761e-06 1.37867e-07
0.0244193 -1.9417e-06 6.55497e-08
0.0244207 -1.54182e-06 2.69646e-08
0.0244217 -1.18656e-06 7.48847e-09
0.0244225 -8.92464e-07 -1.50982e-09
0.024423 -6.5971e-07 -4.9988e-09
0.0244234 -4.81179e-07 -5.7584e-09
0.0244236 -3.47366e-07 -5.28588e-09
0.0244238 -2.4886e-07 -4.34644e-09
0.024424 -1.7745e-07 -3.32921e-09
0.024424 -1.26471e-07 -2.42361e-09
0.0244241 -9.07704e-08 -1.67476e-09
0.0244242 -6.66279e-08 -9.5089e-10
0.0244242 -5.18055e-08 3.02545e-10
0.0244242 -4.83715e-08 2.964e-09
0.0244243 -6.29531e-08 6.13423e-09
0.0244243 -1.11483e-07 -7.51355e-09
0.0244244 -1.47271e-07 -2.25393e-08
0.0148 -9.45531e-07 -1.72153e-06
0.0148023 -0.00529633 -0.00112687
0.0203904 -0.016434 -0.00244748
0.0275671 -0.0288534 -0.00394059
0.0322241 -0.0462456 -0.00577118
0.0306883 -0.0285492 -0.00142014
0.0268955 -1.21496e-05 0.00329918
0.0263355 0.00706083 0.00352361
0.0298353 0.0144083 0.00343833
0.0301822 0.0138326 0.00247335
0.0293813 0.012055 0.00150535
0.0285523 0.0102148 0.000664535
0.0279288 0.00833759 6.0231e-05
0.0276174 0.00658076 -0.000297616
0.0274925 0.00508905 -0.000427522
0.027453 0.0038615 -0.000398595
0.0274559 0.00286142 -0.000291462
0.0274865 0.0020638 -0.000169635
0.0275356 0.00144891 -6.94278e-05
0.0275941 0.000991267 -3.29185e-06
0.0276546 0.000660246 3.12083e-05
0.0277128 0.000426202 4.29081e-05
0.0277666 0.000264434 4.13553e-05
0.0278149 0.000155693 3.39736e-05
0.0278568 8.51438e-05 2.5352e-05
0.0278919 4.13579e-05 1.77239e-05
0.0279204 1.56549e-05 1.18178e-05
0.0279427 1.65555e-06 7.59815e-06
0.0279596 -5.13157e-06 4.74191e-06
0.0279722 -7.72365e-06 2.883e-06
0.0279813 -8.05233e-06 1.70994e-06
0.0279879 -7.29316e-06 9.88841e-07
0.0279925 -6.12115e-06 5.56112e-07
0.0279957 -4.89584e-06 3.02531e-07
0.0279979 -3.78769e-06 1.5762e-07
0.0279994 -2.86015e-06 7.71351e-08
0.0280004 -2.12058e-06 3.39643e-08
0.0280011 -1.55018e-06 1.18655e-08
0.0280016 -1.12078e-06 1.3249e-09
0.0280019 -8.03388e-07 -3.10133e-09
0.0280022 -5.72141e-07 -4.44336e-09
0.0280023 -4.0566e-07 -4.32756e-09
0.0280024 -2.8712e-07 -3.61792e-09
0.0280025 -2.03774e-07 -2.75975e-09
0.0280026 -1.46307e-07 -1.86294e-09
0.0280026 -1.0871e-07 -8.13542e-10
0.0280026 -8.81896e-08 9.72572e-10
0.0280026 -8.59146e-08 3.19905e-09
0.0280027 -1.0605e-07 8.74115e-10
0.0280027 -1.43489e-07 -2.18474e-08
0.0280027 -1.64685e-07 -4.12233e-08
0.018 -1.9053e-06 -1.67085e-06
0.0180029 -0.00700358 -0.0018762
0.0207837 -0.0190149 -0.00492435
0.0207401 -0.0250193 -0.00634087
0.0161 -0.0270426 -0.00762786
-1.58049e-06 -0.0140441 -0.00433613
9.57269e-05 2.5765e-05 9.10021e-07
-3.27054e-05 3.40314e-05 0.000655101
0.00657025 0.00407733 0.00144234
0.0134257 0.00924969 0.00141226
0.0168373 0.010055 0.0010027
0.0186158 0.00908447 0.000463518
0.0203135 0.00753869 -2.40036e-05
0.0220063 0.00590772 -0.000293719
0.0235299 0.00450798 -0.000361869
0.0248202 0.00334527 -0.000311578
0.0258836 0.00238967 -0.000215036
0.0267467 0.00163314 -0.00011618
0.0274341 0.00106733 -3.61145e-05
0.0279677 0.000667263 1.78522e-05
0.0283706 0.000396325 4.64425e-05
0.0286681 0.000218516 5.51436e-05
0.028884 0.000105384 5.13332e-05
0.0290389 3.65478e-05 4.17287e-05
0.0291488 -2.39688e-06 3.09778e-05
0.0292259 -2.18096e-05 2.15281e-05
0.0292791 -2.91449e-05 1.42243e-05
0.0293153 -2.96024e-05 9.0247e-06
0.0293396 -2.66146e-05 5.53143e-06
0.0293556 -2.22912e-05 3.28526e-06
0.0293661 -1.78169e-05 1.89162e-06
0.0293728 -1.37763e-05 1.05354e-06
0.0293771 -1.03938e-05 5.64191e-07
0.0293798 -7.69675e-06 2.86948e-07
0.0293815 -5.61773e-06 1.35047e-07
0.0293826 -4.05411e-06 5.51564e-08
0.0293833 -2.89972e-06 1.54223e-08
0.0293837 -2.05949e-06 -2.66842e-09
0.029384 -1.45471e-06 -9.58338e-09
0.0293841 -1.02326e-06 -1.10673e-08
0.0293842 -7.17734e-07 -1.01569e-08
0.0293843 -5.02826e-07 -8.37143e-09
0.0293843 -3.52747e-07 -6.43461e-09
0.0293844 -2.49053e-07 -4.66305e-09
0.0293844 -1.79018e-07 -3.05072e-09
0.0293844 -1.34417e-07 -1.58717e-09
0.0293844 -1.10314e-07 -1.79362e-10
0.0293844 -1.02093e-07 2.83615e-10
0.0293844 -1.06476e-07 -8.62727e-09
0.0293844 -1.07095e-07 -3.49118e-08
0.0293843 -1.02496e-07 -5.25596e-08
0.0196 -2.76665e-06 -2.52042e-06
0.019601 -0.00591492 -0.00274438
0.0190567 -0.0131987 -0.00648099
0.0159412 -0.0162293 -0.00668909
0.0108854 -0.0152117 -0.0066898
0.00172343 -0.00626891 -0.00504406
7.12652e-05 -6.54335e-05 -0.00130431
3.27281e-05 -3.27281e-05 -4.08536e-08
-3.21109e-05 3.32999e-05 0.000261177
0.00390618 0.00274831 0.000558001
0.00893904 0.00642508 0.000488835
0.0118533 0.00670665 0.000138221
0.0151003 0.00524949 -0.000245104
0.0182529 0.00382325 -0.000408032
0.0209528 0.00273154 -0.000400955
0.0231385 0.00187045 -0.000318831
0.024869 0.00117509 -0.000221021
0.0262217 0.000641346 -0.000132343
0.0272598 0.00027175 -6.01585e-05
0.0280342 4.56551e-05 -7.27262e-06
0.0285931 -7.51109e-05 2.51777e-05
0.0289839 -0.000128804 3.9258e-05
0.0292498 -0.000143753 4.01483e-05
0.0294267 -0.000137809 3.39232e-05
0.0295421 -0.000121603 2.54257e-05
0.0296158 -0.000101494 1.74916e-05
0.0296619 -8.12612e-05 1.1263e-05
0.0296901 -6.29807e-05 6.86591e-06
0.029707 -4.75685e-05 3.98474e-06
0.0297167 -3.51979e-05 2.20226e-06
0.0297222 -2.5625e-05 1.15174e-06
0.0297252 -1.84193e-05 5.60061e-07
0.0297267 -1.3109e-05 2.42311e-07
0.0297275 -9.25834e-06 8.11539e-08
0.0297278 -6.50052e-06 5.7618e-09
0.0297278 -4.5439e-06 -2.48505e-08
0.0297278 -3.16562e-06 -3.34701e-08
0.0297278 -2.2e-06 -3.22453e-08
0.0297277 -1.52633e-06 -2.73383e-08
0.0297277 -1.05792e-06 -2.16703e-08
0.0297276 -7.33207e-07 -1.64721e-08
0.0297276 -5.08833e-07 -1.21283e-08
0.0297275 -3.54532e-07 -8.66568e-09
0.0297275 -2.4938e-07 -6.01436e-09
0.0297275 -1.79038e-07 -4.06305e-09
0.0297275 -1.33203e-07 -2.87683e-09
0.0297275 -1.0376e-07 -2.67178e-09
0.0297275 -8.22471e-08 -3.79827e-09
0.0297274 -6.06425e-08 -1.5459e-08
0.0297274 -2.23636e-08 -3.92047e-08
0.0297273 4.28989e-09 -5.22574e-08
0.0196 -1.33263e-06 -3.51708e-06
0.0195999 -0.0036918 -0.00312695
0.0187637 -0.00810562 -0.00652136
0.0175125 -0.00813767 -0.00605315
0.0131864 -0.00430762 -0.00554411
0.00908802 0.00256864 -0.00533257
0.00614653 0.00315374 -0.00311628
7.14342e-05 -5.94328e-05 -0.000672759
2.73219e-05 -2.73219e-05 -1.24979e-07
-3.15856e-05 3.26362e-05 9.51023e-05
0.00270488 0.00192938 0.000361253
0.00700088 0.003012 0.000262191
0.012269 0.00147885 -0.000162811
0.0169037 0.0004872 -0.000349864
0.0205047 2.99096e-05 -0.00035519
0.0231869 -0.000241337 -0.000287716
0.0251614 -0.000455697 -0.000211691
0.0266005 -0.000606475 -0.000147225
0.0276258 -0.000666914 -9.35941e-05
0.0283287 -0.000642016 -4.92907e-05
0.0287876 -0.000562816 -1.64973e-05
0.0290716 -0.00046285 3.19647e-06
0.0292379 -0.000364548 1.1554e-05
0.0293295 -0.000278508 1.25607e-05
0.0293761 -0.000207862 1.01478e-05
0.0293972 -0.000152181 6.93942e-06
0.0294045 -0.000109615 4.19063e-06
0.0294049 -7.78876e-05 2.25447e-06
0.0294025 -5.47385e-05 1.05525e-06
0.0293992 -3.81439e-05 3.87667e-07
0.0293959 -2.64145e-05 5.54288e-08
0.0293931 -1.82126e-05 -8.58069e-08
0.0293908 -1.25221e-05 -1.28305e-07
0.029389 -8.59529e-06 -1.25466e-07
0.0293877 -5.89506e-06 -1.056e-07
0.0293868 -4.0421e-06 -8.23323e-08
0.0293861 -2.77192e-06 -6.13609e-08
0.0293856 -1.90161e-06 -4.44489e-08
0.0293852 -1.30537e-06 -3.16058e-08
0.029385 -8.96945e-07 -2.21953e-08
0.0293848 -6.17293e-07 -1.54422e-08
0.0293847 -4.26054e-07 -1.06388e-08
0.0293846 -2.9561e-07 -7.26449e-09
0.0293845 -2.06871e-07 -5.01566e-09
0.0293845 -1.46232e-07 -3.73002e-09
0.0293845 -1.03337e-07 -3.36739e-09
0.0293844 -6.96763e-08 -3.99317e-09
0.0293844 -3.6918e-08 -5.35512e-09
0.0293843 5.25112e-09 -1.49807e-08
0.0293843 6.98446e-08 -3.26494e-08
0.0293842 1.09538e-07 -4.14867e-08
0.018 -8.49056e-07 -3.50962e-06
0.0180009 -0.00201189 -0.00304966
0.0183162 -0.00388559 -0.00616127
0.0183716 -0.00267974 -0.00528747
0.0173537 0.000617698 -0.00419569
0.0170751 0.0070706 -0.0039659
0.0178107 0.0125783 -0.00300281
0.0109391 0.00693063 -0.00149659
7.28832e-05 -4.59823e-05 -0.000436108
-2.47571e-05 -5.35505e-05 5.46822e-07
7.75656e-06 -0.00071311 0.000746532
0.00827273 -0.0028738 0.00108423
0.0155779 -0.0044269 0.000450446
0.0205561 -0.0040804 0.000136225
0.0237224 -0.00321096 1.68249e-05
0.0257149 -0.00247997 -2.94175e-05
0.0269647 -0.00198174 -5.89646e-05
0.0277244 -0.0016229 -8.23423e-05
0.0281478 -0.00131667 -9.14071e-05
0.0283434 -0.00103322 -8.26545e-05
0.0283962 -0.000779658 -6.27644e-05
0.0283709 -0.000568893 -4.14373e-05
0.0283117 -0.00040499 -2.46931e-05
0.0282452 -0.000283435 -1.38484e-05
0.0281847 -0.000196017 -7.6553e-06
0.028135 -0.000134399 -4.35896e-06
0.0280969 -9.15787e-05 -2.62645e-06
0.0280687 -6.21398e-05 -1.67448e-06
0.0280485 -4.20649e-05 -1.10775e-06
0.0280342 -2.84529e-05 -7.43329e-07
0.0280243 -1.92541e-05 -4.97768e-07
0.0280175 -1.30458e-05 -3.29758e-07
0.0280128 -8.85452e-06 -2.15393e-07
0.0280096 -6.02107e-06 -1.3868e-07
0.0280074 -4.10175e-06 -8.8125e-08
0.0280059 -2.79879e-06 -5.53813e-08
0.0280049 -1.91241e-06 -3.44994e-08
0.0280042 -1.30834e-06 -2.13544e-08
0.0280037 -8.96109e-07 -1.31642e-08
0.0280034 -6.14563e-07 -8.09957e-09
0.0280032 -4.2223e-07 -4.98242e-09
0.028003 -2.90816e-07 -3.07164e-09
0.0280029 -2.00792e-07 -1.95592e-09
0.0280028 -1.38379e-07 -1.43926e-09
0.0280027 -9.35269e-08 -1.40077e-09
0.0280027 -5.84532e-08 -1.74246e-09
0.0280027 -2.64802e-08 -2.39777e-09
0.0280026 9.037e-09 -3.01999e-09
0.0280026 5.83018e-08 -7.82953e-09
0.0280026 1.27922e-07 -1.88208e-08
0.0280026 1.67793e-07 -2.52276e-08
0.0148 -4.76542e-07 -3.10936e-06
0.0148015 -0.0010372 -0.0028293
0.0162304 -0.00164922 -0.00542609
0.0177944 -3.46907e-05 -0.00429156
0.0191185 0.0031703 -0.00306901
0.0208571 0.00735198 -0.0028474
0.0246724 0.0129788 -0.00241173
0.0279654 0.0195127 -0.00151589
0.0229952 0.0112934 -0.000344142
0.0234472 1.8807e-11 0.000624712
0.0265918 -0.00670776 0.00155902
0.0300121 -0.0131017 0.00210957
0.0308379 -0.0110337 0.00163937
0.0302679 -0.0077131 0.00114553
0.0292764 -0.00508809 0.000700656
0.0282923 -0.00337376 0.000351087
0.0274452 -0.00230302 0.000107362
0.0267472 -0.00160308 -4.02486e-05
0.0261801 -0.00111079 -0.000107472
0.0257253 -0.000753126 -0.000117188
0.0253683 -0.000498691 -9.64276e-05
0.0250956 -0.000325534 -6.7332e-05
0.0248933 -0.000212142 -4.20578e-05
0.0247472 -0.000139314 -2.42813e-05
0.0246442 -9.2555e-05 -1.32532e-05
0.0245729 -6.21873e-05 -6.9444e-06
0.0245243 -4.21613e-05 -3.52288e-06
0.0244914 -2.87702e-05 -1.73183e-06
0.0244694 -1.97195e-05 -8.17457e-07
0.0244546 -1.35556e-05 -3.60615e-07
0.0244448 -9.33538e-06 -1.38187e-07
0.0244381 -6.43554e-06 -3.42164e-08
0.0244337 -4.43826e-06 1.08059e-08
0.0244307 -3.06068e-06 2.71923e-08
0.0244286 -2.10988e-06 3.02678e-08
0.0244272 -1.45358e-06 2.76799e-08
0.0244263 -1.00074e-06 2.31499e-08
0.0244257 -6.88509e-07 1.84013e-08
0.0244252 -4.73456e-07 1.41536e-08
0.0244249 -3.25495e-07 1.06343e-08
0.0244247 -2.23731e-07 7.84455e-09
0.0244246 -1.53566e-07 5.69397e-09
0.0244245 -1.04672e-07 4.04691e-09
0.0244244 -6.95876e-08 2.77424e-09
0.0244243 -4.26894e-08 1.80467e-09
0.0244243 -1.94047e-08 1.11403e-09
0.0244243 4.49781e-09 7.90724e-10
0.0244243 3.2942e-08 9.57114e-10
0.0244243 7.13475e-08 9.45437e-11
0.0244243 1.20164e-07 -6.94733e-09
0.0244244 1.46393e-07 -1.29159e-08
0.01 -9.10537e-07 -2.81699e-06
0.0100007 -0.000635474 -0.002304
0.011322 -0.00071443 -0.00414371
0.0131868 0.00055054 -0.00291065
0.0156244 0.00251996 -0.00181411
0.0195282 0.00556696 -0.00182397
0.0254487 0.00836509 -0.00237102
0.0345601 0.0101211 -0.00209652