# vtk DataFile Version 2.0
Tobias Weinzierl: CPU, Manycore and Cluster Computing
ASCII

DATASET STRUCTURED_POINTS
DIMENSIONS  51 11 6

ORIGIN 0 0 0 

SPACING 0.1 0.1 0.1 

POINT_DATA 3366

VECTORS velocity float
0 0 0
-7.54271e-13 0 0
8.00892e-09 0 0
5.22211e-09 0 0
-2.91811e-08 0 0
-5.75828e-09 0 0
-2.54723e-09 0 0
-4.31912e-09 0 0
-5.79626e-09 0 0
-5.22496e-09 0 0
-2.78244e-09 0 0
-3.28816e-09 0 0
-9.34449e-09 0 0
-1.79056e-08 0 0
-2.41213e-08 0 0
-2.63002e-08 0 0
-2.60969e-08 0 0
-2.56885e-08 0 0
-2.60707e-08 0 0
-2.71789e-08 0 0
-2.85763e-08 0 0
-2.98952e-08 0 0
-3.09538e-08 0 0
-3.17156e-08 0 0
-3.22196e-08 0 0
-3.25285e-08 0 0
-3.27031e-08 0 0
-3.27915e-08 0 0
-3.28284e-08 0 0
-3.28367e-08 0 0
-3.28309e-08 0 0
-3.28195e-08 0 0
-3.28069e-08 0 0
-3.27955e-08 0 0
-3.2786e-08 0 0
-3.27786e-08 0 0
-3.27731e-08 0 0
-3.27692e-08 0 0
-3.27665e-08 0 0
-3.27647e-08 0 0
-3.27636e-08 0 0
-3.27631e-08 0 0
-3.27629e-08 0 0
-3.2763e-08 0 0
-3.27634e-08 0 0
-3.2764e-08 0 0
-3.27647e-08 0 0
-3.27656e-08 0 0
-3.27667e-08 0 0
-3.2769e-08 0 0
0.0020437 0 0
0 3.81965e-07 0
-5.59505e-12 -7.33192e-09 0
1.34294e-08 -1.34051e-08 0
1.37445e-08 -1.166e-09 0
-3.26195e-08 -1.77991e-08 0
7.60971e-09 -2.19829e-08 0
6.34744e-09 1.23227e-08 0
-3.33471e-09 2.3783e-08 0
-8.60639e-09 2.13287e-08 0
-1.05874e-08 1.37562e-08 0
-9.01792e-09 8.51517e-09 0
-1.03274e-08 1.03926e-08 0
-1.9964e-08 1.42041e-08 0
-3.37412e-08 1.33161e-08 0
-4.35215e-08 7.93339e-09 0
-4.70765e-08 2.65963e-09 0
-4.8078e-08 2.74234e-10 0
-5.02205e-08 2.8337e-10 0
-5.4436e-08 1.08652e-09 0
-5.97977e-08 1.66043e-09 0
-6.50727e-08 1.76283e-09 0
-6.94819e-08 1.5342e-09 0
-7.2772e-08 1.17371e-09 0
-7.50237e-08 8.15766e-10 0
-7.64559e-08 5.21826e-10 0
-7.73043e-08 3.06253e-10 0
-7.77671e-08 1.60774e-10 0
-7.79913e-08 6.95727e-11 0
-7.80773e-08 1.67378e-11 0
-7.80896e-08 -1.08457e-11 0
-7.8067e-08 -2.28826e-11 0
-7.80316e-08 -2.60343e-11 0
-7.79949e-08 -2.45919e-11 0
-7.79624e-08 -2.11514e-11 0
-7.79357e-08 -1.7174e-11 0
-7.79151e-08 -1.34045e-11 0
-7.78997e-08 -1.01627e-11 0
-7.78887e-08 -7.53267e-12 0
-7.78809e-08 -5.48062e-12 0
-7.78757e-08 -3.92263e-12 0
-7.78723e-08 -2.76179e-12 0
-7.78703e-08 -1.90693e-12 0
-7.78693e-08 -1.27983e-12 0
-7.78692e-08 -8.13642e-13 0
-7.78698e-08 -4.54393e-13 0
-7.78709e-08 -1.6037e-13 0
-7.78725e-08 1.35817e-13 0
-7.78748e-08 5.296e-13 0
-7.78781e-08 1.59764e-12 0
-7.78844e-08 5.38189e-12 0
0.00582622 -5.14467e-08 0
0 -2.25226e-08 0
-7.35651e-12 -6.10682e-09 0
1.49386e-08 -2.04153e-08 0
3.17091e-08 -3.37883e-08 0
1.84833e-08 -7.11735e-08 0
5.61784e-08 -5.85715e-08 0
3.90577e-08 -1.08741e-09 0
1.45421e-08 7.57503e-09 0
-1.17659e-08 1.63079e-09 0
-2.49027e-08 1.30949e-09 0
-2.4867e-08 5.25788e-09 0
-2.1483e-08 8.52742e-09 0
-2.64424e-08 9.50219e-09 0
-3.77572e-08 1.02325e-08 0
-4.55953e-08 1.24834e-08 0
-4.71477e-08 1.53702e-08 0
-4.63434e-08 1.70391e-08 0
-4.71732e-08 1.67562e-08 0
-5.06967e-08 1.4892e-08 0
-5.58744e-08 1.21692e-08 0
-6.12207e-08 9.25036e-09 0
-6.57359e-08 6.59371e-09 0
-6.90589e-08 4.42963e-09 0
-7.1256e-08 2.80769e-09 0
-7.25751e-08 1.67085e-09 0
-7.32878e-08 9.19109e-10 0
-7.36185e-08 4.49117e-10 0
-7.37286e-08 1.72643e-10 0
-7.37233e-08 2.20017e-11 0
-7.36664e-08 -5.10889e-11 0
-7.35933e-08 -7.91456e-11 0
-7.35222e-08 -8.29643e-11 0
-7.34609e-08 -7.51677e-11 0
-7.34114e-08 -6.29777e-11 0
-7.33734e-08 -5.02223e-11 0
-7.33452e-08 -3.87036e-11 0
-7.33248e-08 -2.90839e-11 0
-7.33103e-08 -2.14316e-11 0
-7.33003e-08 -1.55415e-11 0
-7.32936e-08 -1.1111e-11 0
-7.32892e-08 -7.82981e-12 0
-7.32865e-08 -5.41948e-12 0
-7.32851e-08 -3.64755e-12 0
-7.32848e-08 -2.32131e-12 0
-7.32853e-08 -1.26581e-12 0
-7.32865e-08 -3.1311e-13 0
-7.32885e-08 8.28511e-13 0
-7.32913e-08 2.84278e-12 0
-7.32952e-08 6.28868e-12 0
-7.33013e-08 1.11328e-11 0
0.00824013 -1.06307e-07 0
0 -6.31205e-07 0
-4.09105e-13 -9.51444e-09 0
1.82164e-08 -3.24565e-08 0
3.941e-08 -6.03477e-08 0
1.99792e-08 -8.06476e-08 0
4.28105e-08 -4.32571e-08 0
3.01718e-08 -1.84743e-11 0
1.35579e-08 -4.8857e-09 0
-2.68363e-08 -1.8872e-08 0
-4.41185e-08 -3.27243e-08 0
-4.09945e-08 -3.92559e-08 0
-3.93759e-08 -3.60128e-08 0
-4.8104e-08 -1.9244e-08 0
-6.22726e-08 4.14102e-09 0
-6.9871e-08 2.2528e-08 0
-6.75143e-08 3.06866e-08 0
-5.90749e-08 3.04571e-08 0
-5.00686e-08 2.61844e-08 0
-4.39078e-08 2.0879e-08 0
-4.11099e-08 1.57726e-08 0
-4.05522e-08 1.12818e-08 0
-4.09258e-08 7.59092e-09 0
-4.14083e-08 4.76395e-09 0
-4.16793e-08 2.74789e-09 0
-4.17087e-08 1.40774e-09 0
-4.15729e-08 5.78981e-10 0
-4.13585e-08 1.07275e-10 0
-4.1128e-08 -1.3226e-10 0
-4.09168e-08 -2.31087e-10 0
-4.074e-08 -2.51241e-10 0
-4.06003e-08 -2.32057e-10 0
-4.04944e-08 -1.96851e-10 0
-4.04165e-08 -1.5839e-10 0
-4.03606e-08 -1.22925e-10 0
-4.03212e-08 -9.29361e-11 0
-4.0294e-08 -6.88854e-11 0
-4.02755e-08 -5.02718e-11 0
-4.0263e-08 -3.62259e-11 0
-4.02549e-08 -2.58202e-11 0
-4.02496e-08 -1.8212e-11 0
-4.02464e-08 -1.26949e-11 0
-4.02447e-08 -8.70194e-12 0
-4.0244e-08 -5.78354e-12 0
-4.02441e-08 -3.58205e-12 0
-4.02449e-08 -1.78025e-12 0
-4.02464e-08 7.8945e-15 0
-4.02482e-08 2.1769e-12 0
-4.02501e-08 4.80412e-12 0
-4.02516e-08 7.62811e-12 0
-4.02543e-08 1.02793e-11 0
0.00913653 -1.05129e-07 0
0 -1.22449e-06 0
-4.96411e-12 -1.70731e-08 0
7.74038e-09 -4.58207e-08 0
1.22689e-08 -5.83572e-08 0
-8.41195e-09 -4.59145e-08 0
-3.14628e-12 -1.63076e-08 0
-2.1425e-11 -4.09966e-11 0
3.60715e-11 -4.43639e-11 0
-1.78804e-08 -1.90142e-08 0
-5.26264e-08 -5.21068e-08 0
-6.19383e-08 -6.64393e-08 0
-6.45888e-08 -5.54365e-08 0
-7.55196e-08 -2.51394e-08 0
-8.69309e-08 9.02834e-09 0
-9.17678e-08 3.03627e-08 0
-8.75659e-08 3.53635e-08 0
-7.51476e-08 2.99954e-08 0
-5.90486e-08 2.18708e-08 0
-4.4558e-08 1.49164e-08 0
-3.42835e-08 9.74755e-09 0
-2.80004e-08 5.93978e-09 0
-2.43573e-08 3.15786e-09 0
-2.21529e-08 1.23601e-09 0
-2.06835e-08 3.30127e-11 0
-1.96212e-08 -6.18901e-10 0
-1.88275e-08 -8.92187e-10 0
-1.82366e-08 -9.34149e-10 0
-1.78054e-08 -8.53484e-10 0
-1.74984e-08 -7.21405e-10 0
-1.72849e-08 -5.79604e-10 0
-1.71394e-08 -4.49408e-10 0
-1.70421e-08 -3.39501e-10 0
-1.69779e-08 -2.51488e-10 0
-1.69363e-08 -1.83499e-10 0
-1.69097e-08 -1.32313e-10 0
-1.6893e-08 -9.45031e-11 0
-1.68828e-08 -6.6971e-11 0
-1.68767e-08 -4.71383e-11 0
-1.68732e-08 -3.2966e-11 0
-1.68714e-08 -2.28919e-11 0
-1.68707e-08 -1.57438e-11 0
-1.68707e-08 -1.06525e-11 0
-1.68712e-08 -6.96961e-12 0
-1.68721e-08 -4.18293e-12 0
-1.68733e-08 -1.89039e-12 0
-1.68745e-08 1.29871e-13 0
-1.68754e-08 1.89339e-12 0
-1.68757e-08 3.28941e-12 0
-1.68755e-08 4.32042e-12 0
-1.68767e-08 5.43215e-12 0
0.00941603 -5.83223e-08 0
0 -1.10274e-06 0
-1.54802e-11 -1.85269e-08 0
-3.33928e-09 -3.89973e-08 0
-5.99342e-09 -4.58553e-08 0
-2.40156e-08 -5.00393e-08 0
-2.05943e-08 -2.46573e-08 0
-2.95537e-11 3.0131e-11 0
5.35091e-12 -5.35091e-12 0
3.17459e-11 -4.0141e-11 0
-2.80483e-08 -2.86807e-08 0
-7.2686e-08 -6.96452e-08 0
-7.51759e-08 -6.672e-08 0
-7.81969e-08 -2.8556e-08 0
-8.10313e-08 1.18717e-08 0
-8.50943e-08 3.53967e-08 0
-8.72627e-08 3.77228e-08 0
-8.07973e-08 2.69783e-08 0
-6.55433e-08 1.42814e-08 0
-4.78906e-08 5.25912e-09 0
-3.34446e-08 1.65522e-10 0
-2.37994e-08 -2.41729e-09 0
-1.80153e-08 -3.5786e-09 0
-1.46584e-08 -3.89422e-09 0
-1.26788e-08 -3.69636e-09 0
-1.14742e-08 -3.22256e-09 0
-1.07253e-08 -2.64642e-09 0
-1.02582e-08 -2.07978e-09 0
-9.97058e-09 -1.58158e-09 0
-9.79752e-09 -1.17334e-09 0
-9.6967e-09 -8.54441e-10 0
-9.6404e-09 -6.1359e-10 0
-9.61085e-09 -4.36051e-10 0
-9.59687e-09 -3.07469e-10 0
-9.59162e-09 -2.15532e-10 0
-9.59104e-09 -1.50407e-10 0
-9.59277e-09 -1.04584e-10 0
-9.59548e-09 -7.24975e-11 0
-9.59844e-09 -5.01056e-11 0
-9.60129e-09 -3.4511e-11 0
-9.60387e-09 -2.36562e-11 0
-9.60615e-09 -1.60859e-11 0
-9.60817e-09 -1.0768e-11 0
-9.60998e-09 -6.97465e-12 0
-9.61162e-09 -4.22371e-12 0
-9.61303e-09 -2.23442e-12 0
-9.61413e-09 -8.49063e-13 0
-9.61473e-09 3.83322e-14 0
-9.61488e-09 4.67554e-13 0
-9.61497e-09 4.17707e-13 0
-9.61658e-09 3.23061e-13 0
0.00947422 7.24312e-09 0
0 -7.64997e-07 0
-9.06709e-12 -1.23711e-08 0
-3.83125e-09 -3.11883e-08 0
-6.0574e-09 -3.93233e-08 0
-3.51982e-08 -3.66065e-08 0
-5.04286e-08 -1.9558e-08 0
-1.95776e-08 -3.45823e-09 0
-2.83489e-11 3.22307e-11 0
-7.87514e-13 7.87514e-13 0
2.34256e-11 -3.94098e-11 0
-3.31112e-08 -3.99799e-08 0
-5.18486e-08 -6.55352e-08 0
-5.71951e-08 -2.65247e-08 0
-5.42491e-08 1.69755e-08 0
-5.48153e-08 4.18819e-08 0
-6.25955e-08 4.1928e-08 0
-6.71379e-08 2.5891e-08 0
-6.06596e-08 8.07293e-09 0
-4.70407e-08 -3.64248e-09 0
-3.37756e-08 -8.96008e-09 0
-2.46125e-08 -1.0287e-08 0
-1.95192e-08 -9.64582e-09 0
-1.71237e-08 -8.19268e-09 0
-1.61841e-08 -6.53479e-09 0
-1.59316e-08 -4.98313e-09 0
-1.59669e-08 -3.67536e-09 0
-1.6102e-08 -2.64504e-09 0
-1.6255e-08 -1.87017e-09 0
-1.63938e-08 -1.30605e-09 0
-1.65086e-08 -9.04542e-10 0
-1.6599e-08 -6.2315e-10 0
-1.66683e-08 -4.27934e-10 0
-1.67205e-08 -2.93362e-10 0
-1.67594e-08 -2.00937e-10 0
-1.67883e-08 -1.37576e-10 0
-1.68097e-08 -9.41674e-11 0
-1.68256e-08 -6.44258e-11 0
-1.68374e-08 -4.40361e-11 0
-1.68462e-08 -3.00431e-11 0
-1.68527e-08 -2.04237e-11 0
-1.68577e-08 -1.3794e-11 0
-1.68615e-08 -9.21621e-12 0
-1.68644e-08 -6.06432e-12 0
-1.68668e-08 -3.92346e-12 0
-1.68687e-08 -2.52006e-12 0
-1.68702e-08 -1.68387e-12 0
-1.68714e-08 -1.33778e-12 0
-1.68722e-08 -1.56496e-12 0
-1.68731e-08 -2.65866e-12 0
-1.68753e-08 -4.49195e-12 0
0.009416 7.00192e-08 0
0 -5.36913e-07 0
-9.85905e-13 -9.52583e-09 0
-2.40493e-09 -2.34864e-08 0
-9.90607e-09 -2.93149e-08 0
-3.69965e-08 -2.40501e-08 0
-6.11365e-08 -8.78392e-09 0
-5.13338e-08 -1.37528e-09 0
-2.57856e-08 -1.28697e-09 0
-4.18618e-11 2.24466e-11 0
2.13378e-11 1.94818e-11 0
1.34709e-13 -2.07846e-08 0
-3.49077e-08 -3.23837e-08 0
-5.73105e-08 -5.69524e-09 0
-5.08839e-08 2.45561e-08 0
-3.18349e-08 4.02599e-08 0
-2.6346e-08 3.68641e-08 0
-3.50461e-08 2.06964e-08 0
-4.22836e-08 3.3359e-09 0
-4.17523e-08 -7.86504e-09 0
-3.76096e-08 -1.23287e-08 0
-3.43978e-08 -1.25278e-08 0
-3.33724e-08 -1.07902e-08 0
-3.38985e-08 -8.50205e-09 0
-3.50745e-08 -6.33396e-09 0
-3.6322e-08 -4.54501e-09 0
-3.73888e-08 -3.18074e-09 0
-3.82135e-08 -2.1908e-09 0
-3.88176e-08 -1.49495e-09 0
-3.92471e-08 -1.01534e-09 0
-3.95475e-08 -6.88443e-10 0
-3.97561e-08 -4.66867e-10 0
-3.99006e-08 -3.16954e-10 0
-4.00008e-08 -2.1549e-10 0
-4.00706e-08 -1.4671e-10 0
-4.01195e-08 -9.99921e-11 0
-4.01539e-08 -6.81926e-11 0
-4.01782e-08 -4.65056e-11 0
-4.01956e-08 -3.16907e-11 0
-4.02081e-08 -2.15569e-11 0
-4.02172e-08 -1.46212e-11 0
-4.02238e-08 -9.87955e-12 0
-4.02287e-08 -6.65155e-12 0
-4.02324e-08 -4.47681e-12 0
-4.02353e-08 -3.05128e-12 0
-4.02378e-08 -2.19018e-12 0
-4.02399e-08 -1.81248e-12 0
-4.02416e-08 -1.93529e-12 0
-4.02431e-08 -2.74243e-12 0
-4.02448e-08 -4.8439e-12 0
-4.0248e-08 -8.67714e-12 0
0.00913647 1.08127e-07 0
0 -4.58314e-07 0
1.70623e-12 -5.26366e-09 0
-1.98122e-09 -1.43571e-08 0
-1.57783e-08 -1.99885e-08 0
-4.61418e-08 -1.72334e-08 0
-7.21081e-08 -1.64595e-09 0
-6.8785e-08 6.63254e-09 0
-5.6719e-08 -1.4625e-08 0
-3.54079e-08 -1.65667e-08 0
-3.2246e-08 -1.46583e-12 0
-3.5181e-08 -1.25128e-10 0
-6.42779e-08 9.24169e-09 0
-8.70393e-08 2.31578e-08 0
-7.09403e-08 2.53232e-08 0
-3.08838e-08 1.83522e-08 0
-1.08944e-08 9.16218e-09 0
-2.20046e-08 1.36639e-09 0
-4.19752e-08 -3.74668e-09 0
-5.43172e-08 -6.05327e-09 0
-5.9028e-08 -6.36215e-09 0
-6.09903e-08 -5.69201e-09 0
-6.2817e-08 -4.69976e-09 0
-6.4904e-08 -3.68873e-09 0
-6.69455e-08 -2.7874e-09 0
-6.86805e-08 -2.0458e-09 0
-7.00255e-08 -1.46992e-09 0
-7.10107e-08 -1.04093e-09 0
-7.17085e-08 -7.30237e-10 0
-7.21936e-08 -5.09264e-10 0
-7.25278e-08 -3.53829e-10 0
-7.27574e-08 -2.45214e-10 0
-7.29151e-08 -1.69617e-10 0
-7.30239e-08 -1.17133e-10 0
-7.30993e-08 -8.07605e-11 0
-7.31518e-08 -5.55881e-11 0
-7.31886e-08 -3.81885e-11 0
-7.32146e-08 -2.61763e-11 0
-7.32331e-08 -1.78948e-11 0
-7.32463e-08 -1.21955e-11 0
-7.32558e-08 -8.28376e-12 0
-7.32627e-08 -5.61115e-12 0
-7.32679e-08 -3.80183e-12 0
-7.32718e-08 -2.60376e-12 0
-7.3275e-08 -1.85893e-12 0
-7.32777e-08 -1.48192e-12 0
-7.32801e-08 -1.45725e-12 0
-7.32823e-08 -1.8644e-12 0
-7.32846e-08 -2.89985e-12 0
-7.32875e-08 -5.24791e-12 0
-7.32928e-08 -9.79876e-12 0
0.0082401 9.78755e-08 0
0 -4.7476e-07 0
7.78576e-12 -1.41048e-09 0
-2.22558e-09 -5.06699e-09 0
-1.99091e-08 -8.26369e-09 0
-5.04427e-08 -7.71828e-09 0
-7.60444e-08 -4.29035e-09 0
-7.50137e-08 -8.82461e-10 0
-6.48406e-08 -7.25394e-09 0
-7.50401e-08 -8.33863e-09 0
-7.06693e-08 5.39923e-09 0
-6.31437e-08 1.64558e-08 0
-6.09198e-08 2.13742e-08 0
-5.82009e-08 1.9296e-08 0
-3.98711e-08 1.07223e-08 0
-1.46029e-08 -1.45137e-09 0
-1.03096e-08 -1.14809e-08 0
-2.99732e-08 -1.38619e-08 0
-5.33249e-08 -9.45914e-09 0
-6.68965e-08 -3.69663e-09 0
-7.15697e-08 -1.97331e-10 0
-7.25115e-08 8.93739e-10 0
-7.28268e-08 7.70979e-10 0
-7.33992e-08 3.54087e-10 0
-7.41933e-08 2.33304e-11 0
-7.50141e-08 -1.52638e-10 0
-7.57355e-08 -2.12807e-10 0
-7.63134e-08 -2.09015e-10 0
-7.67514e-08 -1.7814e-10 0
-7.70725e-08 -1.40723e-10 0
-7.73032e-08 -1.06198e-10 0
-7.7467e-08 -7.78246e-11 0
-7.75827e-08 -5.59178e-11 0
-7.76642e-08 -3.96266e-11 0
-7.77217e-08 -2.77988e-11 0
-7.77624e-08 -1.93486e-11 0
-7.77913e-08 -1.3379e-11 0
-7.78119e-08 -9.19694e-12 0
-7.78267e-08 -6.28664e-12 0
-7.78374e-08 -4.27348e-12 0
-7.78452e-08 -2.8901e-12 0
-7.7851e-08 -1.94864e-12 0
-7.78553e-08 -1.31955e-12 0
-7.78588e-08 -9.1689e-13 0
-7.78616e-08 -6.90297e-13 0
-7.78642e-08 -6.174e-13 0
-7.78666e-08 -7.07418e-13 0
-7.78691e-08 -1.02333e-12 0
-7.78719e-08 -1.64055e-12 0
-7.78757e-08 -2.7745e-12 0
-7.78827e-08 -5.11477e-12 0
0.00582624 4.07427e-08 0
0 0 0
5.75127e-12 0 0
-1.19933e-09 0 0
-1.00184e-08 0 0
-2.36453e-08 0 0
-3.52354e-08 0 0
-3.79843e-08 0 0
-3.39093e-08 0 0
-3.96416e-08 0 0
-3.84255e-08 0 0
-2.7962e-08 0 0
-1.52201e-08 0 0
-6.23538e-09 0 0
-1.69513e-11 0 0
2.25896e-09 0 0
-4.00536e-09 0 0
-1.62391e-08 0 0
-2.68958e-08 0 0
-3.22e-08 0 0
-3.33911e-08 0 0
-3.29335e-08 0 0
-3.22975e-08 0 0
-3.1943e-08 0 0
-3.18649e-08 0 0
-3.19468e-08 0 0
-3.20905e-08 0 0
-3.22399e-08 0 0
-3.23699e-08 0 0
-3.24737e-08 0 0
-3.25526e-08 0 0
-3.26108e-08 0 0
-3.2653e-08 0 0
-3.26833e-08 0 0
-3.27051e-08 0 0
-3.27207e-08 0 0
-3.27319e-08 0 0
-3.27399e-08 0 0
-3.27458e-08 0 0
-3.27501e-08 0 0
-3.27533e-08 0 0
-3.27557e-08 0 0
-3.27575e-08 0 0
-3.2759e-08 0 0
-3.27603e-08 0 0
-3.27615e-08 0 0
-3.27626e-08 0 0
-3.27639e-08 0 0
-3.27653e-08 0 0
-3.27673e-08 0 0
-3.27709e-08 0 0
0.00204373 0 0
0 0 5.29276e-07
-5.31714e-12 0 -6.82588e-10
1.45806e-08 0 8.17807e-09
2.17893e-08 0 3.83527e-08
-7.73801e-08 0 2.87754e-08
-2.07926e-08 0 -4.65458e-09
-6.47572e-09 0 -1.3763e-08
2.66683e-09 0 -2.05325e-08
1.08844e-08 0 -2.04192e-08
1.95372e-08 0 -1.67658e-08
3.06594e-08 0 -1.04486e-08
3.55574e-08 0 -3.82839e-09
2.60063e-08 0 4.14844e-10
5.0225e-09 0 1.4616e-09
-1.67388e-08 0 4.60856e-10
-3.21489e-08 0 -6.85976e-10
-4.16604e-08 0 -8.89369e-10
-4.87494e-08 0 -3.13992e-10
-5.55434e-08 0 3.9897e-10
-6.2232e-08 0 8.40128e-10
-6.82257e-08 0 9.48465e-10
-7.30519e-08 0 8.38397e-10
-7.65983e-08 0 6.42127e-10
-7.90141e-08 0 4.45785e-10
-8.05541e-08 0 2.87162e-10
-8.14739e-08 0 1.73598e-10
-8.19837e-08 0 9.8667e-11
-8.22383e-08 0 5.224e-11
-8.23432e-08 0 2.50224e-11
-8.23668e-08 0 9.9463e-12
-8.23504e-08 0 2.15553e-12
-8.23181e-08 0 -1.47126e-12
-8.22826e-08 0 -2.8427e-12
-8.22503e-08 0 -3.07564e-12
-8.22234e-08 0 -2.79488e-12
-8.22022e-08 0 -2.33186e-12
-8.21864e-08 0 -1.84989e-12
-8.21748e-08 0 -1.42007e-12
-8.21667e-08 0 -1.06546e-12
-8.21611e-08 0 -7.85831e-13
-8.21575e-08 0 -5.70683e-13
-8.21553e-08 0 -4.06682e-13
-8.21542e-08 0 -2.80982e-13
-8.2154e-08 0 -1.78578e-13
-8.21545e-08 0 -8.51195e-14
-8.21555e-08 0 6.27152e-15
-8.2157e-08 0 1.12835e-13
-8.2159e-08 0 1.85957e-13
-8.21621e-08 0 4.46599e-13
-8.21681e-08 0 2.73587e-12
0.00578314 0 -1.39703e-08
0.0036 -3.04854e-07 -6.22303e-08
0.00359981 -0.00135564 -8.76124e-06
0.00673097 -0.00385192 0.00010141
0.0135909 -0.00604148 -0.000689201
0.0236598 -0.0143795 -0.00444611
0.0461542 -0.0130072 -0.00491073
0.049597 -0.00173758 -0.00167569
0.0493429 0.00277488 -0.000194584
0.0443082 0.00507231 0.00052233
0.0386265 0.00523195 0.000487557
0.033452 0.00457411 0.00021628
0.0291405 0.00366383 -5.30933e-05
0.0257716 0.00270407 -0.000246521
0.0232503 0.00183901 -0.00033361
0.0214021 0.00117903 -0.000315414
0.0200582 0.000746016 -0.000231746
0.0190899 0.000485867 -0.000136335
0.0184039 0.000328767 -6.33624e-05
0.0179296 0.000226288 -2.03442e-05
0.0176115 0.000154257 -2.37595e-07
0.0174052 0.000102356 6.60944e-06
0.0172761 6.55733e-05 7.30923e-06
0.0171983 4.03957e-05 5.85333e-06
0.0171533 2.38265e-05 4.06361e-06
0.0171285 1.33431e-05 2.58752e-06
0.0171157 6.96835e-06 1.54674e-06
0.0171098 3.25495e-06 8.75351e-07
0.0171076 1.20057e-06 4.68073e-07
0.0171072 1.41497e-07 2.33043e-07
0.0171078 -3.45102e-07 1.03738e-07
0.0171086 -5.19007e-07 3.63772e-08
0.0171095 -5.34038e-07 3.81714e-09
0.0171103 -4.77545e-07 -1.0044e-08
0.0171109 -3.9659e-07 -1.43991e-08
0.0171114 -3.14697e-07 -1.42997e-08
0.0171118 -2.42196e-07 -1.24022e-08
0.0171121 -1.82419e-07 -1.0024e-08
0.0171123 -1.35269e-07 -7.76075e-09
0.0171125 -9.91846e-08 -5.83568e-09
0.0171126 -7.21771e-08 -4.29101e-09
0.0171127 -5.23248e-08 -3.09391e-09
0.0171127 -3.7987e-08 -2.19811e-09
0.0171128 -2.78547e-08 -1.55939e-09
0.0171128 -2.09456e-08 -1.14344e-09
0.0171128 -1.66208e-08 -9.69178e-10
0.0171128 -1.44151e-08 -9.0086e-10
0.0171129 -1.41813e-08 -5.38964e-10
0.0171129 -1.63445e-08 1.85676e-09
0.0171129 -2.88507e-08 5.30781e-09
0.017113 -9.70915e-08 -2.12699e-08
0.0171132 -1.54604e-07 -4.92233e-08
0.01 -1.39117e-07 -1.43585e-06
0.0100007 -0.00299068 -0.000577047
0.0148225 -0.00990289 -0.00075383
0.0241416 -0.0177073 -0.00135697
0.0382974 -0.0321753 -0.00342951
0.05872 -0.0243216 -0.000803701
0.0560305 -0.00253083 0.00308536
0.055534 0.00529669 0.00324252
0.0497783 0.0103582 0.00280394
0.0442814 0.0105378 0.00188042
0.0397741 0.00942408 0.000941788
0.0360663 0.00789794 0.000209721
0.0330767 0.00627708 -0.000299208
0.0307624 0.00477392 -0.000551557
0.0290001 0.00350728 -0.000556657
0.0276831 0.00250598 -0.000415922
0.026728 0.00174757 -0.000246894
0.0260588 0.0011914 -0.000116761
0.0256065 0.000793682 -3.94713e-05
0.0253122 0.000515571 -2.66292e-06
0.0251287 0.000325712 1.0521e-05
0.0250196 0.000199552 1.25415e-05
0.0249585 0.000118127 1.04576e-05
0.0249267 6.71487e-05 7.54885e-06
0.0249119 3.62321e-05 5.03185e-06
0.0249064 1.81242e-05 3.1864e-06
0.0249057 7.94442e-06 1.94477e-06
0.0249071 2.51878e-06 1.15277e-06
0.0249092 -1.53539e-07 6.66074e-07
0.0249114 -1.29618e-06 3.75495e-07
0.0249133 -1.63451e-06 2.06237e-07
0.0249148 -1.58374e-06 1.09894e-07
0.0249161 -1.37163e-06 5.63291e-08
0.024917 -1.11615e-06 2.7316e-08
0.0249177 -8.73218e-07 1.20921e-08
0.0249182 -6.65142e-07 4.43686e-09
0.0249186 -4.97148e-07 8.28145e-10
0.0249189 -3.66553e-07 -6.86266e-10
0.0249191 -2.67674e-07 -1.16227e-09
0.0249192 -1.94278e-07 -1.15258e-09
0.0249193 -1.40696e-07 -9.37549e-10
0.0249194 -1.0224e-07 -6.72662e-10
0.0249194 -7.52752e-08 -4.47737e-10
0.0249195 -5.7099e-08 -2.76637e-10
0.0249195 -4.59931e-08 -2.13457e-10
0.0249195 -4.12581e-08 6.51111e-11
0.0249196 -4.4078e-08 1.56031e-09
0.0249196 -6.47315e-08 5.11146e-09
0.0249197 -1.20846e-07 5.36559e-09
0.0249198 -2.37201e-07 -4.47044e-08
0.0249199 -3.14492e-07 -9.26932e-08
0.0148 -9.4802e-07 -1.71728e-06
0.0148023 -0.00528067 -0.00111878
0.0203056 -0.0163108 -0.00240735
0.0272806 -0.0284812 -0.0039758
0.0318223 -0.0455813 -0.00571034
0.0303364 -0.0281495 -0.00130596
0.0266567 -1.19843e-05 0.00325404
0.0261501 0.00716165 0.00340271
0.0298587 0.0147048 0.00323982
0.0302939 0.0142508 0.00224984
0.0294838 0.0125136 0.00126571
0.0285998 0.0106526 0.000409888
0.0278777 0.00862236 -0.000178232
0.0275089 0.00658572 -0.000457203
0.0273952 0.00479445 -0.000464165
0.0274191 0.00335718 -0.000330171
0.0274969 0.00228114 -0.000175114
0.0275803 0.00151417 -5.93269e-05
0.0276509 0.000983055 5.78039e-06
0.0277077 0.000621854 3.20811e-05
0.0277544 0.000380855 3.60856e-05
0.0277939 0.000224146 3.04708e-05
0.0278272 0.000125496 2.24895e-05
0.0278546 6.56869e-05 1.53303e-05
0.0278763 3.09525e-05 9.91532e-06
0.0278929 1.18e-05 6.17622e-06
0.0279053 1.95051e-06 3.73719e-06
0.0279143 -2.58337e-06 2.20761e-06
0.0279207 -4.23591e-06 1.27638e-06
0.0279252 -4.43551e-06 7.2293e-07
0.0279283 -3.98456e-06 4.00848e-07
0.0279305 -3.3102e-06 2.17043e-07
0.0279319 -2.62322e-06 1.1418e-07
0.027933 -2.01496e-06 5.78086e-08
0.0279337 -1.51439e-06 2.76578e-08
0.0279341 -1.12044e-06 1.20197e-08
0.0279345 -8.195e-07 4.25004e-09
0.0279347 -5.94427e-07 6.44324e-10
0.0279349 -4.28758e-07 -8.23025e-10
0.027935 -3.08391e-07 -1.23308e-09
0.0279351 -2.22007e-07 -1.14744e-09
0.0279351 -1.60908e-07 -8.63758e-10
0.0279351 -1.18709e-07 -5.43782e-10
0.0279352 -9.10118e-08 -1.82017e-10
0.0279352 -7.51843e-08 3.3982e-10
0.0279352 -7.16889e-08 1.35892e-09
0.0279353 -8.49941e-08 3.42505e-09
0.0279353 -1.21874e-07 4.30633e-09
0.0279353 -1.87744e-07 -8.17813e-09
0.0279354 -2.71405e-07 -7.42246e-08
0.0279354 -3.14463e-07 -1.28281e-07
0.018 -1.92001e-06 -1.68566e-06
0.0180029 -0.00691685 -0.0018872
0.0206736 -0.0186955 -0.00490732
0.0205655 -0.0245076 -0.00631806
0.0159917 -0.0266162 -0.007574
-1.55401e-06 -0.0138967 -0.00427707
9.65076e-05 2.68455e-05 8.88672e-07
-3.36501e-05 3.50576e-05 0.000621943
0.00671901 0.00427376 0.00134318
0.013867 0.00978349 0.00128112
0.0173223 0.0107491 0.000857721
0.0190143 0.00972931 0.000297769
0.0206675 0.00791151 -0.000172484
0.0223796 0.00584882 -0.000377468
0.0239571 0.00406071 -0.000366455
0.0252985 0.00268647 -0.000254859
0.0263678 0.00171635 -0.000127239
0.027168 0.00107096 -2.75252e-05
0.0277354 0.000652753 3.05295e-05
0.0281238 0.00038335 5.25845e-05
0.0283851 0.000211618 5.227e-05
0.0285599 0.000105416 4.22106e-05
0.0286762 4.30904e-05 3.03363e-05
0.0287531 9.17785e-06 2.0221e-05
0.0288034 -7.29822e-06 1.27873e-05
0.028836 -1.37638e-05 7.77466e-06
0.0288567 -1.49399e-05 4.58061e-06
0.0288699 -1.36383e-05 2.62652e-06
0.0288781 -1.14208e-05 1.46821e-06
0.0288832 -9.08445e-06 7.99563e-07
0.0288864 -6.98689e-06 4.22704e-07
0.0288884 -5.25002e-06 2.15242e-07
0.0288896 -3.87972e-06 1.03894e-07
0.0288904 -2.83235e-06 4.59127e-08
0.0288909 -2.04914e-06 1.69099e-08
0.0288912 -1.47262e-06 3.25351e-09
0.0288913 -1.05316e-06 -2.52414e-09
0.0288915 -7.50732e-07 -4.42552e-09
0.0288915 -5.34291e-07 -4.53955e-09
0.0288916 -3.80471e-07 -3.91493e-09
0.0288916 -2.72053e-07 -3.05256e-09
0.0288917 -1.96615e-07 -2.18528e-09
0.0288917 -1.45403e-07 -1.38554e-09
0.0288917 -1.12782e-07 -5.90142e-10
0.0288917 -9.60896e-08 2.14495e-10
0.0288917 -9.45096e-08 7.93087e-10
0.0288917 -1.07152e-07 5.46181e-10
0.0288917 -1.29837e-07 -3.47034e-09
0.0288917 -1.58135e-07 -2.69419e-08
0.0288917 -1.78565e-07 -9.63687e-08
0.0288916 -1.83685e-07 -1.45922e-07
0.0196 -2.74339e-06 -2.55523e-06
0.0196009 -0.0057783 -0.00274367
0.0190738 -0.0128981 -0.00644715
0.0160193 -0.0158329 -0.00666185
0.0110264 -0.0147957 -0.00668539
0.00181799 -0.00608541 -0.0049975
7.21197e-05 -6.62501e-05 -0.00126801
3.26e-05 -3.26e-05 -3.89354e-08
-3.29949e-05 3.43052e-05 0.000230997
0.00414573 0.00303381 0.000485879
0.00957363 0.00713331 0.000412929
0.012486 0.00743633 7.42801e-05
0.0157267 0.00562112 -0.000284496
0.0188763 0.00370612 -0.000411606
0.0215766 0.00220732 -0.000385052
0.0237655 0.00115779 -0.000293147
0.0254656 0.000511612 -0.000179255
0.026715 0.000167598 -7.39449e-05
0.02758 5.53591e-06 -3.85523e-07
0.0281507 -6.43363e-05 3.57013e-05
0.0285155 -9.01881e-05 4.38658e-05
0.0287441 -9.38891e-05 3.77835e-05
0.0288854 -8.60461e-05 2.75309e-05
0.0289714 -7.29436e-05 1.81302e-05
0.029023 -5.85751e-05 1.11464e-05
0.0290533 -4.52313e-05 6.51157e-06
0.0290709 -3.39463e-05 3.64849e-06
0.0290809 -2.4956e-05 1.96768e-06
0.0290865 -1.80764e-05 1.01961e-06
0.0290895 -1.29559e-05 5.0323e-07
0.0290911 -9.21754e-06 2.31543e-07
0.0290919 -6.52456e-06 9.41047e-08
0.0290922 -4.60253e-06 2.80948e-08
0.0290924 -3.23942e-06 -1.13782e-09
0.0290925 -2.27686e-06 -1.21819e-08
0.0290925 -1.59916e-06 -1.47312e-08
0.0290925 -1.12303e-06 -1.36779e-08
0.0290924 -7.89099e-07 -1.13859e-08
0.0290924 -5.55343e-07 -8.9228e-09
0.0290924 -3.92182e-07 -6.70856e-09
0.0290924 -2.78893e-07 -4.85536e-09
0.0290924 -2.01106e-07 -3.37032e-09
0.0290923 -1.4911e-07 -2.23835e-09
0.0290923 -1.16376e-07 -1.46941e-09
0.0290923 -9.80168e-08 -1.35692e-09
0.0290923 -8.92701e-08 -2.34265e-09
0.0290923 -8.51106e-08 -4.96719e-09
0.0290923 -7.92107e-08 -1.12487e-08
0.0290922 -6.30682e-08 -3.74025e-08
0.0290922 -2.38864e-08 -1.0322e-07
0.029092 3.49826e-09 -1.47365e-07
0.0196 -1.30965e-06 -3.5291e-06
0.0195999 -0.00361461 -0.00311285
0.0188371 -0.00787051 -0.00648125
0.0176 -0.00778824 -0.00606521
0.0133504 -0.00394561 -0.00558084
0.00926638 0.0028098 -0.00526003
0.00620434 0.00322439 -0.00299099
7.22546e-05 -6.02455e-05 -0.000618685
2.72506e-05 -2.72506e-05 -1.25879e-07
-3.23799e-05 3.36099e-05 7.90646e-05
0.00300759 0.00232091 0.000340361
0.00751587 0.0036991 0.000278994
0.0128808 0.00183358 -9.4348e-05
0.0175351 0.000362778 -0.000261161
0.0211011 -0.000498954 -0.000304221
0.0237232 -0.000949585 -0.000294675
0.0256117 -0.00107402 -0.000239995
0.026916 -0.000971048 -0.000153523
0.0277613 -0.000771225 -7.01368e-05
0.0282748 -0.000570856 -1.51278e-05
0.0285706 -0.000408653 9.80291e-06
0.0287339 -0.000287985 1.56109e-05
0.0288206 -0.000200921 1.32027e-05
0.0288646 -0.000138941 8.92422e-06
0.0288856 -9.53182e-05 5.29889e-06
0.0288946 -6.4985e-05 2.85949e-06
0.0288977 -4.41287e-05 1.41212e-06
0.0288981 -2.99151e-05 6.25873e-07
0.0288974 -2.02845e-05 2.30386e-07
0.0288964 -1.37775e-05 4.77621e-08
0.0288953 -9.38253e-06 -2.65365e-08
0.0288945 -6.40962e-06 -4.9474e-08
0.0288937 -4.39324e-06 -5.02495e-08
0.0288932 -3.02104e-06 -4.29534e-08
0.0288928 -2.08391e-06 -3.38986e-08
0.0288925 -1.44169e-06 -2.55995e-08
0.0288923 -1.00025e-06 -1.88244e-08
0.0288921 -6.96095e-07 -1.36061e-08
0.028892 -4.8625e-07 -9.71438e-09
0.0288919 -3.41515e-07 -6.86186e-09
0.0288918 -2.42012e-07 -4.79459e-09
0.0288918 -1.74128e-07 -3.35961e-09
0.0288918 -1.2829e-07 -2.52749e-09
0.0288917 -9.73525e-08 -2.34092e-09
0.0288917 -7.54999e-08 -3.02729e-09
0.0288917 -5.74137e-08 -4.68239e-09
0.0288917 -3.7661e-08 -7.4697e-09
0.0288916 -9.00343e-09 -1.31404e-08
0.0288916 4.26689e-08 -3.56939e-08
0.0288915 1.32954e-07 -9.43559e-08
0.0288914 1.89241e-07 -1.34406e-07
0.018 -8.47586e-07 -3.50318e-06
0.0180009 -0.00194984 -0.00303543
0.0183476 -0.00369172 -0.00613023
0.0184599 -0.00237105 -0.0053051
0.0175137 0.000944283 -0.00427142
0.0172814 0.007284 -0.00396652
0.0180051 0.0126462 -0.00288196
0.0110893 0.00693481 -0.0013854
7.37774e-05 -4.67137e-05 -0.000405103
-2.55381e-05 -5.42056e-05 5.44002e-07
7.71145e-06 -0.000506779 0.000751354
0.00859977 -0.00249327 0.00111961
0.0161831 -0.00425383 0.000548579
0.0212935 -0.00425627 0.00028012
0.0244144 -0.00366829 0.000121368
0.0262264 -0.00303985 -3.74327e-05
0.0272435 -0.00242555 -0.000155394
0.0277828 -0.00181685 -0.000183545
0.028034 -0.00127275 -0.000143859
0.0281208 -0.000848728 -8.75404e-05
0.0281251 -0.000550676 -4.48385e-05
0.0280963 -0.000353007 -2.05401e-05
0.0280598 -0.000225354 -8.94288e-06
0.0280267 -0.000143811 -3.98235e-06
0.0280003 -9.19653e-05 -1.95878e-06
0.0279807 -5.906e-05 -1.10515e-06
0.0279667 -3.81608e-05 -6.96446e-07
0.0279569 -2.4843e-05 -4.64274e-07
0.0279502 -1.63077e-05 -3.14321e-07
0.0279455 -1.0796e-05 -2.11896e-07
0.0279423 -7.20571e-06 -1.41336e-07
0.0279401 -4.84581e-06 -9.32664e-08
0.0279386 -3.28083e-06 -6.10341e-08
0.0279376 -2.23441e-06 -3.97322e-08
0.0279369 -1.52957e-06 -2.58092e-08
0.0279364 -1.05178e-06 -1.67753e-08
0.027936 -7.26212e-07 -1.09358e-08
0.0279358 -5.03482e-07 -7.16475e-09
0.0279356 -3.50702e-07 -4.72799e-09
0.0279355 -2.45779e-07 -3.15668e-09
0.0279354 -1.73672e-07 -2.1704e-09
0.0279353 -1.23925e-07 -1.64312e-09
0.0279353 -8.90163e-08 -1.5419e-09
0.0279353 -6.32288e-08 -1.83913e-09
0.0279352 -4.17753e-08 -2.64307e-09
0.0279352 -1.99405e-08 -3.9172e-09
0.0279352 7.80313e-09 -5.71933e-09
0.0279352 4.92962e-08 -9.52838e-09
0.0279351 1.22394e-07 -2.41663e-08
0.0279351 2.42897e-07 -7.20852e-08
0.0279351 3.15693e-07 -1.08099e-07
0.0148 -4.76115e-07 -3.10045e-06
0.0148015 -0.000990922 -0.00280812
0.0162658 -0.00150058 -0.00540242
0.0179227 0.00021079 -0.00433243
0.0193858 0.00343952 -0.00317477
0.0212395 0.0075009 -0.00291988
0.0250545 0.0129572 -0.0023885
0.028323 0.0195723 -0.00143674
0.0232412 0.0113973 -0.00028967
0.0236658 1.73245e-11 0.00063907
0.0268455 -0.00665206 0.00157073
0.0305581 -0.0130655 0.00212102
0.031649 -0.0111752 0.00168798
0.0311228 -0.00799601 0.00127175
0.0299743 -0.00538717 0.000830207
0.028738 -0.00358694 0.000356587
0.0276511 -0.00237282 -2.31201e-05
0.0267971 -0.00153062 -0.000203688
0.0261744 -0.000952315 -0.000215125
0.0257422 -0.000576289 -0.000154572
0.0254516 -0.000345183 -9.12463e-05
0.0252607 -0.000207644 -4.80091e-05
0.0251374 -0.000126407 -2.35936e-05
0.0250587 -7.80838e-05 -1.11529e-05
0.0250087 -4.89644e-05 -5.16732e-06
0.0249771 -3.11581e-05 -2.37327e-06
0.024957 -2.01044e-05 -1.08576e-06
0.0249442 -1.31383e-05 -4.93668e-07
0.0249359 -8.68367e-06 -2.20394e-07
0.0249305 -5.79589e-06 -9.38304e-08
0.0249269 -3.90066e-06 -3.54401e-08
0.0249246 -2.64344e-06 -9.08428e-09
0.024923 -1.80178e-06 2.11885e-09
0.0249219 -1.23401e-06 6.19366e-09
0.0249212 -8.48589e-07 7.01011e-09
0.0249207 -5.85625e-07 6.44476e-09
0.0249203 -4.055e-07 5.39715e-09
0.0249201 -2.81752e-07 4.28076e-09
0.0249199 -1.96536e-07 3.26578e-09
0.0249198 -1.37692e-07 2.403e-09
0.0249197 -9.68072e-08 1.68506e-09
0.0249196 -6.79151e-08 1.0672e-09
0.0249196 -4.65969e-08 4.96903e-10
0.0249196 -2.92972e-08 -5.1128e-11
0.0249195 -1.27374e-08 -6.84801e-10
0.0249195 6.61839e-09 -1.35474e-09
0.0249195 3.34716e-08 -1.99681e-09
0.0249195 7.40969e-08 -3.72261e-09
0.0249195 1.42231e-07 -1.0649e-08
0.0249196 2.48029e-07 -4.7554e-08
0.0249197 3.10338e-07 -7.89332e-08
0.01 -9.09823e-07 -2.79858e-06
0.0100007 -0.000610298 -0.00229006
0.0113726 -0.000637517 -0.00414531
0.0133642 0.000668992 -0.00297951