# vtk DataFile Version 2.0
Tobias Weinzierl: CPU, Manycore and Cluster Computing
ASCII

DATASET STRUCTURED_POINTS
DIMENSIONS  51 11 6

ORIGIN 0 0 0 

SPACING 0.1 0.1 0.1 

POINT_DATA 3366

VECTORS velocity float
0 0 0
-9.18689e-14 0 0
-2.03196e-10 0 0
-2.94689e-10 0 0
-1.63944e-09 0 0
1.2844e-09 0 0
1.90605e-09 0 0
1.95672e-09 0 0
2.23578e-09 0 0
2.84221e-09 0 0
3.55732e-09 0 0
4.06906e-09 0 0
4.15553e-09 0 0
3.77191e-09 0 0
2.95041e-09 0 0
1.81538e-09 0 0
6.17824e-10 0 0
-3.84941e-10 0 0
-1.1094e-09 0 0
-1.66266e-09 0 0
-2.20828e-09 0 0
-2.84103e-09 0 0
-3.5552e-09 0 0
-4.28314e-09 0 0
-4.94867e-09 0 0
-5.50063e-09 0 0
-5.92109e-09 0 0
-6.2179e-09 0 0
-6.41262e-09 0 0
-6.53059e-09 0 0
-6.59509e-09 0 0
-6.6248e-09 0 0
-6.63347e-09 0 0
-6.63053e-09 0 0
-6.62207e-09 0 0
-6.61176e-09 0 0
-6.60166e-09 0 0
-6.59275e-09 0 0
-6.58539e-09 0 0
-6.5796e-09 0 0
-6.57518e-09 0 0
-6.57192e-09 0 0
-6.56954e-09 0 0
-6.56786e-09 0 0
-6.56668e-09 0 0
-6.56589e-09 0 0
-6.56538e-09 0 0
-6.5651e-09 0 0
-6.56499e-09 0 0
-6.56502e-09 0 0
0.00189626 0 0
0 3.80217e-07 0
-1.7749e-13 -3.69185e-11 0
-3.13889e-10 -4.38225e-10 0
1.31305e-11 -1.30538e-10 0
-7.83148e-10 -1.07415e-09 0
4.1198e-09 -1.0384e-09 0
4.8126e-09 9.67143e-10 0
4.69214e-09 7.22359e-10 0
5.89855e-09 -6.21461e-10 0
8.1851e-09 -1.94332e-09 0
1.05647e-08 -2.8056e-09 0
1.21847e-08 -2.98746e-09 0
1.24916e-08 -2.32057e-09 0
1.13852e-08 -9.0833e-10 0
9.23551e-09 6.60834e-10 0
6.64952e-09 1.67824e-09 0
4.15437e-09 1.87424e-09 0
1.99617e-09 1.51207e-09 0
9.60613e-11 1.04534e-09 0
-1.79499e-09 7.63638e-10 0
-3.87662e-09 7.01168e-10 0
-6.17697e-09 7.48334e-10 0
-8.5634e-09 7.88049e-10 0
-1.08318e-08 7.61725e-10 0
-1.28022e-08 6.68399e-10 0
-1.4374e-08 5.36281e-10 0
-1.5532e-08 3.96859e-10 0
-1.63225e-08 2.72034e-10 0
-1.68209e-08 1.72033e-10 0
-1.71065e-08 9.84442e-11 0
-1.72487e-08 4.81222e-11 0
-1.73011e-08 1.61449e-11 0
-1.73019e-08 -2.46724e-12 0
-1.72767e-08 -1.1973e-11 0
-1.72411e-08 -1.5678e-11 0
-1.72043e-08 -1.59722e-11 0
-1.71707e-08 -1.44788e-11 0
-1.71424e-08 -1.22317e-11 0
-1.71197e-08 -9.84154e-12 0
-1.71022e-08 -7.63216e-12 0
-1.70891e-08 -5.74559e-12 0
-1.70794e-08 -4.21639e-12 0
-1.70725e-08 -3.02089e-12 0
-1.70676e-08 -2.10893e-12 0
-1.70642e-08 -1.42239e-12 0
-1.70619e-08 -9.03716e-13 0
-1.70604e-08 -4.95899e-13 0
-1.70597e-08 -1.27041e-13 0
-1.70594e-08 3.54676e-13 0
-1.70597e-08 1.29676e-12 0
0.00546173 -1.24976e-08 0
0 -1.86695e-08 0
2.51966e-13 -1.2095e-10 0
3.97249e-10 -1.44859e-09 0
2.22638e-09 -3.40996e-09 0
4.34238e-09 -6.0143e-09 0
7.66972e-09 -4.2766e-09 0
5.92065e-09 9.60917e-11 0
4.66099e-09 -3.17207e-10 0
5.73477e-09 -2.84771e-09 0
9.31572e-09 -5.32762e-09 0
1.3151e-08 -7.46484e-09 0
1.54662e-08 -8.9529e-09 0
1.56842e-08 -8.89399e-09 0
1.3799e-08 -6.77206e-09 0
1.07283e-08 -3.25472e-09 0
7.45972e-09 4.59678e-10 0
4.51035e-09 3.47022e-09 0
1.94902e-09 5.38013e-09 0
-3.73248e-10 6.20221e-09 0
-2.62958e-09 6.2018e-09 0
-4.93046e-09 5.71049e-09 0
-7.29216e-09 4.98169e-09 0
-9.62874e-09 4.15853e-09 0
-1.17869e-08 3.31853e-09 0
-1.36155e-08 2.51827e-09 0
-1.50256e-08 1.8059e-09 0
-1.60091e-08 1.21459e-09 0
-1.66212e-08 7.56559e-10 0
-1.69476e-08 4.24823e-10 0
-1.70771e-08 2.00232e-10 0
-1.70846e-08 5.89687e-11 0
-1.70263e-08 -2.20347e-11 0
-1.69396e-08 -6.22834e-11 0
-1.68474e-08 -7.68294e-11 0
-1.6762e-08 -7.64794e-11 0
-1.66891e-08 -6.85079e-11 0
-1.66299e-08 -5.74976e-11 0
-1.65838e-08 -4.61149e-11 0
-1.65488e-08 -3.57434e-11 0
-1.65229e-08 -2.69623e-11 0
-1.65041e-08 -1.98833e-11 0
-1.64907e-08 -1.4374e-11 0
-1.64813e-08 -1.01959e-11 0
-1.64748e-08 -7.08324e-12 0
-1.64703e-08 -4.78386e-12 0
-1.64674e-08 -3.0701e-12 0
-1.64656e-08 -1.72206e-12 0
-1.64646e-08 -4.58052e-13 0
-1.64644e-08 1.0648e-12 0
-1.64648e-08 3.17881e-12 0
0.00789339 -3.10032e-08 0
0 -6.2844e-07 0
8.02873e-13 -8.8962e-10 0
1.06127e-09 -3.35597e-09 0
3.527e-09 -6.54894e-09 0
4.99809e-09 -8.82863e-09 0
4.8344e-09 -4.74861e-09 0
3.01426e-09 -4.04525e-12 0
1.92558e-09 -1.1416e-09 0
1.06333e-09 -3.9928e-09 0
2.75124e-09 -7.76207e-09 0
6.07084e-09 -1.19479e-08 0
8.16516e-09 -1.53538e-08 0
8.50714e-09 -1.5981e-08 0
6.72272e-09 -1.30598e-08 0
3.57064e-09 -7.52172e-09 0
-7.23141e-11 -7.34044e-10 0
-3.54753e-09 5.68495e-09 0
-6.34865e-09 1.02106e-08 0
-8.13524e-09 1.21271e-08 0
-8.85719e-09 1.17805e-08 0
-8.79135e-09 1.01035e-08 0
-8.37199e-09 7.97469e-09 0
-7.94701e-09 5.92037e-09 0
-7.65697e-09 4.15582e-09 0
-7.47634e-09 2.73234e-09 0
-7.32134e-09 1.63928e-09 0
-7.12934e-09 8.44137e-10 0
-6.88283e-09 3.02766e-10 0
-6.59758e-09 -3.57139e-11 0
-6.30197e-09 -2.22932e-10 0
-6.02198e-09 -3.05501e-10 0
-5.77471e-09 -3.21505e-10 0
-5.5679e-09 -2.99493e-10 0
-5.40221e-09 -2.59225e-10 0
-5.27394e-09 -2.13309e-10 0
-5.17736e-09 -1.69042e-10 0
-5.10629e-09 -1.30068e-10 0
-5.05501e-09 -9.77128e-11 0
-5.01859e-09 -7.19548e-11 0
-4.99311e-09 -5.20882e-11 0
-4.97551e-09 -3.71402e-11 0
-4.96348e-09 -2.61109e-11 0
-4.95534e-09 -1.80941e-11 0
-4.94989e-09 -1.23233e-11 0
-4.94631e-09 -8.17314e-12 0
-4.94402e-09 -5.12848e-12 0
-4.94267e-09 -2.74619e-12 0
-4.94195e-09 -6.24259e-13 0
-4.94155e-09 1.54105e-12 0
-4.94128e-09 3.74308e-12 0
0.00898226 -3.4356e-08 0
0 -1.23431e-06 0
7.0487e-14 -1.72224e-09 0
2.0799e-10 -4.87485e-09 0
1.05782e-09 -6.48172e-09 0
1.13949e-09 -5.23844e-09 0
-6.47142e-13 -1.91168e-09 0
-1.28343e-12 -5.51286e-12 0
3.7352e-12 -3.41815e-12 0
-1.00861e-09 -2.12821e-09 0
-3.72316e-09 -7.6591e-09 0
-4.83943e-09 -1.41808e-08 0
-3.80692e-09 -1.93365e-08 0
-3.71744e-09 -2.07445e-08 0
-5.205e-09 -1.71294e-08 0
-7.71791e-09 -9.53169e-09 0
-1.05982e-08 3.27142e-11 0
-1.32155e-08 8.77779e-09 0
-1.49115e-08 1.42804e-08 0
-1.51019e-08 1.57234e-08 0
-1.35933e-08 1.39949e-08 0
-1.07719e-08 1.07229e-08 0
-7.3943e-09 7.268e-09 0
-4.17126e-09 4.34148e-09 0
-1.49888e-09 2.14032e-09 0
5.45337e-10 6.12858e-10 0
2.06106e-09 -3.65361e-10 0
3.18934e-09 -9.22344e-10 0
4.04442e-09 -1.17316e-09 0
4.70106e-09 -1.21687e-09 0
5.20549e-09 -1.13434e-09 0
5.58869e-09 -9.86889e-10 0
5.87459e-09 -8.1698e-10 0
6.0835e-09 -6.51048e-10 0
6.23299e-09 -5.03298e-10 0
6.33789e-09 -3.79528e-10 0
6.41021e-09 -2.80331e-10 0
6.45928e-09 -2.03473e-10 0
6.49212e-09 -1.45499e-10 0
6.51381e-09 -1.02706e-10 0
6.52796e-09 -7.16734e-11 0
6.53707e-09 -4.94933e-11 0
6.54288e-09 -3.38234e-11 0
6.54654e-09 -2.28466e-11 0
6.54882e-09 -1.51874e-11 0
6.55021e-09 -9.81597e-12 0
6.55103e-09 -5.96319e-12 0
6.55154e-09 -3.06854e-12 0
6.55201e-09 -7.75528e-13 0
6.55277e-09 1.09689e-12 0
6.55374e-09 2.51927e-12 0
0.00942406 -1.79863e-08 0
0 -1.11897e-06 0
-8.21032e-13 -1.64703e-09 0
-9.27919e-10 -3.82463e-09 0
-1.15863e-09 -4.94293e-09 0
-1.72027e-09 -5.17234e-09 0
-1.21091e-09 -2.4076e-09 0
-1.46855e-12 1.52108e-12 0
2.24698e-12 -2.24698e-12 0
5.15219e-12 -2.41207e-12 0
-2.5015e-09 -3.5532e-09 0
-8.69226e-09 -1.25248e-08 0
-1.1585e-08 -2.04344e-08 0
-1.36778e-08 -2.20935e-08 0
-1.56695e-08 -1.77003e-08 0
-1.72016e-08 -8.90743e-09 0
-1.80689e-08 1.5914e-09 0
-1.81959e-08 1.04983e-08 0
-1.74551e-08 1.5333e-08 0
-1.55431e-08 1.55815e-08 0
-1.22738e-08 1.25598e-08 0
-7.94413e-09 8.2406e-09 0
-3.27787e-09 4.14778e-09 0
9.74286e-10 9.95388e-10 0
4.36667e-09 -1.10319e-09 0
6.81379e-09 -2.30733e-09 0
8.45722e-09 -2.8419e-09 0
9.51033e-09 -2.91667e-09 0
1.01656e-08 -2.70612e-09 0
1.0565e-08 -2.34596e-09 0
1.08033e-08 -1.93368e-09 0
1.09412e-08 -1.53212e-09 0
1.10173e-08 -1.17589e-09 0
1.10562e-08 -8.79223e-10 0
1.10732e-08 -6.43324e-10 0
1.10783e-08 -4.62288e-10 0
1.10771e-08 -3.27197e-10 0
1.10733e-08 -2.28635e-10 0
1.10686e-08 -1.58028e-10 0
1.10641e-08 -1.08196e-10 0
1.10602e-08 -7.3451e-11 0
1.10569e-08 -4.94589e-11 0
1.10543e-08 -3.30151e-11 0
1.10523e-08 -2.17983e-11 0
1.10508e-08 -1.41528e-11 0
1.10498e-08 -8.91373e-12 0
1.10491e-08 -5.28644e-12 0
1.10489e-08 -2.76525e-12 0
1.10491e-08 -1.06661e-12 0
1.10499e-08 -7.31052e-14 0
1.10511e-08 2.92385e-13 0
0.00953941 9.05006e-09 0
0 -7.70601e-07 0
-3.29513e-13 -9.51688e-10 0
-8.98206e-10 -2.46249e-09 0
-9.3539e-10 -3.24463e-09 0
-2.07814e-09 -3.58265e-09 0
-2.72935e-09 -3.00773e-09 0
-1.22663e-09 -1.15842e-09 0
-1.05988e-12 1.99314e-12 0
3.15041e-12 -3.15041e-12 0
7.52694e-12 -2.79025e-12 0
-3.92579e-09 -6.67069e-09 0
-1.14568e-08 -1.69861e-08 0
-1.72926e-08 -1.97499e-08 0
-2.08441e-08 -1.50532e-08 0
-2.22104e-08 -6.1503e-09 0
-2.14077e-08 3.47661e-09 0
-1.88715e-08 1.06767e-08 0
-1.53229e-08 1.36428e-08 0
-1.12483e-08 1.24466e-08 0
-6.85409e-09 8.64991e-09 0
-2.39977e-09 4.17779e-09 0
1.66739e-09 3.69375e-10 0
4.90389e-09 -2.25441e-09 0
7.09721e-09 -3.72532e-09 0
8.31124e-09 -4.29801e-09 0
8.77999e-09 -4.25792e-09 0
8.77498e-09 -3.85082e-09 0
8.5224e-09 -3.26644e-09 0
8.17675e-09 -2.63831e-09 0
7.82789e-09 -2.04951e-09 0
7.51948e-09 -1.54265e-09 0
7.26675e-09 -1.13162e-09 0
7.06967e-09 -8.12803e-10 0
6.92123e-09 -5.73823e-10 0
6.81226e-09 -3.99414e-10 0
6.7338e-09 -2.7479e-10 0
6.67814e-09 -1.87222e-10 0
6.63912e-09 -1.26509e-10 0
6.612e-09 -8.48607e-11 0
6.59326e-09 -5.65306e-11 0
6.58038e-09 -3.73854e-11 0
6.57156e-09 -2.45089e-11 0
6.56556e-09 -1.58745e-11 0
6.56155e-09 -1.0096e-11 0
6.55895e-09 -6.24615e-12 0
6.55739e-09 -3.72466e-12 0
6.55664e-09 -2.16242e-12 0
6.55656e-09 -1.35759e-12 0
6.5571e-09 -1.28991e-12 0
6.55793e-09 -1.92498e-12 0
0.00942405 3.31346e-08 0
0 -5.39669e-07 0
4.39005e-13 -5.17795e-10 0
-3.39279e-10 -1.46983e-09 0
-3.89126e-10 -2.38146e-09 0
-1.24065e-09 -2.71262e-09 0
-2.97859e-09 -1.85934e-09 0
-3.50966e-09 -4.66059e-10 0
-2.23197e-09 1.0992e-10 0
-2.30402e-12 1.58563e-12 0
8.48572e-12 -3.27017e-12 0
4.07232e-12 -3.77475e-09 0
-6.28624e-09 -1.134e-08 0
-1.53212e-08 -1.40579e-08 0
-2.25414e-08 -8.99495e-09 0
-2.5565e-08 -7.73978e-10 0
-2.36829e-08 6.32649e-09 0
-1.827e-08 1.00671e-08 0
-1.17131e-08 1.00329e-08 0
-5.88771e-09 7.1824e-09 0
-1.55008e-09 3.20576e-09 0
1.3054e-09 -3.82386e-10 0
2.90564e-09 -2.82143e-09 0
3.46708e-09 -4.05957e-09 0
3.20664e-09 -4.39314e-09 0
2.37714e-09 -4.16737e-09 0
1.24352e-09 -3.65178e-09 0
3.27454e-11 -3.02662e-09 0
-1.09859e-09 -2.4029e-09 0
-2.06705e-09 -1.84247e-09 0
-2.84614e-09 -1.37291e-09 0
-3.44483e-09 -9.99268e-10 0
-3.88931e-09 -7.13472e-10 0
-4.21078e-09 -5.01503e-10 0
-4.43872e-09 -3.48033e-10 0
-4.59788e-09 -2.38993e-10 0
-4.70772e-09 -1.62662e-10 0
-4.78285e-09 -1.09853e-10 0
-4.83389e-09 -7.36609e-11 0
-4.86838e-09 -4.9046e-11 0
-4.8916e-09 -3.2411e-11 0
-4.90719e-09 -2.12287e-11 0
-4.91761e-09 -1.37487e-11 0
-4.92453e-09 -8.77595e-12 0
-4.92906e-09 -5.50746e-12 0
-4.93194e-09 -3.41225e-12 0
-4.93368e-09 -2.14865e-12 0
-4.93463e-09 -1.51521e-12 0
-4.93501e-09 -1.43384e-12 0
-4.93498e-09 -1.99233e-12 0
-4.93481e-09 -3.2253e-12 0
0.00898227 4.22621e-08 0
0 -4.57247e-07 0
5.75022e-13 -2.61042e-10 0
9.62297e-11 -8.03276e-10 0
-6.89943e-11 -1.35867e-09 0
-1.33397e-09 -1.60902e-09 0
-3.70364e-09 -6.17094e-10 0
-5.29772e-09 1.0345e-09 0
-5.27912e-09 -2.10242e-10 0
-3.52206e-09 -1.06914e-09 0
-2.69043e-09 1.37887e-13 0
-1.38025e-09 -3.4209e-09 0
-5.6641e-09 -7.63248e-09 0
-1.56079e-08 -6.70091e-09 0
-2.44882e-08 -1.96133e-09 0
-2.70087e-08 3.48788e-09 0
-2.24521e-08 6.82453e-09 0
-1.41074e-08 7.11673e-09 0
-6.23695e-09 4.93153e-09 0
-1.40408e-09 1.63883e-09 0
1.2499e-10 -1.30184e-09 0
-6.16198e-10 -3.04659e-09 0
-2.45707e-09 -3.56861e-09 0
-4.629e-09 -3.30964e-09 0
-6.76403e-09 -2.73905e-09 0
-8.71636e-09 -2.14482e-09 0
-1.04278e-08 -1.64e-09 0
-1.18737e-08 -1.24187e-09 0
-1.30514e-08 -9.34561e-10 0
-1.39774e-08 -6.98146e-10 0
-1.46831e-08 -5.1665e-10 0
-1.52066e-08 -3.78204e-10 0
-1.55865e-08 -2.73688e-10 0
-1.58572e-08 -1.95772e-10 0
-1.60475e-08 -1.38451e-10 0
-1.61797e-08 -9.68311e-11 0
-1.62706e-08 -6.69915e-11 0
-1.63327e-08 -4.58524e-11 0
-1.63749e-08 -3.10447e-11 0
-1.64033e-08 -2.0781e-11 0
-1.64224e-08 -1.3738e-11 0
-1.64352e-08 -8.95343e-12 0
-1.64437e-08 -5.74069e-12 0
-1.64492e-08 -3.61872e-12 0
-1.64529e-08 -2.25661e-12 0
-1.64552e-08 -1.43314e-12 0
-1.64567e-08 -1.01212e-12 0
-1.64576e-08 -9.2777e-13 0
-1.64582e-08 -1.17428e-12 0
-1.64587e-08 -1.81552e-12 0
-1.64594e-08 -2.8732e-12 0
0.00789341 3.18273e-08 0
0 -4.71057e-07 0
8.25002e-13 -1.75585e-11 0
2.9693e-10 -1.02093e-10 0
2.24207e-11 -2.21714e-10 0
-1.54643e-09 -2.71466e-10 0
-4.381e-09 -1.91748e-10 0
-6.51345e-09 5.74461e-10 0
-6.56723e-09 5.13249e-10 0
-7.65783e-09 -4.40644e-10 0
-7.11816e-09 -1.00911e-09 0
-5.86603e-09 -1.64685e-09 0
-8.58978e-09 -1.03813e-09 0
-1.34717e-08 7.22735e-10 0
-1.7289e-08 2.15923e-09 0
-1.67836e-08 2.81583e-09 0
-1.19091e-08 2.518e-09 0
-5.60569e-09 1.40666e-09 0
-1.13382e-09 -1.26048e-12 0
8.01468e-11 -1.10363e-09 0
-1.39739e-09 -1.58449e-09 0
-4.1625e-09 -1.51501e-09 0
-7.0448e-09 -1.16882e-09 0
-9.47316e-09 -7.93396e-10 0
-1.13373e-08 -5.10099e-10 0
-1.27316e-08 -3.35047e-10 0
-1.37841e-08 -2.37856e-10 0
-1.45925e-08 -1.83687e-10 0
-1.52189e-08 -1.49096e-10 0
-1.5703e-08 -1.22385e-10 0
-1.60728e-08 -9.92032e-11 0
-1.63509e-08 -7.85942e-11 0
-1.65567e-08 -6.06902e-11 0
-1.67065e-08 -4.5702e-11 0
-1.6814e-08 -3.36167e-11 0
-1.68901e-08 -2.41976e-11 0
-1.69434e-08 -1.70715e-11 0
-1.69802e-08 -1.18179e-11 0
-1.70054e-08 -8.03138e-12 0
-1.70225e-08 -5.35658e-12 0
-1.7034e-08 -3.50169e-12 0
-1.70417e-08 -2.23876e-12 0
-1.70468e-08 -1.39684e-12 0
-1.70501e-08 -8.52608e-13 0
-1.70523e-08 -5.20727e-13 0
-1.70537e-08 -3.45905e-13 0
-1.70547e-08 -2.97205e-13 0
-1.70553e-08 -3.59973e-13 0
-1.7056e-08 -5.22994e-13 0
-1.70567e-08 -7.65214e-13 0
-1.70576e-08 -1.11904e-12 0
0.00546177 1.09387e-08 0
0 0 0
5.92267e-13 0 0
1.77044e-10 0 0
2.96677e-11 0 0
-7.22735e-10 0 0
-2.13679e-09 0 0
-3.49878e-09 0 0
-3.52049e-09 0 0
-4.13614e-09 0 0
-4.4267e-09 0 0
-4.48154e-09 0 0
-4.71857e-09 0 0
-4.69385e-09 0 0
-4.42569e-09 0 0
-3.48576e-09 0 0
-1.90074e-09 0 0
-3.98509e-10 0 0
2.52777e-10 0 0
-1.52961e-10 0 0
-1.25877e-09 0 0
-2.54255e-09 0 0
-3.64883e-09 0 0
-4.46191e-09 0 0
-5.01703e-09 0 0
-5.39524e-09 0 0
-5.6657e-09 0 0
-5.87117e-09 0 0
-6.03366e-09 0 0
-6.16365e-09 0 0
-6.26676e-09 0 0
-6.34705e-09 0 0
-6.40824e-09 0 0
-6.45388e-09 0 0
-6.48726e-09 0 0
-6.51123e-09 0 0
-6.52815e-09 0 0
-6.53991e-09 0 0
-6.54797e-09 0 0
-6.55343e-09 0 0
-6.55709e-09 0 0
-6.55952e-09 0 0
-6.56112e-09 0 0
-6.56218e-09 0 0
-6.56286e-09 0 0
-6.56331e-09 0 0
-6.56362e-09 0 0
-6.56387e-09 0 0
-6.56413e-09 0 0
-6.56446e-09 0 0
-6.56485e-09 0 0
0.00189627 0 0
0 0 5.27408e-07
-1.05577e-13 0 2.40144e-10
-6.79443e-10 0 7.32946e-10
-6.50288e-10 0 1.5677e-09
-5.59227e-09 0 -5.02591e-10
2.13453e-09 0 -2.5047e-09
4.42253e-09 0 -1.63836e-09
5.1576e-09 0 -1.05167e-09
5.94631e-09 0 -2.63708e-10
7.02029e-09 0 6.22045e-10
8.41168e-09 0 1.57892e-09
1.04056e-08 0 2.38922e-09
1.28429e-08 0 2.6174e-09
1.49171e-08 0 2.11293e-09
1.554e-08 0 1.29512e-09
1.41651e-08 0 6.53812e-10
1.11674e-08 0 3.25665e-10
7.45464e-09 0 2.14929e-10
3.76038e-09 0 2.32334e-10
3.25348e-10 0 3.3533e-10
-2.92263e-09 0 4.77353e-10
-6.06647e-09 0 5.98756e-10
-9.06061e-09 0 6.54247e-10
-1.17665e-08 0 6.31957e-10
-1.40482e-08 0 5.49316e-10
-1.58372e-08 0 4.36386e-10
-1.71438e-08 0 3.20659e-10
-1.80345e-08 0 2.19707e-10
-1.85998e-08 0 1.4084e-10
-1.89299e-08 0 8.41882e-11
-1.91015e-08 0 4.62363e-11
-1.91731e-08 0 2.23803e-11
-1.91864e-08 0 8.34271e-12
-1.91689e-08 0 7.24742e-13
-1.9138e-08 0 -2.93372e-12
-1.91039e-08 0 -4.29722e-12
-1.90718e-08 0 -4.43065e-12
-1.90443e-08 0 -3.97981e-12
-1.90219e-08 0 -3.31392e-12
-1.90044e-08 0 -2.62837e-12
-1.89911e-08 0 -2.01486e-12
-1.89814e-08 0 -1.50648e-12
-1.89743e-08 0 -1.10507e-12
-1.89693e-08 0 -7.98224e-13
-1.89658e-08 0 -5.69776e-13
-1.89635e-08 0 -4.05222e-13
-1.89619e-08 0 -2.96503e-13
-1.89611e-08 0 -2.51989e-13
-1.89608e-08 0 -2.71345e-13
-1.8961e-08 0 -1.46263e-13
0.00539002 0 -6.50992e-10
0.0036 -3.01579e-07 -6.1092e-08
0.0035998 -0.00138951 -2.14868e-05
0.00669877 -0.00393806 0.000114566
0.013611 -0.00587509 -0.000489002
0.0235001 -0.0144933 -0.0042655
0.0464093 -0.0134701 -0.00489062
0.0499499 -0.00195199 -0.00164763
0.0496942 0.00262132 -0.000164863
0.0447178 0.00494355 0.000572416
0.0391242 0.00510407 0.00056953
0.034037 0.0044295 0.000314053
0.0297729 0.00354202 5.0583e-05
0.0263951 0.00267472 -0.000140582
0.023827 0.00192847 -0.000243569
0.0219108 0.00134611 -0.000269529
0.0204753 0.000926223 -0.000241254
0.0193818 0.000640278 -0.000184156
0.0185364 0.000451963 -0.000120137
0.0178804 0.000328114 -6.42856e-05
0.0173765 0.000243486 -2.38093e-05
0.0169977 0.000181779 6.7962e-07
0.0167206 0.000134123 1.2406e-05
0.0165246 9.64168e-05 1.57513e-05
0.0163911 6.6882e-05 1.45791e-05
0.0163038 4.44738e-05 1.15961e-05
0.0162495 2.81748e-05 8.36805e-06
0.0162177 1.68506e-05 5.61587e-06
0.0162004 9.34608e-06 3.5478e-06
0.0161922 4.61386e-06 2.11847e-06
0.0161892 1.79278e-06 1.1911e-06
0.0161891 2.27158e-07 6.20697e-07
0.0161904 -5.52591e-07 2.87335e-07
0.0161922 -8.66038e-07 1.03312e-07
0.016194 -9.21018e-07 9.12278e-09
0.0161956 -8.4669e-07 -3.35067e-08
0.0161969 -7.1932e-07 -4.81348e-08
0.016198 -5.81072e-07 -4.86798e-08
0.0161988 -4.53059e-07 -4.30088e-08
0.0161995 -3.44025e-07 -3.53301e-08
0.0161999 -2.55907e-07 -2.7722e-08
0.0162003 -1.8724e-07 -2.10731e-08
0.0162005 -1.3515e-07 -1.56422e-08
0.0162007 -9.64483e-08 -1.1388e-08
0.0162008 -6.81849e-08 -8.15584e-09
0.0162009 -4.78659e-08 -5.75879e-09
0.0162009 -3.34923e-08 -3.98211e-09
0.016201 -2.3518e-08 -2.52168e-09
0.016201 -1.6885e-08 -6.0019e-10
0.016201 -1.40819e-08 2.50521e-09
0.0162011 -2.57354e-08 6.1665e-10
0.0162011 -3.76155e-08 -3.15361e-09
0.01 -1.3422e-07 -1.43334e-06
0.0100007 -0.0029838 -0.000598209
0.0147867 -0.00996974 -0.000793234
0.0241965 -0.0177693 -0.0012274
0.0386417 -0.032661 -0.00333263
0.0593666 -0.024979 -0.000810898
0.0565843 -0.00278023 0.00319316
0.0560181 0.00505258 0.0033917
0.0502474 0.0100106 0.00300506
0.044801 0.0101357 0.00213014
0.0403282 0.00902714 0.00121124
0.0366489 0.00758788 0.00048742
0.0337055 0.00612249 -2.25443e-05
0.0314451 0.00480509 -0.000329767
0.0297134 0.00371754 -0.000455399
0.0283603 0.00285733 -0.000447139
0.0272831 0.00218275 -0.000362228
0.0264243 0.00165145 -0.000250691
0.0257522 0.00123237 -0.000146918
0.0252427 0.000904051 -6.79978e-05
0.0248713 0.000650186 -1.72451e-05
0.0246117 0.00045704 9.93422e-06
0.0244382 0.000312771 2.08312e-05
0.0243283 0.000207338 2.22505e-05
0.0242633 0.000132304 1.92026e-05
0.0242286 8.056e-05 1.47755e-05
0.024213 4.61454e-05 1.05503e-05
0.0242089 2.41804e-05 7.13905e-06
0.0242108 1.08202e-05 4.63434e-06
0.0242156 3.1699e-06 2.90655e-06
0.0242212 -8.51889e-07 1.76707e-06
0.0242265 -2.67656e-06 1.04151e-06
0.0242312 -3.24733e-06 5.9323e-07
0.024235 -3.15934e-06 3.24051e-07
0.024238 -2.77065e-06 1.67171e-07
0.0242403 -2.28452e-06 7.88296e-08
0.024242 -1.80739e-06 3.12014e-08
0.0242433 -1.38785e-06 7.05167e-09
0.0242442 -1.04185e-06 -4.02774e-09
0.0242448 -7.68376e-07 -8.1564e-09
0.0242453 -5.58704e-07 -8.82398e-09
0.0242456 -4.01595e-07 -7.94103e-09
0.0242459 -2.85979e-07 -6.50594e-09
0.024246 -2.02173e-07 -5.0215e-09
0.0242461 -1.42266e-07 -3.71187e-09
0.0242462 -1.00136e-07 -2.57446e-09
0.0242463 -7.13288e-08 -1.27695e-09
0.0242463 -5.46905e-08 8.70685e-10
0.0242463 -5.24576e-08 3.91362e-09
0.0242464 -7.4364e-08 -2.772e-09
0.0242464 -9.34017e-08 -1.11103e-08
0.0148 -9.43496e-07 -1.72252e-06
0.0148023 -0.00530068 -0.00112423
0.0204106 -0.0164629 -0.0024497
0.0276255 -0.0289427 -0.00394382
0.0323062 -0.0463901 -0.00578049
0.0307534 -0.028629 -0.00142294
0.026936 -1.2182e-05 0.00331202
0.0263715 0.00704402 0.00352742
0.0298534 0.0143435 0.00343595
0.0302041 0.0137107 0.00248141
0.0294267 0.0118835 0.00153994
0.0286169 0.0100106 0.000723591
0.0280138 0.00814256 0.000131383
0.0277161 0.00644516 -0.00022834
0.027596 0.00504819 -0.000376806
0.0275473 0.00392672 -0.000378331
0.027523 0.00301577 -0.000301626
0.0275134 0.00226904 -0.000199583
0.0275212 0.00166338 -0.00010508
0.0275476 0.00118542 -3.3516e-05
0.0275893 0.000820642 1.19768e-05
0.0276408 0.000550896 3.51156e-05
0.0276965 0.000356888 4.22968e-05
0.0277519 0.000221042 3.99505e-05
0.0278038 0.00012874 3.31755e-05
0.0278501 6.83004e-05 2.53234e-05
0.0278897 3.05424e-05 1.81899e-05
0.0279224 8.37509e-06 1.24735e-05
0.0279484 -3.52499e-06 8.24184e-06
0.0279686 -9.00179e-06 5.27786e-06
0.0279837 -1.07074e-05 3.2861e-06
0.0279949 -1.03833e-05 1.9914e-06
0.0280029 -9.11302e-06 1.1735e-06
0.0280086 -7.52876e-06 6.70297e-07
0.0280127 -5.96949e-06 3.68749e-07
0.0280154 -4.59364e-06 1.93038e-07
0.0280174 -3.45529e-06 9.38767e-08
0.0280187 -2.55302e-06 4.00788e-08
0.0280196 -1.85957e-06 1.241e-08
0.0280202 -1.33886e-06 -6.97507e-10
0.0280206 -9.54871e-07 -6.01895e-09
0.0280209 -6.75777e-07 -7.3999e-09
0.028021 -4.75343e-07 -6.94765e-09
0.0280212 -3.32926e-07 -5.78655e-09
0.0280213 -2.32834e-07 -4.44576e-09
0.0280213 -1.63809e-07 -3.07964e-09
0.0280214 -1.18404e-07 -1.35692e-09
0.0280214 -9.33257e-08 6.99305e-10
0.0280214 -8.90774e-08 5.25697e-10
0.0280214 -1.00701e-07 -1.18031e-08
0.0280214 -1.09024e-07 -2.29404e-08
0.018 -1.90321e-06 -1.66811e-06
0.0180029 -0.00702031 -0.00187301
0.0208019 -0.0190765 -0.0049274
0.0207686 -0.025124 -0.0063531
0.016118 -0.0271361 -0.00764132
-1.58377e-06 -0.0140778 -0.0043436
9.55338e-05 2.55591e-05 9.15017e-07
-3.25168e-05 3.38383e-05 0.000655739
0.00655032 0.00403529 0.00144745
0.0133437 0.00911486 0.00142303
0.0167291 0.00983815 0.00102135
0.0185225 0.00881844 0.000496299
0.0202392 0.00728016 1.95456e-05
0.0219416 0.00573489 -0.000252521
0.0234603 0.00447252 -0.000335445
0.0247312 0.00345663 -0.000304597
0.0257672 0.00261214 -0.000224873
0.0266071 0.00190361 -0.000137013
0.0272879 0.00132547 -6.14644e-05
0.0278368 0.000876946 -5.71798e-06
0.0282734 0.000547844 2.95943e-05
0.0286146 0.000318358 4.71942e-05
0.0288766 0.00016541 5.14502e-05
0.0290746 6.80713e-05 4.72292e-05
0.0292221 9.69721e-06 3.88824e-05
0.0293304 -2.22022e-05 2.95815e-05
0.0294088 -3.68062e-05 2.11719e-05
0.0294647 -4.07531e-05 1.44239e-05
0.0295038 -3.87e-05 9.42729e-06
0.0295307 -3.37549e-05 5.93961e-06
0.0295489 -2.78538e-05 3.61532e-06
0.029561 -2.20942e-05 2.12519e-06
0.0295689 -1.70133e-05 1.20236e-06
0.0295741 -1.28026e-05 6.4956e-07
0.0295774 -9.45957e-06 3.29665e-07
0.0295795 -6.88747e-06 1.51624e-07
0.0295808 -4.95522e-06 5.72141e-08
0.0295816 -3.53045e-06 1.04289e-08
0.0295821 -2.49533e-06 -1.03014e-08
0.0295825 -1.75219e-06 -1.7488e-08
0.0295826 -1.22384e-06 -1.81369e-08
0.0295828 -8.51206e-07 -1.60018e-08
0.0295828 -5.90231e-07 -1.29746e-08
0.0295829 -4.08715e-07 -9.95245e-09
0.0295829 -2.83629e-07 -7.2504e-09
0.0295829 -1.98994e-07 -4.9549e-09
0.029583 -1.44196e-07 -2.93051e-09
0.029583 -1.11189e-07 -1.55116e-09
0.029583 -9.50957e-08 -5.9827e-09
0.0295829 -8.00809e-08 -2.05677e-08
0.0295829 -6.91377e-08 -3.03362e-08
0.0196 -2.77043e-06 -2.51501e-06
0.019601 -0.00593739 -0.00274364
0.0190516 -0.0132528 -0.00648843
0.0159223 -0.016309 -0.00670187
0.0108469 -0.0153006 -0.00669755
0.00169728 -0.00630983 -0.00504864
7.10771e-05 -6.52527e-05 -0.00130575
3.2736e-05 -3.2736e-05 -4.16469e-08
-3.19222e-05 3.31113e-05 0.000264975
0.00385604 0.00267922 0.000568599
0.00878071 0.00621541 0.000502759
0.0116707 0.00641032 0.000154772
0.0149095 0.00497395 -0.000229742
0.018055 0.00365512 -0.000402655
0.0207475 0.00271992 -0.000406172
0.0229264 0.00201555 -0.000328325
0.024655 0.00142805 -0.000229691
0.0260184 0.000926123 -0.000140623
0.0270869 0.00052012 -7.08744e-05
0.0279126 0.000221555 -2.05987e-05
0.0285365 2.53097e-05 1.24881e-05
0.0289958 -8.80875e-05 3.08776e-05
0.0293248 -0.000142679 3.75395e-05
0.0295549 -0.000159595 3.61059e-05
0.0297121 -0.000154431 3.02741e-05
0.0298172 -0.000137705 2.30209e-05
0.029886 -0.000116187 1.62187e-05
0.02993 -9.40539e-05 1.07235e-05
0.0299574 -7.36825e-05 6.70255e-06
0.0299739 -5.62087e-05 3.96983e-06
0.0299837 -4.1955e-05 2.22084e-06
0.0299891 -3.07615e-05 1.15955e-06
0.0299921 -2.22272e-05 5.48303e-07
0.0299935 -1.58706e-05 2.1593e-07
0.0299942 -1.12231e-05 4.79293e-08
0.0299944 -7.87498e-06 -2.8018e-08
0.0299944 -5.49125e-06 -5.53741e-08
0.0299943 -3.80996e-06 -5.90405e-08
0.0299942 -2.63292e-06 -5.25687e-08
0.0299941 -1.8138e-06 -4.28866e-08
0.029994 -1.24649e-06 -3.32337e-08
0.0299939 -8.55177e-07 -2.48899e-08
0.0299938 -5.86266e-07 -1.81586e-08
0.0299938 -4.02264e-07 -1.29526e-08
0.0299937 -2.77186e-07 -9.04592e-09
0.0299937 -1.92877e-07 -6.27849e-09
0.0299937 -1.36383e-07 -4.66054e-09
0.0299937 -9.64632e-08 -4.1658e-09
0.0299936 -6.40518e-08 -1.07171e-08
0.0299936 -2.19804e-08 -2.3146e-08
0.0299935 4.95589e-09 -2.90458e-08
0.0196 -1.33611e-06 -3.51545e-06
0.0195999 -0.00370394 -0.00312864
0.0187484 -0.00814314 -0.00653003
0.0174911 -0.00819481 -0.00605965
0.0131483 -0.0043769 -0.00554548
0.00904643 0.00250471 -0.00534103
0.00613344 0.00312734 -0.00313131
7.12542e-05 -5.92512e-05 -0.000681176
2.7329e-05 -2.7329e-05 -1.25139e-07
-3.13924e-05 3.24521e-05 9.80116e-05
0.00263051 0.00181583 0.000372942
0.00683585 0.00275592 0.000275188
0.012049 0.00122796 -0.000166282
0.0166525 0.000340596 -0.000374817
0.0202388 3.4374e-05 -0.000391043
0.0229238 -9.18935e-05 -0.000318062
0.0249217 -0.000215608 -0.000226159
0.0264065 -0.000353895 -0.000147671
0.0274973 -0.000468334 -8.93922e-05
0.0282778 -0.000527986 -4.79363e-05
0.0288145 -0.000528544 -1.92526e-05
0.0291657 -0.000485059 -9.9658e-07
0.0293831 -0.000417951 8.59514e-06
0.0295091 -0.000343877 1.17313e-05
0.0295763 -0.000273192 1.09374e-05
0.0296079 -0.000211048 8.41837e-06
0.0296192 -0.000159265 5.64445e-06
0.0296199 -0.000117797 3.34262e-06
0.0296157 -8.56372e-05 1.71833e-06
0.0296099 -6.13543e-05 7.05401e-07
0.0296041 -4.34276e-05 1.44101e-07
0.029599 -3.04386e-05 -1.24477e-07
0.0295949 -2.11695e-05 -2.22959e-07
0.0295916 -1.46348e-05 -2.33369e-07
0.0295892 -1.00711e-05 -2.05002e-07
0.0295874 -6.90687e-06 -1.64665e-07
0.0295861 -4.72482e-06 -1.25285e-07
0.0295852 -3.22606e-06 -9.19848e-08
0.0295845 -2.19966e-06 -6.59077e-08
0.029584 -1.49829e-06 -4.64267e-08
0.0295837 -1.01987e-06 -3.23138e-08
0.0295835 -6.94037e-07 -2.22872e-08
0.0295833 -4.72484e-07 -1.52432e-08
0.0295832 -3.22044e-07 -1.03691e-08
0.0295831 -2.1976e-07 -7.13042e-09
0.0295831 -1.49221e-07 -5.18949e-09
0.029583 -9.81563e-08 -4.50485e-09
0.029583 -5.59961e-08 -4.53614e-09
0.029583 -1.25637e-08 -9.98831e-09
0.0295829 4.41316e-08 -1.77544e-08
0.0295829 7.75702e-08 -2.01084e-08
0.018 -8.49014e-07 -3.51105e-06
0.0180009 -0.0020191 -0.00305194
0.0183102 -0.00391183 -0.00616863
0.0183573 -0.00273029 -0.00529162
0.0173306 0.000553203 -0.00418984
0.0170419 0.00701361 -0.00396578
0.0177738 0.0125485 -0.00302047
0.0109094 0.00692481 -0.00151586
7.26898e-05 -4.58127e-05 -0.00044251
-2.45625e-05 -5.34033e-05 5.47665e-07
7.77937e-06 -0.000769155 0.000757133
0.00819083 -0.00302747 0.00110142
0.0153951 -0.00459879 0.000450198
0.0202933 -0.00416788 0.000108913
0.0234198 -0.00317319 -2.97072e-05
0.0254206 -0.00233655 -7.50113e-05
0.0267213 -0.00179087 -8.41096e-05
0.027561 -0.00145147 -8.18913e-05
0.0280758 -0.00121099 -7.53678e-05
0.0283562 -0.00100443 -6.50153e-05
0.0284731 -0.000811011 -5.15655e-05
0.0284857 -0.000633769 -3.74133e-05
0.0284406 -0.000480758 -2.50995e-05
0.0283711 -0.000356104 -1.59323e-05
0.0282977 -0.000258986 -9.87475e-06
0.0282313 -0.000185683 -6.1765e-06
0.0281762 -0.000131594 -3.9918e-06
0.0281331 -9.23663e-05 -2.68029e-06
0.0281006 -6.4317e-05 -1.84993e-06
0.0280769 -4.44989e-05 -1.29078e-06
0.0280599 -3.06352e-05 -8.97654e-07
0.028048 -2.1014e-05 -6.16714e-07
0.0280397 -1.43773e-05 -4.16815e-07
0.0280339 -9.81927e-06 -2.76808e-07
0.02803 -6.6981e-06 -1.80728e-07
0.0280273 -4.56496e-06 -1.16173e-07
0.0280254 -3.10888e-06 -7.36574e-08
0.0280241 -2.1158e-06 -4.61571e-08
0.0280233 -1.43895e-06 -2.86458e-08
0.0280227 -9.7796e-07 -1.76409e-08
0.0280223 -6.64239e-07 -1.07981e-08
0.028022 -4.5091e-07 -6.57511e-09
0.0280218 -3.05834e-07 -3.99109e-09
0.0280217 -2.06761e-07 -2.47198e-09
0.0280216 -1.38001e-07 -1.70262e-09
0.0280215 -8.81071e-08 -1.45718e-09
0.0280215 -4.82485e-08 -1.67809e-09
0.0280215 -1.10277e-08 -1.77144e-09
0.0280214 3.19448e-08 -4.16385e-09
0.0280214 8.49403e-08 -7.63156e-09
0.0280214 1.13789e-07 -8.56091e-09
0.0148 -4.7556e-07 -3.11055e-06
0.0148015 -0.00104297 -0.00283306
0.0162276 -0.00166987 -0.00543349
0.0177805 -7.42309e-05 -0.00429343
0.0190824 0.00311734 -0.00305857
0.020797 0.00730883 -0.00283297
0.0246031 0.0129698 -0.00240947
0.027895 0.0194983 -0.00152846
0.0229465 0.0112732 -0.000355981
0.0234076 1.95321e-12 0.000619317
0.0265604 -0.00674498 0.00156239
0.0299248 -0.0131794 0.0021233
0.0306373 -0.0110903 0.0016472
0.0299746 -0.00770731 0.00113165
0.0289621 -0.00501399 0.000663195
0.0280283 -0.00326153 0.000308643
0.0272679 -0.00219892 8.43956e-05
0.0266566 -0.00154452 -3.48304e-05
0.0261539 -0.00110946 -8.41778e-05
0.0257337 -0.000795551 -9.23748e-05
0.0253837 -0.00056097 -7.98059e-05
0.0250981 -0.000388026 -6.00338e-05
0.0248715 -0.000264937 -4.09226e-05
0.024697 -0.00018019 -2.58663e-05
0.0245662 -0.000122975 -1.54047e-05
0.0244704 -8.45165e-05 -8.74173e-06
0.0244017 -5.85002e-05 -4.75705e-06
0.0243532 -4.07075e-05 -2.48265e-06
0.0243195 -2.84107e-05 -1.23099e-06
0.0242962 -1.98474e-05 -5.64211e-07
0.0242803 -1.38576e-05 -2.21507e-07
0.0242694 -9.6606e-06 -5.38972e-08
0.024262 -6.7201e-06 2.14752e-08
0.024257 -4.66265e-06 4.98197e-08
0.0242536 -3.22609e-06 5.53757e-08
0.0242513 -2.22564e-06 5.08605e-08
0.0242497 -1.53092e-06 4.27326e-08
0.0242486 -1.04998e-06 3.40991e-08
0.0242479 -7.18089e-07 2.63106e-08
0.0242474 -4.89769e-07 1.98264e-08
0.0242471 -3.33134e-07 1.46784e-08
0.0242468 -2.25826e-07 1.07191e-08
0.0242467 -1.52111e-07 7.73938e-09
0.0242466 -1.00805e-07 5.51967e-09
0.0242465 -6.38129e-08 3.87932e-09
0.0242465 -3.50813e-08 2.72254e-09
0.0242464 -9.77029e-09 2.01839e-09
0.0242464 1.58144e-08 2.01931e-09
0.0242464 4.54118e-08 1.96997e-09
0.0242464 7.81071e-08 4.64233e-11
0.0242465 9.44406e-08 -1.58664e-09
0.01 -9.10907e-07 -2.81908e-06
0.0100008 -0.000638842 -0.0023073
0.0113168 -0.000725352 -0.00414763
0.0131653 0.000531521 -0.00290525
0.015573 0.00249515 -0.00179558
0.0194397 0.00554136 -0.00179985
0.0253399 0.00835796 -0.00235614
0.0344607 0.0101197 -0.00209403
0.046068 0.00481257 -0.000517176