# vtk DataFile Version 2.0
Tobias Weinzierl: CPU, Manycore and Cluster Computing
ASCII

DATASET STRUCTURED_POINTS
DIMENSIONS  51 11 6

ORIGIN 0 0 0 

SPACING 0.1 0.1 0.1 

POINT_DATA 3366

VECTORS velocity float
0 0 0
1.89966e-12 0 0
3.0157e-09 0 0
4.62111e-09 0 0
-8.05395e-09 0 0
4.48442e-09 0 0
5.7918e-09 0 0
4.38349e-09 0 0
3.42167e-09 0 0
1.67616e-09 0 0
2.76038e-10 0 0
-1.38153e-10 0 0
-1.16734e-09 0 0
-4.19063e-09 0 0
-8.21752e-09 0 0
-1.12265e-08 0 0
-1.2481e-08 0 0
-1.27296e-08 0 0
-1.29852e-08 0 0
-1.3711e-08 0 0
-1.48354e-08 0 0
-1.60833e-08 0 0
-1.72191e-08 0 0
-1.81243e-08 0 0
-1.87785e-08 0 0
-1.9215e-08 0 0
-1.94855e-08 0 0
-1.96401e-08 0 0
-1.97193e-08 0 0
-1.97526e-08 0 0
-1.976e-08 0 0
-1.97543e-08 0 0
-1.9743e-08 0 0
-1.97304e-08 0 0
-1.97187e-08 0 0
-1.97088e-08 0 0
-1.97009e-08 0 0
-1.96948e-08 0 0
-1.96903e-08 0 0
-1.9687e-08 0 0
-1.96848e-08 0 0
-1.96832e-08 0 0
-1.96822e-08 0 0
-1.96816e-08 0 0
-1.96812e-08 0 0
-1.96809e-08 0 0
-1.96807e-08 0 0
-1.96807e-08 0 0
-1.9681e-08 0 0
-1.96819e-08 0 0
0.00197533 0 0
0 3.79916e-07 0
1.6772e-12 -2.82407e-09 0
4.68509e-09 -6.72446e-09 0
9.97445e-09 -2.04798e-09 0
-5.35283e-09 -1.03368e-08 0
1.76804e-08 -1.36717e-08 0
1.86384e-08 6.74907e-10 0
1.3711e-08 4.58924e-09 0
1.15951e-08 5.29192e-09 0
8.88191e-09 4.78359e-09 0
5.6442e-09 2.70034e-09 0
3.09682e-09 2.24507e-09 0
-5.65238e-10 4.76113e-09 0
-6.98248e-09 7.26768e-09 0
-1.41829e-08 6.88126e-09 0
-1.91269e-08 4.23288e-09 0
-2.14349e-08 1.71697e-09 0
-2.29861e-08 6.38583e-10 0
-2.54639e-08 7.3115e-10 0
-2.9204e-08 1.19163e-09 0
-3.35956e-08 1.48698e-09 0
-3.78452e-08 1.48533e-09 0
-4.14187e-08 1.27202e-09 0
-4.41214e-08 9.74413e-10 0
-4.59989e-08 6.83589e-10 0
-4.72096e-08 4.43536e-10 0
-4.79348e-08 2.65335e-10 0
-4.8333e-08 1.43171e-10 0
-4.85255e-08 6.51339e-11 0
-4.85968e-08 1.88744e-11 0
-4.86026e-08 -6.03582e-12 0
-4.8577e-08 -1.74961e-11 0
-4.85399e-08 -2.10621e-11 0
-4.85018e-08 -2.04051e-11 0
-4.84677e-08 -1.78068e-11 0
-4.84394e-08 -1.45906e-11 0
-4.84171e-08 -1.14562e-11 0
-4.84002e-08 -8.72175e-12 0
-4.83876e-08 -6.48673e-12 0
-4.83786e-08 -4.73683e-12 0
-4.83723e-08 -3.40643e-12 0
-4.8368e-08 -2.41404e-12 0
-4.83651e-08 -1.68135e-12 0
-4.83633e-08 -1.1397e-12 0
-4.8362e-08 -7.28974e-13 0
-4.83613e-08 -4.00959e-13 0
-4.83609e-08 -1.03482e-13 0
-4.83611e-08 2.49078e-13 0
-4.83623e-08 1.00817e-12 0
-4.83652e-08 3.32312e-12 0
0.00566105 -3.39705e-08 0
0 -2.13282e-08 0
6.36477e-13 -2.55858e-09 0
5.16699e-09 -1.02785e-08 0
1.70554e-08 -1.64069e-08 0
1.72006e-08 -3.24928e-08 0
3.67546e-08 -2.74488e-08 0
3.12318e-08 -1.98714e-09 0
2.64101e-08 7.08327e-10 0
1.84463e-08 -5.33288e-09 0
9.11894e-09 -1.04832e-08 0
5.35046e-10 -1.07029e-08 0
-3.23417e-09 -5.41345e-09 0
-5.43343e-09 1.68285e-09 0
-1.0644e-08 6.5753e-09 0
-1.70506e-08 8.95214e-09 0
-2.12111e-08 1.04469e-08 0
-2.26969e-08 1.16595e-08 0
-2.34237e-08 1.22082e-08 0
-2.51585e-08 1.18185e-08 0
-2.83598e-08 1.05899e-08 0
-3.24565e-08 8.82342e-09 0
-3.65809e-08 6.86585e-09 0
-4.00886e-08 5.00969e-09 0
-4.27111e-08 3.43762e-09 0
-4.44712e-08 2.21847e-09 0
-4.55377e-08 1.33883e-09 0
-4.61118e-08 7.42863e-10 0
-4.63695e-08 3.62579e-10 0
-4.64416e-08 1.35067e-10 0
-4.64162e-08 9.48824e-12 0
-4.63479e-08 -5.1847e-11 0
-4.62676e-08 -7.51408e-11 0
-4.61912e-08 -7.76159e-11 0
-4.61255e-08 -6.99862e-11 0
-4.60724e-08 -5.852e-11 0
-4.60312e-08 -4.66069e-11 0
-4.60001e-08 -3.58708e-11 0
-4.59773e-08 -2.6917e-11 0
-4.59608e-08 -1.9808e-11 0
-4.59492e-08 -1.43503e-11 0
-4.59411e-08 -1.02574e-11 0
-4.59356e-08 -7.2339e-12 0
-4.5932e-08 -5.01495e-12 0
-4.59296e-08 -3.37912e-12 0
-4.59281e-08 -2.13664e-12 0
-4.59272e-08 -1.111e-12 0
-4.5927e-08 -7.30019e-14 0
-4.59275e-08 1.43155e-12 0
-4.59291e-08 3.87686e-12 0
-4.59322e-08 7.47915e-12 0
0.00808399 -7.53492e-08 0
0 -6.30186e-07 0
3.89917e-12 -4.78735e-09 0
7.28131e-09 -1.65879e-08 0
2.1393e-08 -3.08066e-08 0
1.87396e-08 -4.19553e-08 0
2.35585e-08 -2.296e-08 0
1.83923e-08 -1.05808e-11 0
1.70827e-08 -2.67488e-09 0
2.0453e-09 -1.21272e-08 0
-1.15987e-08 -2.26491e-08 0
-1.74534e-08 -2.79862e-08 0
-1.84095e-08 -2.80463e-08 0
-1.96976e-08 -2.06877e-08 0
-2.63947e-08 -6.95647e-09 0
-3.44304e-08 7.97569e-09 0
-3.88088e-08 1.88801e-08 0
-3.80637e-08 2.3324e-08 0
-3.38292e-08 2.25149e-08 0
-2.88355e-08 1.9135e-08 0
-2.50956e-08 1.51488e-08 0
-2.31871e-08 1.14045e-08 0
-2.26559e-08 8.16172e-09 0
-2.27718e-08 5.50269e-09 0
-2.30007e-08 3.44853e-09 0
-2.31017e-08 1.96349e-09 0
-2.30356e-08 9.63052e-10 0
-2.28506e-08 3.38983e-10 0
-2.26109e-08 -1.56898e-11 0
-2.23658e-08 -1.91482e-10 0
-2.21444e-08 -2.57194e-10 0
-2.19592e-08 -2.60966e-10 0
-2.18122e-08 -2.3412e-10 0
-2.16999e-08 -1.95594e-10 0
-2.16164e-08 -1.55891e-10 0
-2.15556e-08 -1.20139e-10 0
-2.15122e-08 -9.02858e-11 0
-2.14815e-08 -6.6546e-11 0
-2.14601e-08 -4.83024e-11 0
-2.14454e-08 -3.46287e-11 0
-2.14354e-08 -2.45681e-11 0
-2.14287e-08 -1.72622e-11 0
-2.14243e-08 -1.19968e-11 0
-2.14215e-08 -8.20106e-12 0
-2.14197e-08 -5.42427e-12 0
-2.14187e-08 -3.29937e-12 0
-2.14181e-08 -1.46779e-12 0
-2.1418e-08 4.49766e-13 0
-2.14182e-08 2.70775e-12 0
-2.14185e-08 5.25819e-12 0
-2.14195e-08 7.64315e-12 0
0.00905689 -7.82519e-08 0
0 -1.22994e-06 0
1.28958e-12 -9.05619e-09 0
2.99678e-09 -2.48232e-08 0
7.88034e-09 -3.24128e-08 0
2.35668e-09 -2.61145e-08 0
-2.41966e-12 -9.47473e-09 0
-7.11353e-11 -9.58727e-11 0
8.85703e-11 -9.29541e-11 0
-8.22752e-09 -1.05449e-08 0
-2.93393e-08 -3.15151e-08 0
-3.64177e-08 -4.5678e-08 0
-3.48089e-08 -4.61297e-08 0
-3.80881e-08 -3.18759e-08 0
-4.54017e-08 -8.40205e-09 0
-5.19297e-08 1.32878e-08 0
-5.46431e-08 2.59303e-08 0
-5.20156e-08 2.80857e-08 0
-4.42888e-08 2.3483e-08 0
-3.3926e-08 1.69351e-08 0
-2.40554e-08 1.1202e-08 0
-1.65295e-08 6.9304e-09 0
-1.15506e-08 3.88806e-09 0
-8.45449e-09 1.76592e-09 0
-6.49412e-09 3.58162e-10 0
-5.16316e-09 -4.8772e-10 0
-4.19525e-09 -9.14095e-10 0
-3.46684e-09 -1.05478e-09 0
-2.91782e-09 -1.02254e-09 0
-2.51068e-09 -9.01485e-10 0
-2.21543e-09 -7.47521e-10 0
-2.0061e-09 -5.93635e-10 0
-1.86062e-09 -4.56532e-10 0
-1.76122e-09 -3.42545e-10 0
-1.69424e-09 -2.521e-10 0
-1.64959e-09 -1.8271e-10 0
-1.62009e-09 -1.30799e-10 0
-1.60075e-09 -9.27105e-11 0
-1.58817e-09 -6.5183e-11 0
-1.58007e-09 -4.55193e-11 0
-1.57495e-09 -3.15949e-11 0
-1.57178e-09 -2.17886e-11 0
-1.5699e-09 -1.489e-11 0
-1.56885e-09 -1.00061e-11 0
-1.56828e-09 -6.46838e-12 0
-1.56794e-09 -3.75718e-12 0
-1.56765e-09 -1.50388e-12 0
-1.56719e-09 4.67136e-13 0
-1.56635e-09 2.1269e-12 0
-1.56522e-09 3.39029e-12 0
-1.56484e-09 4.35649e-12 0
0.00939435 -4.37808e-08 0
0 -1.11183e-06 0
-5.92553e-12 -9.9734e-09 0
-2.95959e-09 -2.16516e-08 0
-3.23778e-09 -2.52002e-08 0
-9.07829e-09 -2.5475e-08 0
-7.99427e-09 -1.19546e-08 0
-7.85784e-11 7.77684e-11 0
1.05818e-11 -1.05818e-11 0
8.43521e-11 -9.28455e-11 0
-1.58273e-08 -1.75866e-08 0
-4.41744e-08 -4.77866e-08 0
-4.66628e-08 -5.53359e-08 0
-4.88958e-08 -3.67294e-08 0
-5.06272e-08 -8.85787e-09 0
-5.12317e-08 1.55168e-08 0
-5.17904e-08 2.85228e-08 0
-5.06347e-08 2.86408e-08 0
-4.48174e-08 2.07867e-08 0
-3.44793e-08 1.14436e-08 0
-2.28224e-08 4.27257e-09 0
-1.29119e-08 -1.40037e-10 0
-5.90632e-09 -2.49771e-09 0
-1.47729e-09 -3.55609e-09 0
1.18208e-09 -3.81926e-09 0
2.76831e-09 -3.6094e-09 0
3.72999e-09 -3.14977e-09 0
4.32315e-09 -2.59692e-09 0
4.691e-09 -2.05134e-09 0
4.91711e-09 -1.56766e-09 0
5.05323e-09 -1.16748e-09 0
5.13268e-09 -8.52032e-10 0
5.17717e-09 -6.12007e-10 0
5.20069e-09 -4.34143e-10 0
5.21207e-09 -3.04965e-10 0
5.21671e-09 -2.12579e-10 0
5.21783e-09 -1.47285e-10 0
5.21725e-09 -1.01558e-10 0
5.21595e-09 -6.97568e-11 0
5.21445e-09 -4.77546e-11 0
5.21298e-09 -3.25826e-11 0
5.21163e-09 -2.21318e-11 0
5.21045e-09 -1.49134e-11 0
5.20949e-09 -9.87718e-12 0
5.20879e-09 -6.29624e-12 0
5.20847e-09 -3.70645e-12 0
5.20862e-09 -1.85105e-12 0
5.20929e-09 -5.96543e-13 0
5.21045e-09 1.31279e-13 0
5.21173e-09 3.12574e-13 0
5.21205e-09 1.8166e-13 0
0.00947144 7.91385e-09 0
0 -7.68232e-07 0
-3.74256e-12 -6.13907e-09 0
-3.15955e-09 -1.5623e-08 0
-2.92693e-09 -2.03143e-08 0
-1.37376e-08 -1.97732e-08 0
-2.02038e-08 -1.15225e-08 0
-8.78221e-09 -2.58003e-09 0
-7.70128e-11 7.8537e-11 0
5.57295e-12 -5.57295e-12 0
7.74236e-11 -9.12707e-11 0
-2.03769e-08 -2.81153e-08 0
-3.59463e-08 -5.26193e-08 0
-4.31919e-08 -3.49637e-08 0
-4.34513e-08 -6.78868e-09 0
-3.91468e-08 1.68918e-08 0
-3.56579e-08 2.88156e-08 0
-3.48525e-08 2.73455e-08 0
-3.29797e-08 1.73942e-08 0
-2.71071e-08 6.16887e-09 0
-1.86652e-08 -1.96029e-09 0
-1.07656e-08 -6.29237e-09 0
-5.20097e-09 -7.84156e-09 0
-2.05805e-09 -7.76067e-09 0
-6.34042e-10 -6.86411e-09 0
-1.8741e-10 -5.65655e-09 0
-2.06439e-10 -4.43231e-09 0
-4.04435e-10 -3.34424e-09 0
-6.42192e-10 -2.4519e-09 0
-8.6113e-10 -1.75905e-09 0
-1.04207e-09 -1.24162e-09 0
-1.18329e-09 -8.65904e-10 0
-1.28977e-09 -5.98591e-10 0
-1.3683e-09 -4.11172e-10 0
-1.42532e-09 -2.8114e-10 0
-1.46629e-09 -1.91592e-10 0
-1.49549e-09 -1.30248e-10 0
-1.51621e-09 -8.83803e-11 0
-1.53086e-09 -5.98783e-11 0
-1.54123e-09 -4.0506e-11 0
-1.54859e-09 -2.73459e-11 0
-1.55382e-09 -1.83968e-11 0
-1.55754e-09 -1.22947e-11 0
-1.56014e-09 -8.12513e-12 0
-1.56183e-09 -5.28916e-12 0
-1.56273e-09 -3.40204e-12 0
-1.56297e-09 -2.22041e-12 0
-1.56269e-09 -1.60605e-12 0
-1.56202e-09 -1.54577e-12 0
-1.56137e-09 -2.25523e-12 0
-1.5616e-09 -3.7377e-12 0
0.00939432 5.65312e-08 0
0 -5.38886e-07 0
1.12969e-13 -4.51288e-09 0
-1.3861e-09 -1.14909e-08 0
-3.4153e-09 -1.52139e-08 0
-1.3723e-08 -1.36359e-08 0
-2.56523e-08 -5.92754e-09 0
-2.43262e-08 -3.34356e-10 0
-1.33949e-08 1.93416e-10 0
-8.45518e-11 7.25283e-11 0
7.69047e-11 6.75824e-11 0
2.95789e-12 -1.55001e-08 0
-2.22879e-08 -2.96401e-08 0
-4.06882e-08 -1.70716e-08 0
-4.58212e-08 3.75118e-09 0
-3.66171e-08 1.82337e-08 0
-2.29379e-08 2.30452e-08 0
-1.57789e-08 1.90583e-08 0
-1.54853e-08 9.97294e-09 0
-1.63725e-08 7.60039e-10 0
-1.56161e-08 -5.4466e-09 0
-1.41255e-08 -8.24942e-09 0
-1.33456e-08 -8.65341e-09 0
-1.36822e-08 -7.77564e-09 0
-1.4783e-08 -6.39477e-09 0
-1.61546e-08 -4.95906e-09 0
-1.7459e-08 -3.68862e-09 0
-1.85442e-08 -2.66243e-09 0
-1.93797e-08 -1.88111e-09 0
-1.99933e-08 -1.30958e-09 0
-2.04309e-08 -9.02726e-10 0
-2.07372e-08 -6.18283e-10 0
-2.09493e-08 -4.21731e-10 0
-2.10953e-08 -2.869e-10 0
-2.11954e-08 -1.94821e-10 0
-2.1264e-08 -1.32107e-10 0
-2.1311e-08 -8.94691e-11 0
-2.13432e-08 -6.05172e-11 0
-2.13652e-08 -4.08787e-11 0
-2.13804e-08 -2.75688e-11 0
-2.13909e-08 -1.85544e-11 0
-2.13982e-08 -1.24562e-11 0
-2.14032e-08 -8.34376e-12 0
-2.14066e-08 -5.59164e-12 0
-2.14089e-08 -3.78309e-12 0
-2.14103e-08 -2.65137e-12 0
-2.1411e-08 -2.04869e-12 0
-2.14112e-08 -1.93519e-12 0
-2.14112e-08 -2.41329e-12 0
-2.14114e-08 -3.88919e-12 0
-2.14125e-08 -6.66792e-12 0
0.00905685 8.24014e-08 0
0 -4.57819e-07 0
-1.3035e-13 -2.37812e-09 0
-3.81989e-10 -6.5755e-09 0
-5.01085e-09 -9.6519e-09 0
-1.78908e-08 -9.33186e-09 0
-3.22321e-08 -1.70874e-09 0
-3.45019e-08 4.45826e-09 0
-3.00386e-08 -5.80823e-09 0
-1.88281e-08 -8.09865e-09 0
-1.65844e-08 -2.10726e-13 0
-1.86199e-08 -4.87173e-09 0
-3.7128e-08 -5.62869e-09 0
-5.45427e-08 5.44697e-09 0
-5.5225e-08 1.5084e-08 0
-3.7307e-08 1.5745e-08 0
-1.55881e-08 9.92736e-09 0
-6.47481e-09 2.67999e-09 0
-1.10775e-08 -2.80248e-09 0
-2.01884e-08 -5.42217e-09 0
-2.72164e-08 -5.74586e-09 0
-3.13627e-08 -4.98983e-09 0
-3.40549e-08 -4.02963e-09 0
-3.63146e-08 -3.18971e-09 0
-3.84061e-08 -2.50275e-09 0
-4.02622e-08 -1.93684e-09 0
-4.17938e-08 -1.47091e-09 0
-4.29813e-08 -1.09528e-09 0
-4.38608e-08 -8.01349e-10 0
-4.44921e-08 -5.77834e-10 0
-4.49363e-08 -4.11835e-10 0
-4.52448e-08 -2.90785e-10 0
-4.54576e-08 -2.03734e-10 0
-4.56038e-08 -1.41805e-10 0
-4.5704e-08 -9.813e-11 0
-4.57727e-08 -6.75522e-11 0
-4.58198e-08 -4.62802e-11 0
-4.5852e-08 -3.15664e-11 0
-4.58741e-08 -2.14425e-11 0
-4.58892e-08 -1.45117e-11 0
-4.58997e-08 -9.79142e-12 0
-4.59069e-08 -6.59602e-12 0
-4.59119e-08 -4.45171e-12 0
-4.59153e-08 -3.03571e-12 0
-4.59177e-08 -2.13695e-12 0
-4.59192e-08 -1.63188e-12 0
-4.59201e-08 -1.46892e-12 0
-4.59208e-08 -1.67643e-12 0
-4.59214e-08 -2.37973e-12 0
-4.59225e-08 -3.95033e-12 0
-4.59253e-08 -6.818e-12 0
0.00808397 6.9847e-08 0
0 -4.72729e-07 0
2.24506e-12 -4.58456e-10 0
1.67267e-10 -1.81849e-09 0
-6.19948e-09 -3.33214e-09 0
-2.03641e-08 -3.58454e-09 0
-3.56398e-08 -2.32049e-09 0
-3.91551e-08 2.25299e-10 0
-3.51537e-08 -2.44049e-09 0
-4.04738e-08 -4.18087e-09 0
-3.80107e-08 1.67203e-09 0
-3.55166e-08 7.03858e-09 0
-3.81008e-08 9.9401e-09 0
-3.89968e-08 9.84012e-09 0
-3.20483e-08 7.2744e-09 0
-1.71203e-08 3.236e-09 0
-4.95049e-09 -1.77872e-09 0
-5.40233e-09 -5.75539e-09 0
-1.61623e-08 -6.65386e-09 0
-2.83235e-08 -4.87218e-09 0
-3.65019e-08 -2.41833e-09 0
-4.06119e-08 -7.1767e-10 0
-4.24998e-08 1.32009e-11 0
-4.35803e-08 1.44356e-10 0
-4.44549e-08 5.067e-11 0
-4.52601e-08 -6.53907e-11 0
-4.59796e-08 -1.36751e-10 0
-4.65834e-08 -1.60701e-10 0
-4.70628e-08 -1.53583e-10 0
-4.7428e-08 -1.31507e-10 0
-4.76982e-08 -1.05221e-10 0
-4.78939e-08 -8.04532e-11 0
-4.80336e-08 -5.95759e-11 0
-4.81323e-08 -4.30882e-11 0
-4.82015e-08 -3.0608e-11 0
-4.82497e-08 -2.14366e-11 0
-4.82832e-08 -1.48421e-11 0
-4.83063e-08 -1.01794e-11 0
-4.83223e-08 -6.9272e-12 0
-4.83333e-08 -4.68501e-12 0
-4.8341e-08 -3.15558e-12 0
-4.83463e-08 -2.12438e-12 0
-4.835e-08 -1.44063e-12 0
-4.83526e-08 -1.00167e-12 0
-4.83544e-08 -7.42679e-13 0
-4.83556e-08 -6.30507e-13 0
-4.83565e-08 -6.58553e-13 0
-4.83572e-08 -8.55318e-13 0
-4.83582e-08 -1.26023e-12 0
-4.83599e-08 -1.93076e-12 0
-4.83636e-08 -3.15568e-12 0
0.00566108 2.69236e-08 0
0 0 0
2.05606e-12 0 0
1.50053e-10 0 0
-3.10418e-09 0 0
-9.65347e-09 0 0
-1.68482e-08 0 0
-2.01975e-08 0 0
-1.8511e-08 0 0
-2.16516e-08 0 0
-2.14267e-08 0 0
-1.68938e-08 0 0
-1.11087e-08 0 0
-6.42004e-09 0 0
-2.96133e-09 0 0
6.91183e-11 0 0
7.12311e-10 0 0
-2.79372e-09 0 0
-8.78109e-09 0 0
-1.41096e-08 0 0
-1.72321e-08 0 0
-1.84823e-08 0 0
-1.87823e-08 0 0
-1.87954e-08 0 0
-1.88082e-08 0 0
-1.88846e-08 0 0
-1.90057e-08 0 0
-1.91399e-08 0 0
-1.9265e-08 0 0
-1.93707e-08 0 0
-1.94544e-08 0 0
-1.95181e-08 0 0
-1.95651e-08 0 0
-1.95992e-08 0 0
-1.96235e-08 0 0
-1.96406e-08 0 0
-1.96526e-08 0 0
-1.9661e-08 0 0
-1.96667e-08 0 0
-1.96708e-08 0 0
-1.96735e-08 0 0
-1.96755e-08 0 0
-1.96769e-08 0 0
-1.96778e-08 0 0
-1.96785e-08 0 0
-1.9679e-08 0 0
-1.96794e-08 0 0
-1.96797e-08 0 0
-1.96802e-08 0 0
-1.96811e-08 0 0
-1.96829e-08 0 0
0.00197535 0 0
0 0 5.27565e-07
1.71964e-12 0 -1.89282e-10
3.96905e-09 0 2.10685e-09
1.19246e-08 0 1.31183e-08
-2.5232e-08 0 1.04735e-08
6.28046e-09 0 -1.74388e-10
1.19634e-08 0 -5.74629e-10
1.12748e-08 0 -2.22022e-09
1.31913e-08 0 -2.5861e-09
1.53315e-08 0 -1.63964e-09
1.85031e-08 0 -8.87649e-10
2.28871e-08 0 -8.03066e-10
2.44893e-08 0 -7.09578e-10
1.92695e-08 0 -2.17818e-10
8.38407e-09 0 1.54911e-10
-3.21085e-09 0 3.13236e-11
-1.21942e-08 0 -2.12864e-10
-1.87215e-08 0 -1.3316e-10
-2.43324e-08 0 2.51612e-10
-2.99137e-08 0 6.59991e-10
-3.53888e-08 0 8.86606e-10
-4.02948e-08 0 8.99471e-10
-4.42761e-08 0 7.69865e-10
-4.72364e-08 0 5.85537e-10
-4.92785e-08 0 4.07362e-10
-5.05958e-08 0 2.63537e-10
-5.13905e-08 0 1.59716e-10
-5.1834e-08 0 9.05251e-11
-5.20556e-08 0 4.72788e-11
-5.21453e-08 0 2.17881e-11
-5.21622e-08 0 7.67359e-12
-5.21431e-08 0 4.62868e-13
-5.21094e-08 0 -2.7726e-12
-5.20729e-08 0 -3.85214e-12
-5.20394e-08 0 -3.85402e-12
-5.20112e-08 0 -3.38684e-12
-5.19886e-08 0 -2.77432e-12
-5.19713e-08 0 -2.17465e-12
-5.19585e-08 0 -1.65429e-12
-5.19492e-08 0 -1.23187e-12
-5.19426e-08 0 -9.02681e-13
-5.19381e-08 0 -6.52161e-13
-5.19351e-08 0 -4.64309e-13
-5.19331e-08 0 -3.24255e-13
-5.19318e-08 0 -2.16169e-13
-5.19309e-08 0 -1.30647e-13
-5.19305e-08 0 -6.48882e-14
-5.19306e-08 0 -4.55488e-14
-5.19316e-08 0 1.0115e-14
-5.19343e-08 0 1.03999e-12
0.00560743 0 -5.4008e-09
0.0036 -3.04738e-07 -6.26369e-08
0.0035998 -0.00138218 -2.08967e-05
0.00671829 -0.0039048 0.000106586
0.0136035 -0.00592662 -0.000560623
0.0235465 -0.014414 -0.00431932
0.0462576 -0.0132537 -0.00488018
0.0497412 -0.00185664 -0.00165006
0.049482 0.00269391 -0.000173004
0.0444895 0.00501877 0.00055147
0.0388674 0.00518346 0.000519341
0.0337301 0.00451776 0.000235875
0.0294052 0.00363206 -3.83063e-05
0.0259906 0.00273443 -0.000222757
0.0234241 0.00192476 -0.000308288
0.0215378 0.00127845 -0.000308403
0.0201495 0.000825764 -0.000248813
0.0191212 0.000540439 -0.000164994
0.0183619 0.000368096 -8.85554e-05
0.01781 0.00025941 -3.52631e-05
0.0174193 0.000184181 -5.66765e-06
0.0171516 0.000128445 6.99144e-06
0.0169749 8.6663e-05 1.01397e-05
0.0168627 5.61665e-05 9.08031e-06
0.0167945 3.4819e-05 6.77742e-06
0.0167549 2.05301e-05 4.55917e-06
0.0167333 1.13793e-05 2.85317e-06
0.0167224 5.77502e-06 1.68378e-06
0.0167177 2.50712e-06 9.39464e-07
0.0167164 7.13768e-07 4.91518e-07
0.0167166 -1.87911e-07 2.34892e-07
0.0167176 -5.75449e-07 9.52115e-08
0.0167187 -6.83815e-07 2.38924e-08
0.0167198 -6.53412e-07 -9.1649e-09
0.0167208 -5.64296e-07 -2.18394e-08
0.0167215 -4.59428e-07 -2.43499e-08
0.0167221 -3.59867e-07 -2.23041e-08
0.0167226 -2.74332e-07 -1.86296e-08
0.0167229 -2.05009e-07 -1.47506e-08
0.0167232 -1.50939e-07 -1.12799e-08
0.0167234 -1.09895e-07 -8.41359e-09
0.0167235 -7.93721e-08 -6.14866e-09
0.0167236 -5.70582e-08 -4.41053e-09
0.0167236 -4.10218e-08 -3.11695e-09
0.0167237 -2.97343e-08 -2.17962e-09
0.0167237 -2.2076e-08 -1.53213e-09
0.0167238 -1.72492e-08 -1.0476e-09
0.0167238 -1.47382e-08 -3.40777e-10
0.0167238 -1.45691e-08 1.91148e-09
0.0167238 -2.1267e-08 5.8264e-09
0.0167239 -6.38973e-08 -6.71404e-09
0.016724 -1.00388e-07 -2.13985e-08
0.01 -1.3778e-07 -1.43466e-06
0.0100007 -0.00299011 -0.000596631
0.0147927 -0.00993604 -0.000782444
0.0241542 -0.0177039 -0.00127166
0.0384585 -0.0324015 -0.00337079
0.0590534 -0.0246685 -0.00081525
0.0563135 -0.00266632 0.0031597
0.055758 0.00515519 0.00336566
0.0499789 0.0101687 0.00295856
0.044491 0.0103545 0.00202886
0.0399766 0.00929981 0.00106066
0.0362589 0.00786131 0.000316966
0.0332845 0.00631788 -0.000192726
0.0310023 0.00487215 -0.000477324
0.0292547 0.00365156 -0.00054726
0.0279082 0.00268372 -0.000462948
0.0268834 0.00193902 -0.000313961
0.0261259 0.00137633 -0.000172886
0.0255857 0.000957841 -7.311e-05
0.0252147 0.000651553 -1.65198e-05
0.02497 0.000431564 8.88462e-06
0.0248159 0.000277265 1.64282e-05
0.024724 0.000172096 1.57371e-05
0.0246727 0.000102676 1.22976e-05
0.0246467 5.83932e-05 8.65587e-06
0.0246356 3.11533e-05 5.71128e-06
0.0246325 1.50578e-05 3.60363e-06
0.0246334 5.99447e-06 2.19759e-06
0.024636 1.20983e-06 1.30219e-06
0.024639 -1.07346e-06 7.51094e-07
0.0246419 -1.96342e-06 4.2123e-07
0.0246443 -2.12665e-06 2.28717e-07
0.0246462 -1.94854e-06 1.19174e-07
0.0246477 -1.64125e-06 5.85531e-08
0.0246488 -1.31392e-06 2.61096e-08
0.0246497 -1.01682e-06 9.49903e-09
0.0246503 -7.68273e-07 1.53807e-09
0.0246507 -5.70372e-07 -1.85892e-09
0.024651 -4.17952e-07 -2.95781e-09
0.0246513 -3.03338e-07 -2.97605e-09
0.0246514 -2.18726e-07 -2.53782e-09
0.0246515 -1.57235e-07 -1.95668e-09
0.0246516 -1.1327e-07 -1.40823e-09
0.0246517 -8.25031e-08 -9.51348e-10
0.0246517 -6.17757e-08 -5.83028e-10
0.0246517 -4.9113e-08 -1.09977e-10
0.0246518 -4.40819e-08 1.26539e-09
0.0246518 -5.23705e-08 4.48575e-09
0.0246519 -8.56918e-08 6.93135e-09
0.024652 -1.65434e-07 -2.01919e-08
0.024652 -2.20702e-07 -4.76091e-08
0.0148 -9.47024e-07 -1.72017e-06
0.0148023 -0.00528918 -0.0011279
0.0203563 -0.0163834 -0.00243546
0.027457 -0.0286992 -0.00394431
0.0320641 -0.0459812 -0.00575574
0.0305567 -0.0283955 -0.00139504
0.0268077 -1.20968e-05 0.00328947
0.0262559 0.00709741 0.00350386
0.0298146 0.0145317 0.00338779
0.0301849 0.0140267 0.00239405
0.0293823 0.0122787 0.00140732
0.0285465 0.0104377 0.000558806
0.0278934 0.00850798 -4.41926e-05
0.0275548 0.00664177 -0.000381818
0.0274242 0.00501319 -0.000466788
0.0274076 0.00366676 -0.000387023
0.0274513 0.00260133 -0.000246232
0.027521 0.0017962 -0.000115866
0.0275945 0.00121123 -2.59084e-05
0.0276613 0.000797461 2.22264e-05
0.0277193 0.000510339 3.98254e-05
0.0277696 0.000315095 4.00478e-05
0.0278131 0.000185839 3.28887e-05
0.0278502 0.000103159 2.4191e-05
0.0278809 5.24188e-05 1.65873e-05
0.0279055 2.27848e-05 1.08334e-05
0.0279245 6.53123e-06 6.82467e-06
0.0279388 -1.61432e-06 4.17767e-06
0.0279493 -5.09145e-06 2.49517e-06
0.0279568 -6.04668e-06 1.45672e-06
0.0279621 -5.75992e-06 8.31349e-07
0.0279658 -4.95623e-06 4.62991e-07
0.0279684 -4.0207e-06 2.50619e-07
0.0279702 -3.1391e-06 1.30867e-07
0.0279714 -2.38623e-06 6.49854e-08
0.0279723 -1.77908e-06 2.9798e-08
0.0279728 -1.30736e-06 1.17197e-08
0.0279732 -9.50287e-07 2.94428e-09
0.0279735 -6.85128e-07 -9.23088e-10
0.0279737 -4.91109e-07 -2.29939e-09
0.0279738 -3.50871e-07 -2.47311e-09
0.0279739 -2.5067e-07 -2.11539e-09
0.027974 -1.80047e-07 -1.59516e-09
0.027974 -1.31378e-07 -1.05066e-09
0.027974 -9.94166e-08 -3.99011e-10
0.0279741 -8.1759e-08 5.90216e-10
0.0279741 -7.93799e-08 2.61574e-09
0.0279741 -9.69231e-08 4.63047e-09
0.0279742 -1.40319e-07 -1.67086e-09
0.0279742 -2.01588e-07 -4.15075e-08
0.0279742 -2.34065e-07 -7.4445e-08
0.018 -1.91035e-06 -1.67572e-06
0.0180029 -0.00697084 -0.00188184
0.0207431 -0.0188934 -0.00491855
0.020674 -0.0248166 -0.0063253
0.0160561 -0.0268704 -0.00760686
-1.57316e-06 -0.0139859 -0.00431927
9.60371e-05 2.61661e-05 9.02278e-07
-3.30648e-05 3.44096e-05 0.000646069
0.00662238 0.00415597 0.00141041
0.0136009 0.0094749 0.00136472
0.0170436 0.01037 0.000946789
0.0187859 0.00941099 0.000395276
0.020454 0.00778028 -9.28389e-05
0.0221446 0.00597029 -0.000342263
0.0236886 0.00437286 -0.000378301
0.0250093 0.00306591 -0.000298407
0.0260948 0.00205781 -0.000182421
0.0269539 0.00132956 -7.61386e-05
0.0276055 0.000831854 -6.83023e-08
0.0280808 0.00050276 4.18565e-05
0.0284177 0.000288767 5.60754e-05
0.0286527 0.000152164 5.31772e-05
0.0288151 6.80036e-05 4.2755e-05
0.0289265 1.9193e-05 3.10454e-05
0.0290022 -6.5341e-06 2.10223e-05
0.0290531 -1.79952e-05 1.35278e-05
0.0290868 -2.12765e-05 8.36877e-06
0.0291088 -2.03298e-05 5.01173e-06
0.0291231 -1.75464e-05 2.91602e-06
0.0291321 -1.42601e-05 1.65019e-06
0.0291379 -1.11397e-05 9.06993e-07
0.0291415 -8.46446e-06 4.81943e-07
0.0291438 -6.30352e-06 2.45178e-07
0.0291452 -4.62441e-06 1.17052e-07
0.0291461 -3.35435e-06 5.00943e-08
0.0291466 -2.41216e-06 1.6707e-08
0.029147 -1.72324e-06 1.21789e-09
0.0291472 -1.22501e-06 -5.06774e-09
0.0291473 -8.67803e-07 -6.85298e-09
0.0291474 -6.13539e-07 -6.60281e-09
0.0291475 -4.33763e-07 -5.54991e-09
0.0291475 -3.0764e-07 -4.28156e-09
0.0291475 -2.20199e-07 -3.07033e-09
0.0291476 -1.61035e-07 -1.96186e-09
0.0291476 -1.23591e-07 -8.39341e-10
0.0291476 -1.04352e-07 2.061e-10
0.0291476 -1.01432e-07 1.04453e-09
0.0291476 -1.1119e-07 -1.2732e-10
0.0291476 -1.29963e-07 -1.54747e-08
0.0291476 -1.41395e-07 -5.93015e-08
0.0291475 -1.41386e-07 -8.93379e-08
0.0196 -2.75925e-06 -2.53273e-06
0.019601 -0.00586518 -0.00274495
0.0190636 -0.013085 -0.00646704
0.0159734 -0.0160746 -0.00667126
0.0109489 -0.0150493 -0.00668192
0.00176325 -0.00619723 -0.00503083
7.15957e-05 -6.57496e-05 -0.00129564
3.26848e-05 -3.26848e-05 -3.96177e-08
-3.2454e-05 3.36756e-05 0.000250024
0.00400196 0.0028679 0.00053002
0.00920737 0.00674371 0.000457898
0.0121307 0.00707815 0.000110162
0.0153777 0.00550055 -0.000264882
0.0185324 0.00386483 -0.000411551
0.0212321 0.00256036 -0.000394162
0.0234161 0.00155637 -0.000309986
0.0251373 0.000827972 -0.000209435
0.0264583 0.000355492 -0.000113358
0.0274335 8.75876e-05 -3.52355e-05
0.0281223 -4.54482e-05 1.579e-05
0.0285902 -0.000102309 3.94393e-05
0.0288987 -0.000119499 4.31874e-05
0.0290979 -0.000116416 3.65914e-05
0.0292242 -0.000103357 2.6918e-05
0.029303 -8.63083e-05 1.8044e-05
0.0293511 -6.88982e-05 1.13094e-05
0.02938 -5.31449e-05 6.72565e-06
0.029397 -3.99294e-05 3.82443e-06
0.0294067 -2.94045e-05 2.08406e-06
0.0294122 -2.13279e-05 1.08459e-06
0.0294151 -1.52952e-05 5.32769e-07
0.0294167 -1.08773e-05 2.4003e-07
0.0294174 -7.68819e-06 9.17783e-08
0.0294178 -5.41017e-06 2.12674e-08
0.0294179 -3.79525e-06 -9.01408e-09
0.0294179 -2.65664e-06 -1.94645e-08
0.0294179 -1.85703e-06 -2.08049e-08
0.0294179 -1.29713e-06 -1.84504e-08
0.0294178 -9.06024e-07 -1.49948e-08
0.0294178 -6.33459e-07 -1.15783e-08
0.0294178 -4.44081e-07 -8.61139e-09
0.0294178 -3.13171e-07 -6.17678e-09
0.0294177 -2.23655e-07 -4.26282e-09
0.0294177 -1.63925e-07 -2.82322e-09
0.0294177 -1.25967e-07 -1.89103e-09
0.0294177 -1.03339e-07 -1.78305e-09
0.0294177 -8.99912e-08 -2.84322e-09
0.0294177 -7.87873e-08 -6.09858e-09
0.0294176 -6.17158e-08 -2.44127e-08
0.0294176 -2.34081e-08 -6.51166e-08
0.0294175 3.94443e-09 -8.99236e-08
0.0196 -1.32375e-06 -3.52116e-06
0.0195999 -0.00366481 -0.00312235
0.0187924 -0.0080228 -0.00650441
0.0175492 -0.00801163 -0.00604907
0.0132533 -0.0041685 -0.0055513
0.00915812 0.00267254 -0.00531163
0.00616865 0.00318873 -0.00307758
7.17503e-05 -5.97488e-05 -0.000653926
2.72949e-05 -2.72949e-05 -1.25128e-07
-3.19047e-05 3.30032e-05 8.86651e-05
0.0028326 0.0021067 0.00034937
0.00723631 0.00335266 0.000262094
0.0125575 0.00171366 -0.000138193
0.0172135 0.000519786 -0.000306602
0.0208086 -0.000139761 -0.000316923
0.023461 -0.000544308 -0.000274492
0.0253878 -0.000779268 -0.000220635
0.0267618 -0.000849113 -0.000158686
0.0277053 -0.000786332 -9.34778e-05
0.0283199 -0.000654956 -3.87339e-05
0.0286985 -0.000510993 -4.04569e-06
0.0289197 -0.000383656 1.14066e-05
0.0290428 -0.000281324 1.44495e-05
0.0291076 -0.000202806 1.19283e-05
0.0291395 -0.000144161 8.11504e-06
0.0291535 -0.000101255 4.86729e-06
0.0291583 -7.04313e-05 2.63435e-06
0.0291588 -4.86354e-05 1.28271e-06
0.0291575 -3.34205e-05 5.3969e-07
0.0291557 -2.29008e-05 1.66691e-07
0.0291539 -1.56744e-05 -9.52945e-10
0.0291523 -1.07292e-05 -6.34646e-08
0.0291511 -7.35078e-06 -7.67734e-08
0.0291502 -5.04318e-06 -6.9884e-08
0.0291494 -3.46568e-06 -5.67338e-08
0.0291489 -2.38575e-06 -4.338e-08
0.0291485 -1.64524e-06 -3.20243e-08
0.0291483 -1.13669e-06 -2.31292e-08
0.0291481 -7.87017e-07 -1.64664e-08
0.0291479 -5.4648e-07 -1.15995e-08
0.0291478 -3.81161e-07 -8.08377e-09
0.0291477 -2.67909e-07 -5.56693e-09
0.0291477 -1.90785e-07 -3.86526e-09
0.0291477 -1.3846e-07 -2.90514e-09
0.0291476 -1.02367e-07 -2.7263e-09
0.0291476 -7.53916e-08 -3.44978e-09
0.0291476 -5.1044e-08 -5.09088e-09
0.0291475 -2.20267e-08 -8.14338e-09
0.0291475 2.34303e-08 -2.35023e-08
0.0291474 9.99438e-08 -5.72357e-08
0.0291473 1.4772e-07 -7.76293e-08
0.018 -8.49435e-07 -3.50676e-06
0.0180009 -0.00199189 -0.00304457
0.0183272 -0.00381971 -0.00614784
0.0184016 -0.00256796 -0.0052867
0.0174085 0.000744009 -0.00421671
0.0171483 0.00716293 -0.00396778
0.017883 0.0126143 -0.00296348
0.0109965 0.00693469 -0.00145686
7.32275e-05 -4.62701e-05 -0.000424148
-2.50748e-05 -5.38056e-05 5.45454e-07
7.73196e-06 -0.000620086 0.000743216
0.00841233 -0.0026748 0.00108863
0.015846 -0.00428708 0.000482755
0.0208997 -0.00409808 0.000196978
0.0240747 -0.00337375 8.13855e-05
0.0260102 -0.00271993 1.78927e-06
0.0271592 -0.00220982 -7.53725e-05
0.0278045 -0.00176519 -0.000124363
0.0281265 -0.0013494 -0.000127412
0.0282502 -0.000981385 -9.84677e-05
0.0282644 -0.000685783 -6.24201e-05
0.0282282 -0.000466882 -3.43824e-05
0.0281764 -0.000313045 -1.73279e-05
0.0281262 -0.000208086 -8.44766e-06
0.0280843 -0.000137653 -4.23652e-06
0.0280521 -9.08649e-05 -2.30095e-06
0.0280285 -5.99871e-05 -1.3738e-06
0.0280117 -3.96844e-05 -8.80244e-07
0.028 -2.63477e-05 -5.83611e-07
0.0279919 -1.75736e-05 -3.89694e-07
0.0279863 -1.17809e-05 -2.58413e-07
0.0279825 -7.93794e-06 -1.69311e-07
0.0279799 -5.37435e-06 -1.09564e-07
0.0279781 -3.65451e-06 -7.01513e-08
0.0279768 -2.4945e-06 -4.45579e-08
0.027976 -1.70832e-06 -2.81567e-08
0.0279754 -1.17331e-06 -1.77513e-08
0.027975 -8.08018e-07 -1.11945e-08
0.0279747 -5.58023e-07 -7.07863e-09
0.0279745 -3.86703e-07 -4.49878e-09
0.0279744 -2.69238e-07 -2.8857e-09
0.0279743 -1.88588e-07 -1.91532e-09
0.0279742 -1.32784e-07 -1.45912e-09
0.0279742 -9.31278e-08 -1.44386e-09
0.0279741 -6.29337e-08 -1.8363e-09
0.0279741 -3.64909e-08 -2.62365e-09
0.0279741 -8.09007e-09 -3.68802e-09
0.027974 2.91779e-08 -5.38435e-09
0.027974 8.87753e-08 -1.42654e-08
0.027974 1.81332e-07 -3.9081e-08
0.027974 2.36138e-07 -5.61393e-08
0.0148 -4.76983e-07 -3.10661e-06
0.0148015 -0.00102203 -0.0028212
0.0162405 -0.00159893 -0.00541382
0.017835 5.28578e-05 -0.00429832
0.0192095 0.00327419 -0.0031017
0.0209939 0.00741938 -0.00287701
0.0248152 0.0129789 -0.00240995
0.0281022 0.0195362 -0.00148878
0.0230896 0.0113327 -0.000322548
0.0235279 2.94214e-11 0.000630329
0.0266751 -0.00667056 0.00155891
0.0302128 -0.0130423 0.00210985
0.0311826 -0.0110398 0.00165525
0.0306675 -0.00781064 0.00119113
0.0296268 -0.00523331 0.000764076
0.0285376 -0.00350219 0.000387971
0.0275794 -0.00236927 8.8055e-05
0.0267962 -0.00159507 -9.74069e-05
0.0261835 -0.00104848 -0.000162889
0.0257213 -0.000669953 -0.000148524
0.0253839 -0.000420382 -0.000104975
0.0251448 -0.000262908 -6.37827e-05
0.0249798 -0.000165706 -3.51696e-05
0.0248682 -0.00010577 -1.82128e-05
0.024794 -6.84053e-05 -9.06162e-06
0.0247453 -4.47662e-05 -4.39408e-06
0.0247134 -2.95975e-05 -2.0911e-06
0.0246925 -1.97414e-05 -9.75768e-07
0.0246789 -1.32667e-05 -4.41459e-07
0.02467 -8.97195e-06 -1.87935e-07
0.024664 -6.09908e-06 -6.95212e-08
0.0246601 -4.16344e-06 -1.60123e-08
0.0246574 -2.85149e-06 6.47035e-09
0.0246556 -1.95798e-06 1.43504e-08
0.0246544 -1.34716e-06 1.56156e-08
0.0246536 -9.28405e-07 1.41365e-08
0.024653 -6.40734e-07 1.17545e-08
0.0246527 -4.42844e-07 9.30587e-09
0.0246524 -3.06601e-07 7.13017e-09
0.0246522 -2.12719e-07 5.32668e-09
0.0246521 -1.47866e-07 3.88669e-09
0.024652 -1.02696e-07 2.74889e-09
0.0246519 -7.05026e-08 1.8224e-09
0.0246519 -4.62573e-08 1.05736e-09
0.0246518 -2.5857e-08 4.1392e-10
0.0246518 -5.48894e-09 -1.20147e-10
0.0246518 1.90761e-08 -3.71751e-10
0.0246518 5.2678e-08 -6.88878e-10
0.0246518 1.03976e-07 -3.79139e-09
0.0246518 1.76843e-07 -2.14748e-08
0.0246519 2.18115e-07 -3.63595e-08
0.01 -9.1009e-07 -2.81112e-06
0.0100007 -0.00062722 -0.00229788
0.0113374 -0.000688547 -0.00414032
0.013244 0.000592576 -0.00293049
0.015748 0.00256813 -0.00185667
0.01972 0.00560682 -0.00186543