# vtk DataFile Version 2.0
Tobias Weinzierl: CPU, Manycore and Cluster Computing
ASCII

DATASET STRUCTURED_POINTS
DIMENSIONS  51 11 6

ORIGIN 0 0 0 

SPACING 0.1 0.1 0.1 

POINT_DATA 3366

VECTORS velocity float
0 0 0
-1.31125e-11 0 0
-3.29885e-07 0 0
-4.90245e-07 0 0
-4.24458e-07 0 0
-1.1234e-07 0 0
-7.61458e-08 0 0
-1.6431e-07 0 0
-2.78015e-07 0 0
-3.58994e-07 0 0
-3.82113e-07 0 0
-3.76103e-07 0 0
-3.65848e-07 0 0
-3.59795e-07 0 0
-3.5867e-07 0 0
-3.60749e-07 0 0
-3.64075e-07 0 0
-3.67395e-07 0 0
-3.70159e-07 0 0
-3.72249e-07 0 0
-3.73742e-07 0 0
-3.7477e-07 0 0
-3.75461e-07 0 0
-3.7592e-07 0 0
-3.76222e-07 0 0
-3.76422e-07 0 0
-3.76554e-07 0 0
-3.76642e-07 0 0
-3.76701e-07 0 0
-3.76743e-07 0 0
-3.76772e-07 0 0
-3.76793e-07 0 0
-3.7681e-07 0 0
-3.76823e-07 0 0
-3.76833e-07 0 0
-3.76843e-07 0 0
-3.7685e-07 0 0
-3.76858e-07 0 0
-3.76864e-07 0 0
-3.7687e-07 0 0
-3.76876e-07 0 0
-3.76882e-07 0 0
-3.76888e-07 0 0
-3.76894e-07 0 0
-3.76901e-07 0 0
-3.76907e-07 0 0
-3.76913e-07 0 0
-3.7692e-07 0 0
-3.76931e-07 0 0
-3.76973e-07 0 0
0.0032237 0 0
0 4.92181e-07 0
7.55185e-11 1.95473e-07 0
-6.4802e-07 2.96272e-07 0
-9.6602e-07 1.53917e-07 0
-7.76275e-07 4.7744e-08 0
-2.22612e-07 7.27229e-08 0
-1.184e-07 1.82143e-07 0
-2.16759e-07 1.86253e-07 0
-3.3961e-07 1.40842e-07 0
-4.75506e-07 8.18189e-08 0
-5.29293e-07 2.75529e-08 0
-5.43175e-07 3.96689e-09 0
-5.56164e-07 -4.55928e-10 0
-5.73953e-07 1.42559e-09 0
-5.94249e-07 4.23496e-09 0
-6.13899e-07 5.86989e-09 0
-6.30536e-07 6.02176e-09 0
-6.43328e-07 5.25481e-09 0
-6.52533e-07 4.16176e-09 0
-6.58862e-07 3.09792e-09 0
-6.63084e-07 2.21292e-09 0
-6.65843e-07 1.53751e-09 0
-6.67626e-07 1.04883e-09 0
-6.68773e-07 7.07329e-10 0
-6.6951e-07 4.74062e-10 0
-6.69987e-07 3.17006e-10 0
-6.70298e-07 2.1213e-10 0
-6.70505e-07 1.42353e-10 0
-6.70644e-07 9.59343e-11 0
-6.70739e-07 6.49784e-11 0
-6.70807e-07 4.42439e-11 0
-6.70857e-07 3.0277e-11 0
-6.70894e-07 2.08085e-11 0
-6.70924e-07 1.43473e-11 0
-6.70948e-07 9.91114e-12 0
-6.70968e-07 6.84987e-12 0
-6.70986e-07 4.73062e-12 0
-6.71001e-07 3.26331e-12 0
-6.71015e-07 2.25289e-12 0
-6.71028e-07 1.5691e-12 0
-6.7104e-07 1.12861e-12 0
-6.71052e-07 8.8681e-13 0
-6.71064e-07 8.40181e-13 0
-6.71077e-07 1.04542e-12 0
-6.71091e-07 1.65917e-12 0
-6.71104e-07 2.98888e-12 0
-6.71118e-07 5.7641e-12 0
-6.71134e-07 1.28152e-11 0
-6.7116e-07 3.59677e-11 0
-6.71231e-07 1.02376e-10 0
0.00821274 -4.37073e-07 0
0 6.65223e-08 0
3.11791e-10 2.49583e-07 0
-5.4169e-07 3.17588e-07 0
-8.23851e-07 8.50336e-08 0
-4.64621e-07 5.22683e-08 0
-1.57946e-07 1.15049e-07 0
-2.23982e-07 1.56555e-07 0
-3.22494e-07 5.34779e-08 0
-2.97852e-07 -3.95625e-09 0
-3.12583e-07 5.51697e-08 0
-3.23048e-07 9.02148e-08 0
-3.28348e-07 1.15375e-07 0
-3.531e-07 1.12569e-07 0
-3.83267e-07 9.01217e-08 0
-4.13661e-07 6.64455e-08 0
-4.40794e-07 4.74958e-08 0
-4.6228e-07 3.31969e-08 0
-4.77823e-07 2.27114e-08 0
-4.88394e-07 1.52426e-08 0
-4.95296e-07 1.00703e-08 0
-4.99689e-07 6.57584e-09 0
-5.02446e-07 4.26184e-09 0
-5.04168e-07 2.75253e-09 0
-5.05246e-07 1.77811e-09 0
-5.05926e-07 1.15256e-09 0
-5.06361e-07 7.51589e-10 0
-5.06645e-07 4.9403e-10 0
-5.06833e-07 3.27747e-10 0
-5.06962e-07 2.1959e-10 0
-5.07051e-07 1.48592e-10 0
-5.07116e-07 1.01505e-10 0
-5.07164e-07 6.99346e-11 0
-5.07201e-07 4.85369e-11 0
-5.07231e-07 3.38833e-11 0
-5.07255e-07 2.37545e-11 0
-5.07276e-07 1.6699e-11 0
-5.07294e-07 1.17568e-11 0
-5.0731e-07 8.28674e-12 0
-5.07324e-07 5.85793e-12 0
-5.07337e-07 4.18333e-12 0
-5.07349e-07 3.08165e-12 0
-5.07361e-07 2.46182e-12 0
-5.07374e-07 2.32997e-12 0
-5.07387e-07 2.83443e-12 0
-5.074e-07 4.42088e-12 0
-5.07412e-07 8.19737e-12 0
-5.07424e-07 1.63359e-11 0
-5.07432e-07 3.20637e-11 0
-5.07442e-07 5.73069e-11 0
-5.07479e-07 9.77214e-11 0
0.0102762 -5.0457e-07 0
0 -5.56118e-07 0
4.67917e-10 1.46185e-07 0
-4.33545e-07 6.12255e-08 0
-7.3696e-07 -2.47302e-07 0
-3.56241e-07 -1.65919e-07 0
-4.76748e-08 -3.7204e-09 0
-1.81708e-07 -1.31494e-10 0
-2.70046e-07 -2.30024e-07 0
-5.60534e-07 -4.08621e-07 0
-5.20997e-07 -2.19165e-07 0
-4.71057e-07 1.7665e-08 0
-4.31518e-07 1.56956e-07 0
-4.07651e-07 1.84537e-07 0
-3.88333e-07 1.48881e-07 0
-3.81439e-07 1.07383e-07 0
-3.84263e-07 7.44961e-08 0
-3.90378e-07 5.02676e-08 0
-3.96095e-07 3.31352e-08 0
-4.00309e-07 2.14564e-08 0
-4.03094e-07 1.37296e-08 0
-4.04841e-07 8.7297e-09 0
-4.05915e-07 5.543e-09 0
-4.06577e-07 3.52984e-09 0
-4.06994e-07 2.26231e-09 0
-4.07265e-07 1.46315e-09 0
-4.07447e-07 9.5662e-10 0
-4.07573e-07 6.32879e-10 0
-4.07664e-07 4.2377e-10 0
-4.07731e-07 2.87085e-10 0
-4.07782e-07 1.96608e-10 0
-4.07822e-07 1.35956e-10 0
-4.07854e-07 9.47968e-11 0
-4.07881e-07 6.6544e-11 0
-4.07903e-07 4.69496e-11 0
-4.07923e-07 3.32392e-11 0
-4.0794e-07 2.35774e-11 0
-4.07956e-07 1.67347e-11 0
-4.0797e-07 1.18779e-11 0
-4.07983e-07 8.43868e-12 0
-4.07995e-07 6.03146e-12 0
-4.08007e-07 4.40497e-12 0
-4.08018e-07 3.42094e-12 0
-4.0803e-07 3.05955e-12 0
-4.08042e-07 3.43863e-12 0
-4.08053e-07 4.78248e-12 0
-4.08062e-07 7.40021e-12 0
-4.08068e-07 1.20487e-11 0
-4.08065e-07 2.04985e-11 0
-4.08055e-07 3.57657e-11 0
-4.08068e-07 6.05295e-11 0
0.0106099 -3.66461e-07 0
0 -1.0682e-06 0
4.32074e-10 1.4776e-08 0
-4.44994e-07 -1.29064e-07 0
-8.03086e-07 -2.97223e-07 0
-5.79165e-07 -1.85776e-07 0
-1.68957e-10 -3.26543e-08 0
-1.42208e-10 -6.01077e-10 0
2.68078e-10 -5.13981e-10 0
-3.24277e-07 -2.38559e-07 0
-5.89541e-07 -3.49604e-07 0
-5.47173e-07 -8.58088e-08 0
-5.45269e-07 1.07847e-07 0
-5.27033e-07 1.54965e-07 0
-4.77998e-07 1.27313e-07 0
-4.36889e-07 9.49947e-08 0
-4.13137e-07 6.81196e-08 0
-4.00999e-07 4.65287e-08 0
-3.94791e-07 3.05153e-08 0
-3.91438e-07 1.9512e-08 0
-3.8952e-07 1.2333e-08 0
-3.8839e-07 7.78785e-09 0
-3.87724e-07 4.95025e-09 0
-3.87342e-07 3.18304e-09 0
-3.87133e-07 2.07606e-09 0
-3.87027e-07 1.37471e-09 0
-3.86981e-07 9.23801e-10 0
-3.86968e-07 6.29212e-10 0
-3.86972e-07 4.33658e-10 0
-3.86984e-07 3.01896e-10 0
-3.87e-07 2.11925e-10 0
-3.87018e-07 1.49768e-10 0
-3.87035e-07 1.06395e-10 0
-3.87051e-07 7.58692e-11 0
-3.87067e-07 5.42327e-11 0
-3.87082e-07 3.88087e-11 0
-3.87096e-07 2.7766e-11 0
-3.87109e-07 1.98374e-11 0
-3.87122e-07 1.41379e-11 0
-3.87133e-07 1.00442e-11 0
-3.87144e-07 7.11616e-12 0
-3.87155e-07 5.0447e-12 0
-3.87166e-07 3.61409e-12 0
-3.87177e-07 2.66918e-12 0
-3.87188e-07 2.10716e-12 0
-3.87198e-07 1.96502e-12 0
-3.87206e-07 2.5494e-12 0
-3.87209e-07 4.48396e-12 0
-3.87204e-07 8.73506e-12 0
-3.87193e-07 1.68132e-11 0
-3.87205e-07 2.931e-11 0
0.0106486 -1.85346e-07 0
0 -9.51015e-07 0
3.87686e-10 -5.66133e-08 0
-4.52086e-07 -1.68895e-07 0
-8.318e-07 -2.47707e-07 0
-7.22184e-07 -2.48651e-07 0
-2.27181e-07 -1.13274e-07 0
-2.11015e-10 1.16003e-10 0
1.53989e-10 -1.53989e-10 0
1.56826e-10 -3.80922e-10 0
-2.64615e-07 -1.3975e-07 0
-3.98192e-07 -9.86378e-08 0
-5.41809e-07 1.42259e-07 0
-6.19244e-07 1.66511e-07 0
-5.71862e-07 1.04673e-07 0
-5.00189e-07 6.54895e-08 0
-4.49984e-07 4.32116e-08 0
-4.21076e-07 2.80303e-08 0
-4.05108e-07 1.76891e-08 0
-3.96216e-07 1.1074e-08 0
-3.91189e-07 7.01602e-09 0
-3.88322e-07 4.55416e-09 0
-3.86681e-07 3.04085e-09 0
-3.85745e-07 2.08404e-09 0
-3.85212e-07 1.45822e-09 0
-3.84912e-07 1.03552e-09 0
-3.84745e-07 7.4248e-10 0
-3.84654e-07 5.35487e-10 0
-3.84606e-07 3.87471e-10 0
-3.84583e-07 2.80843e-10 0
-3.84574e-07 2.03706e-10 0
-3.84574e-07 1.47776e-10 0
-3.84578e-07 1.07168e-10 0
-3.84586e-07 7.7661e-11 0
-3.84595e-07 5.62073e-11 0
-3.84605e-07 4.06034e-11 0
-3.84616e-07 2.92526e-11 0
-3.84627e-07 2.09964e-11 0
-3.84638e-07 1.49913e-11 0
-3.84648e-07 1.062e-11 0
-3.84658e-07 7.4266e-12 0
-3.84669e-07 5.06877e-12 0
-3.84679e-07 3.2861e-12 0
-3.8469e-07 1.88765e-12 0
-3.84701e-07 7.46092e-13 0
-3.84711e-07 -2.32785e-13 0
-3.84719e-07 -1.13391e-12 0
-3.84723e-07 -1.98411e-12 0
-3.84717e-07 -2.53269e-12 0
-3.84706e-07 -2.08523e-12 0
-3.84716e-07 -5.09621e-13 0
0.0106518 7.50517e-10 0
0 -6.77172e-07 0
3.63111e-10 -9.77642e-08 0
-4.27631e-07 -2.1362e-07 0
-8.16748e-07 -1.88091e-07 0
-7.57133e-07 -1.35901e-07 0
-4.99677e-07 -1.64334e-07 0
-2.0384e-07 -1.00636e-07 0
-1.79693e-10 5.341e-11 0
1.05083e-10 -1.05083e-10 0
5.35664e-11 -2.61694e-10 0
-1.46207e-07 1.50557e-07 0
-4.79722e-07 3.29077e-07 0
-7.32743e-07 2.41734e-07 0
-6.91822e-07 7.53088e-08 0
-5.6194e-07 1.34559e-08 0
-4.73588e-07 1.47143e-09 0
-4.29213e-07 -1.00022e-10 0
-4.08265e-07 -4.02455e-11 0
-3.98159e-07 3.5261e-10 0
-3.93089e-07 7.31605e-10 0
-3.90449e-07 9.53956e-10 0
-3.89026e-07 1.00994e-09 0
-3.88233e-07 9.48866e-10 0
-3.87776e-07 8.26454e-10 0
-3.87505e-07 6.84118e-10 0
-3.87341e-07 5.46544e-10 0
-3.87239e-07 4.25675e-10 0
-3.87176e-07 3.25447e-10 0
-3.87137e-07 2.45433e-10 0
-3.87114e-07 1.83206e-10 0
-3.87102e-07 1.35696e-10 0
-3.87097e-07 9.98976e-11 0
-3.87097e-07 7.31763e-11 0
-3.87101e-07 5.33658e-11 0
-3.87106e-07 3.87514e-11 0
-3.87114e-07 2.80093e-11 0
-3.87122e-07 2.01334e-11 0
-3.87131e-07 1.4365e-11 0
-3.8714e-07 1.0133e-11 0
-3.8715e-07 7.00551e-12 0
-3.87159e-07 4.65186e-12 0
-3.87169e-07 2.81156e-12 0
-3.8718e-07 1.26222e-12 0
-3.87191e-07 -2.19341e-13 0
-3.87201e-07 -1.9162e-12 0
-3.8721e-07 -4.26482e-12 0
-3.87215e-07 -7.92252e-12 0
-3.87211e-07 -1.35304e-11 0
-3.872e-07 -2.12055e-11 0
-3.87211e-07 -3.06581e-11 0
0.0106486 1.86325e-07 0
0 -4.90807e-07 0
3.0181e-10 -1.28214e-07 0
-4.2079e-07 -2.3601e-07 0
-7.75972e-07 -1.61497e-07 0
-7.37831e-07 -8.01641e-08 0
-5.4733e-07 -8.53311e-08 0
-4.30454e-07 -2.17517e-07 0
-2.7753e-07 -1.58662e-07 0
-2.13682e-10 -1.04582e-10 0
-2.35324e-11 -3.43834e-10 0
1.47547e-10 3.05188e-07 0
-3.05748e-07 6.17086e-07 0
-6.58781e-07 3.68562e-07 0
-7.02275e-07 2.05057e-08 0
-5.7754e-07 -6.74914e-08 0
-4.80325e-07 -4.79787e-08 0
-4.35154e-07 -2.55478e-08 0
-4.17938e-07 -1.29713e-08 0
-4.11928e-07 -6.25038e-09 0
-4.09895e-07 -2.6446e-09 0
-4.09171e-07 -7.88698e-10 0
-4.08851e-07 8.72106e-11 0
-4.08651e-07 4.39527e-10 0
-4.08495e-07 5.30276e-10 0
-4.08364e-07 5.02278e-10 0
-4.08256e-07 4.29265e-10 0
-4.0817e-07 3.46947e-10 0
-4.08103e-07 2.70987e-10 0
-4.08054e-07 2.06951e-10 0
-4.08019e-07 1.55615e-10 0
-4.07995e-07 1.15722e-10 0
-4.07981e-07 8.53471e-11 0
-4.07973e-07 6.2538e-11 0
-4.07971e-07 4.5574e-11 0
-4.07972e-07 3.30426e-11 0
-4.07976e-07 2.38301e-11 0
-4.07982e-07 1.70788e-11 0
-4.07989e-07 1.21371e-11 0
-4.07997e-07 8.51141e-12 0
-4.08005e-07 5.82565e-12 0
-4.08014e-07 3.78529e-12 0
-4.08024e-07 2.14352e-12 0
-4.08034e-07 6.63746e-13 0
-4.08045e-07 -9.30243e-13 0
-4.08056e-07 -3.0324e-12 0
-4.08066e-07 -6.3132e-12 0
-4.08073e-07 -1.2024e-11 0
-4.08073e-07 -2.21602e-11 0
-4.08067e-07 -3.87674e-11 0
-4.08082e-07 -6.22902e-11 0
0.0106098 3.64599e-07 0
0 -4.55978e-07 0
2.22502e-10 -1.36382e-07 0
-4.44912e-07 -2.37551e-07 0
-7.56258e-07 -1.39632e-07 0
-7.48756e-07 -5.47578e-08 0
-6.13661e-07 -4.59795e-08 0
-4.83224e-07 -1.17221e-07 0
-5.04567e-07 -3.18255e-07 0
-4.06163e-07 -2.30712e-07 0
-5.71459e-07 6.92845e-12 0
-6.07572e-07 2.95844e-07 0
-3.86582e-07 6.57825e-07 0
-3.47387e-07 4.41412e-07 0
-4.72959e-07 2.2939e-08 0
-5.12124e-07 -1.05279e-07 0
-5.05449e-07 -7.21515e-08 0
-5.01272e-07 -3.27361e-08 0
-5.02457e-07 -1.27488e-08 0
-5.04818e-07 -4.35113e-09 0
-5.06591e-07 -1.0416e-09 0
-5.07569e-07 1.81868e-10 0
-5.07982e-07 5.6581e-10 0
-5.08075e-07 6.20522e-10 0
-5.08015e-07 5.55713e-10 0
-5.07896e-07 4.57447e-10 0
-5.07767e-07 3.60022e-10 0
-5.0765e-07 2.7569e-10 0
-5.07554e-07 2.07318e-10 0
-5.07479e-07 1.53939e-10 0
-5.07424e-07 1.1326e-10 0
-5.07384e-07 8.27602e-11 0
-5.07357e-07 6.01494e-11 0
-5.07341e-07 4.35202e-11 0
-5.07332e-07 3.1359e-11 0
-5.07328e-07 2.25007e-11 0
-5.07329e-07 1.60667e-11 0
-5.07332e-07 1.14013e-11 0
-5.07337e-07 8.01755e-12 0
-5.07344e-07 5.55298e-12 0
-5.07351e-07 3.73264e-12 0
-5.0736e-07 2.33811e-12 0
-5.07369e-07 1.17705e-12 0
-5.07379e-07 4.66257e-14 0
-5.07391e-07 -1.31885e-12 0
-5.07403e-07 -3.32934e-12 0
-5.07414e-07 -6.70434e-12 0
-5.07423e-07 -1.29706e-11 0
-5.07429e-07 -2.56153e-11 0
-5.07433e-07 -5.13761e-11 0
-5.07463e-07 -9.71523e-11 0
0.010276 4.93596e-07 0
0 -5.01776e-07 0
1.45368e-10 -9.0528e-08 0
-4.70382e-07 -1.55024e-07 0
-7.47064e-07 -9.00276e-08 0
-7.85647e-07 -4.58946e-08 0
-7.49884e-07 -6.74257e-08 0
-6.71884e-07 -1.16879e-07 0
-6.17597e-07 -1.16259e-07 0
-7.44216e-07 1.27159e-07 0
-7.69714e-07 2.86088e-07 0
-7.67144e-07 6.50401e-09 0
-5.8011e-07 -2.37224e-07 0
-5.18447e-07 -1.62445e-07 0
-6.40018e-07 1.92165e-10 0
-6.99768e-07 6.95847e-08 0
-6.96345e-07 6.28645e-08 0
-6.8455e-07 3.74084e-08 0
-6.77825e-07 1.87991e-08 0
-6.74882e-07 8.92963e-09 0
-6.73602e-07 4.2893e-09 0
-6.72933e-07 2.17457e-09 0
-6.72485e-07 1.1877e-09 0
-6.72137e-07 6.98548e-10 0
-6.71854e-07 4.36281e-10 0
-6.71627e-07 2.84277e-10 0
-6.71449e-07 1.90365e-10 0
-6.71312e-07 1.29626e-10 0
-6.7121e-07 8.91536e-11 0
-6.71136e-07 6.16719e-11 0
-6.71084e-07 4.2796e-11 0
-6.71049e-07 2.97415e-11 0
-6.71027e-07 2.06736e-11 0
-6.71015e-07 1.43558e-11 0
-6.71009e-07 9.94539e-12 0
-6.71008e-07 6.86261e-12 0
-6.71011e-07 4.70567e-12 0
-6.71016e-07 3.19451e-12 0
-6.71023e-07 2.13207e-12 0
-6.7103e-07 1.37696e-12 0
-6.71038e-07 8.2316e-13 0
-6.71047e-07 3.83362e-13 0
-6.71057e-07 -2.80851e-14 0
-6.71068e-07 -5.17856e-13 0
-6.7108e-07 -1.25062e-12 0
-6.71093e-07 -2.51611e-12 0
-6.71106e-07 -4.86022e-12 0
-6.71119e-07 -9.48713e-12 0
-6.71133e-07 -1.98248e-11 0
-6.71154e-07 -4.66221e-11 0
-6.7122e-07 -1.10058e-10 0
0.0082127 4.13448e-07 0
0 0 0
6.1935e-11 0 0
-2.35711e-07 0 0
-3.67628e-07 0 0
-4.04045e-07 0 0
-4.10888e-07 0 0
-4.15322e-07 0 0
-3.90495e-07 0 0
-3.38214e-07 0 0
-1.98332e-07 0 0
-1.59426e-07 0 0
-2.86335e-07 0 0
-4.34177e-07 0 0
-4.90599e-07 0 0
-4.69903e-07 0 0
-4.31099e-07 0 0
-4.03855e-07 0 0
-3.89561e-07 0 0
-3.82901e-07 0 0
-3.79898e-07 0 0
-3.78511e-07 0 0
-3.77827e-07 0 0
-3.77457e-07 0 0
-3.77239e-07 0 0
-3.77102e-07 0 0
-3.77012e-07 0 0
-3.76951e-07 0 0
-3.7691e-07 0 0
-3.76883e-07 0 0
-3.76866e-07 0 0
-3.76856e-07 0 0
-3.7685e-07 0 0
-3.76849e-07 0 0
-3.76849e-07 0 0
-3.76851e-07 0 0
-3.76855e-07 0 0
-3.76859e-07 0 0
-3.76863e-07 0 0
-3.76868e-07 0 0
-3.76873e-07 0 0
-3.76878e-07 0 0
-3.76883e-07 0 0
-3.76889e-07 0 0
-3.76895e-07 0 0
-3.76902e-07 0 0
-3.76909e-07 0 0
-3.76916e-07 0 0
-3.76925e-07 0 0
-3.76941e-07 0 0
-3.76987e-07 0 0
0.00322378 0 0
0 0 5.0345e-07
1.52624e-10 0 1.34418e-07
-6.94141e-07 0 1.93979e-07
-1.10922e-06 0 -5.93034e-08
-1.06891e-06 0 -4.25588e-07
-6.13335e-08 0 -4.2097e-07
1.57775e-07 0 -1.30123e-07
5.8028e-08 0 1.56391e-08
-1.3106e-07 0 5.3844e-08
-3.00105e-07 0 2.2272e-08
-4.0017e-07 0 -1.04452e-08
-4.63634e-07 0 -2.02199e-08
-5.12772e-07 0 -1.5828e-08
-5.51903e-07 0 -8.57413e-09
-5.83228e-07 0 -3.25387e-09
-6.08389e-07 0 -4.44031e-10
-6.27934e-07 0 6.34705e-10
-6.42404e-07 0 8.29871e-10
-6.52658e-07 0 6.87975e-10
-6.59682e-07 0 4.76786e-10
-6.64376e-07 0 2.96993e-10
-6.6746e-07 0 1.70721e-10
-6.69466e-07 0 9.10511e-11
-6.70765e-07 0 4.44474e-11
-6.71606e-07 0 1.89038e-11
-6.72152e-07 0 5.83492e-12
-6.72511e-07 0 -2.6538e-13
-6.72749e-07 0 -2.6887e-12
-6.7291e-07 0 -3.29909e-12
-6.73021e-07 0 -3.10178e-12
-6.73099e-07 0 -2.61043e-12
-6.73155e-07 0 -2.06938e-12
-6.73198e-07 0 -1.58187e-12
-6.73231e-07 0 -1.18111e-12
-6.73257e-07 0 -8.68158e-13
-6.73279e-07 0 -6.31183e-13
-6.73298e-07 0 -4.54738e-13
-6.73314e-07 0 -3.23668e-13
-6.73329e-07 0 -2.24334e-13
-6.73342e-07 0 -1.44442e-13
-6.73354e-07 0 -7.21115e-14
-6.73366e-07 0 5.65229e-15
-6.73379e-07 0 1.05494e-13
-6.73392e-07 0 2.52064e-13
-6.73405e-07 0 4.72902e-13
-6.73419e-07 0 7.50089e-13
-6.73433e-07 0 1.15954e-12
-6.73448e-07 0 3.57481e-12
-6.73476e-07 0 1.89343e-11
-6.73548e-07 0 7.48829e-11
0.00820961 0 -3.17116e-07
0.0036 2.92196e-07 2.68787e-07
0.0035993 -0.00230448 -0.000799157
0.00878072 -0.00620694 -0.00226075
0.017903 -0.00903131 -0.00336369
0.029637 -0.0118725 -0.00382194
0.0465788 -0.00752753 -0.00227627
0.0482224 2.72754e-05 -0.000196994
0.0475183 0.00309786 0.000479531
0.0421538 0.00466375 0.000384874
0.0366543 0.00440235 -5.12621e-05
0.0318671 0.0035838 -0.00026577
0.0280963 0.00266226 -0.000261827
0.0254321 0.00183593 -0.00017827
0.0236957 0.00119969 -9.85869e-05
0.0226142 0.0007574 -4.68105e-05
0.0219597 0.000466051 -1.94172e-05
0.0215735 0.000280205 -6.91405e-06
0.0213511 0.000164814 -1.92226e-06
0.0212261 9.49328e-05 -2.36813e-07
0.0211577 5.35706e-05 1.71604e-07
0.0211214 2.95996e-05 1.68621e-07
0.0211028 1.5983e-05 7.91079e-08
0.0210939 8.40101e-06 3.41253e-09
0.0210899 4.26775e-06 -4.02796e-08
0.0210885 2.06817e-06 -5.82035e-08
0.0210882 9.31701e-07 -6.03598e-08
0.0210885 3.67187e-07 -5.45909e-08
0.0210888 1.02555e-07 -4.58203e-08
0.0210892 -9.96356e-09 -3.67243e-08
0.0210896 -4.88322e-08 -2.85489e-08
0.0210899 -5.45588e-08 -2.17307e-08
0.0210901 -4.72816e-08 -1.62953e-08
0.0210902 -3.64673e-08 -1.20882e-08
0.0210903 -2.61648e-08 -8.89739e-09
0.0210904 -1.77916e-08 -6.51332e-09
0.0210905 -1.15749e-08 -4.75409e-09
0.0210905 -7.27135e-09 -3.47343e-09
0.0210905 -4.50938e-09 -2.56138e-09
0.0210906 -2.9411e-09 -1.94348e-09
0.0210906 -2.30327e-09 -1.58212e-09
0.0210906 -2.44187e-09 -1.48294e-09
0.0210906 -3.33223e-09 -1.70874e-09
0.0210906 -5.12034e-09 -2.40102e-09
0.0210906 -8.22407e-09 -3.80631e-09
0.0210906 -1.36305e-08 -6.33678e-09
0.0210907 -2.35709e-08 -1.0532e-08
0.0210908 -4.11134e-08 -1.4639e-08
0.0210909 -7.41318e-08 -1.43162e-08
0.0210912 -2.21058e-07 -8.58065e-08
0.0210918 -7.63353e-07 -4.98657e-07
0.0210927 -1.18086e-06 -8.38305e-07
0.01 2.86977e-07 -5.05754e-07
0.0100012 -0.00448892 -0.0014464
0.0154831 -0.0125783 -0.00361623
0.0246295 -0.0186979 -0.00461387
0.0364482 -0.026314 -0.00403441
0.0550252 -0.0169806 -0.00101067
0.0541621 -0.000498768 0.00135773
0.0547657 0.00612822 0.00159039
0.0485912 0.0108974 0.00109469
0.0421176 0.0104165 0.000139481
0.0368547 0.0087187 -0.000375306
0.0328251 0.00656551 -0.000412866
0.0301516 0.00448405 -0.000286104
0.0285514 0.0028628 -0.000158508
0.0276305 0.00175673 -7.44291e-05
0.0271137 0.00104889 -2.99599e-05
0.026832 0.000611335 -9.78303e-06
0.0266837 0.000348006 -1.84141e-06
0.0266089 0.000193322 7.13881e-07
0.0265734 0.000104527 1.18914e-06
0.0265582 5.47067e-05 1.00419e-06
0.026553 2.74204e-05 6.9839e-07
0.0265524 1.28822e-05 4.40725e-07
0.0265536 5.39908e-06 2.61497e-07
0.0265554 1.72818e-06 1.48122e-07
0.0265572 5.92692e-08 8.05204e-08
0.0265587 -5.96812e-07 4.19122e-08
0.0265599 -7.67683e-07 2.06525e-08
0.0265608 -7.26445e-07 9.36089e-09
0.0265615 -6.08762e-07 3.61121e-09
0.026562 -4.77907e-07 8.48849e-10
0.0265624 -3.60239e-07 -3.56613e-10
0.0265627 -2.64138e-07 -7.84861e-10
0.0265628 -1.89863e-07 -8.49511e-10
0.026563 -1.34502e-07 -7.63453e-10
0.0265631 -9.43253e-08 -6.32623e-10
0.0265631 -6.58247e-08 -5.08488e-10
0.0265632 -4.60846e-08 -4.17748e-10
0.0265632 -3.28644e-08 -3.80464e-10
0.0265632 -2.45621e-08 -4.23645e-10
0.0265633 -2.01642e-08 -5.94937e-10
0.0265633 -1.92427e-08 -9.79311e-10
0.0265633 -2.20723e-08 -1.71831e-09
0.0265633 -2.99673e-08 -3.01269e-09
0.0265633 -4.6037e-08 -5.05963e-09
0.0265634 -7.81906e-08 -8.00204e-09
0.0265635 -1.51978e-07 -1.08093e-08
0.0265636 -3.23488e-07 -1.09636e-08
0.0265639 -6.24968e-07 -1.09074e-07
0.0265643 -1.08001e-06 -6.46937e-07
0.0265645 -1.35296e-06 -1.0859e-06
0.0148 -8.66709e-07 -6.65796e-07
0.0148027 -0.00624668 -0.00199527
0.019227 -0.0171299 -0.00502713
0.0250391 -0.0256592 -0.00605379
0.0288865 -0.0383297 -0.00448551
0.0276251 -0.0235718 -0.000757097
0.0260956 -1.02599e-05 0.00132858
0.0266105 0.00831094 0.00143621
0.0317321 0.0171624 0.00124017
0.031253 0.0162523 0.000464517
0.0294867 0.0130904 -8.81626e-05
0.028127 0.00954986 -0.000255853
0.0274065 0.00623003 -0.000211589
0.0271708 0.0037863 -0.000122223
0.027138 0.00222551 -5.22524e-05
0.0271791 0.00127639 -1.44085e-05
0.0272401 0.000713833 1.15589e-06
0.0272983 0.000388371 5.50929e-06
0.0273456 0.00020469 5.41372e-06
0.0273808 0.000103629 4.07103e-06
0.0274058 4.95331e-05 2.71459e-06
0.0274231 2.15041e-05 1.6886e-06
0.0274347 7.59598e-06 1.00328e-06
0.0274425 1.13265e-06 5.76459e-07
0.0274477 -1.53655e-06 3.22414e-07
0.0274512 -2.36207e-06 1.7601e-07
0.0274535 -2.35783e-06 9.37441e-08
0.027455 -2.03216e-06 4.85179e-08
0.0274561 -1.62652e-06 2.41783e-08
0.0274568 -1.24554e-06 1.13839e-08
0.0274573 -9.26406e-07 4.85317e-09
0.0274576 -6.7507e-07 1.65451e-09
0.0274578 -4.84571e-07 1.87559e-10
0.027458 -3.43909e-07 -4.07077e-10
0.0274581 -2.42034e-07 -5.82697e-10
0.0274581 -1.694e-07 -5.73672e-10
0.0274582 -1.18374e-07 -4.99061e-10
0.0274582 -8.31495e-08 -4.20038e-10
0.0274583 -5.94848e-08 -3.72777e-10
0.0274583 -4.44431e-08 -3.89527e-10
0.0274583 -3.61967e-08 -5.15376e-10
0.0274583 -3.39657e-08 -8.23914e-10
0.0274583 -3.81807e-08 -1.43105e-09
0.0274583 -5.11642e-08 -2.52416e-09
0.0274583 -7.89293e-08 -4.50024e-09
0.0274584 -1.32616e-07 -8.25154e-09
0.0274584 -2.22577e-07 -1.45917e-08
0.0274585 -3.55747e-07 -2.54192e-08
0.0274585 -5.49421e-07 -1.43416e-07
0.0274585 -8.23509e-07 -6.9499e-07
0.0274584 -9.82256e-07 -1.13567e-06
0.018 -1.98429e-06 -1.07328e-06
0.0180024 -0.0066944 -0.00275774
0.0196205 -0.0171487 -0.00694445
0.0198208 -0.0213148 -0.00745621
0.0161172 -0.0226616 -0.00541318
-8.42064e-07 -0.0118088 -0.00214451
0.000106984 3.92423e-05 4.11434e-07
-4.36841e-05 4.64752e-05 0.000254993
0.00821151 0.00595408 0.000503537
0.0170032 0.0126217 0.000401121
0.020055 0.0119416 0.000154584
0.021556 0.00876626 -7.00614e-05
0.0232038 0.00553099 -0.000132444
0.0246593 0.00318288 -8.65395e-05
0.0257156 0.00177074 -3.01384e-05
0.0264192 0.000953105 1.46471e-06
0.0268681 0.000491728 1.21259e-05
0.0271467 0.000240315 1.24893e-05
0.027316 0.000108604 9.53e-06
0.0274174 4.25965e-05 6.35321e-06
0.0274774 1.13661e-05 3.91714e-06
0.0275127 -2.12523e-06 2.29365e-06
0.0275334 -6.95769e-06 1.29284e-06
0.0275455 -7.82232e-06 7.05939e-07
0.0275526 -7.06027e-06 3.73807e-07
0.0275567 -5.78726e-06 1.91134e-07
0.0275592 -4.4975e-06 9.32556e-08
0.0275607 -3.38062e-06 4.22592e-08
0.0275616 -2.48457e-06 1.66013e-08
0.0275621 -1.79695e-06 4.32732e-09
0.0275624 -1.28416e-06 -1.06581e-09
0.0275626 -9.09272e-07 -3.04779e-09
0.0275628 -6.39135e-07 -3.43063e-09
0.0275628 -4.46658e-07 -3.1353e-09
0.0275629 -3.10793e-07 -2.61248e-09
0.0275629 -2.15723e-07 -2.07034e-09
0.0275629 -1.49838e-07 -1.59653e-09
0.027563 -1.04786e-07 -1.22354e-09
0.027563 -7.46887e-08 -9.64692e-10
0.027563 -5.55512e-08 -8.3698e-10
0.027563 -4.48649e-08 -8.81024e-10
0.027563 -4.14022e-08 -1.18805e-09
0.027563 -4.51972e-08 -1.94714e-09
0.027563 -5.7473e-08 -3.53856e-09
0.027563 -7.9863e-08 -6.80217e-09
0.027563 -1.13484e-07 -1.34813e-08
0.0275629 -1.59749e-07 -2.41554e-08
0.0275629 -2.20308e-07 -3.78974e-08
0.0275628 -3.05304e-07 -1.57909e-07
0.0275627 -4.27308e-07 -7.0608e-07
0.0275626 -4.98355e-07 -1.14193e-06
0.0196 -2.35189e-06 -2.14549e-06
0.0196009 -0.00496238 -0.00341723
0.0190494 -0.01124 -0.00809905
0.0167865 -0.0129234 -0.00788093
0.0125395 -0.0109284 -0.00543001
0.00300144 -0.00428489 -0.00275392
8.20106e-05 -7.58906e-05 -0.000520941
3.22066e-05 -3.22066e-05 -5.73924e-08
-4.22268e-05 4.51414e-05 5.16977e-05
0.00593593 0.00431627 0.000122379
0.0125879 0.00852174 9.78973e-05
0.015613 0.00644664 -5.59119e-05
0.0193246 0.00318816 -0.000168586
0.0224764 0.00131451 -0.000128427
0.0245988 0.000481169 -5.28154e-05
0.0258836 0.000125317 -5.65657e-06
0.0266272 -1.75789e-05 1.12937e-05
0.0270487 -6.41436e-05 1.29578e-05
0.0272845 -6.96744e-05 9.8122e-06
0.0274152 -6.02462e-05 6.32047e-06
0.0274871 -4.73245e-05 3.7272e-06
0.0275264 -3.53619e-05 2.07384e-06
0.0275477 -2.56777e-05 1.10222e-06
0.0275592 -1.83266e-05 5.60227e-07
0.0275653 -1.29399e-05 2.69544e-07
0.0275686 -9.07311e-06 1.19156e-07
0.0275703 -6.33213e-06 4.4466e-08
0.0275711 -4.40444e-06 9.427e-09
0.0275715 -3.05568e-06 -5.48693e-09
0.0275717 -2.11533e-06 -1.05937e-08
0.0275718 -1.46145e-06 -1.12112e-08
0.0275718 -1.00777e-06 -9.99888e-09
0.0275718 -6.93634e-07 -8.23065e-09
0.0275718 -4.76609e-07 -6.47515e-09
0.0275718 -3.27076e-07 -4.95333e-09
0.0275718 -2.24426e-07 -3.72353e-09
0.0275718 -1.5436e-07 -2.77568e-09
0.0275718 -1.07002e-07 -2.07925e-09
0.0275718 -7.55822e-08 -1.60926e-09
0.0275718 -5.55299e-08 -1.36498e-09
0.0275718 -4.38368e-08 -1.39195e-09
0.0275718 -3.85817e-08 -1.81779e-09
0.0275718 -3.84763e-08 -2.91371e-09
0.0275717 -4.2382e-08 -5.18153e-09
0.0275717 -4.88658e-08 -9.46096e-09
0.0275717 -5.54723e-08 -1.71346e-08
0.0275716 -5.79458e-08 -2.83911e-08
0.0275716 -5.00686e-08 -4.15943e-08
0.0275715 -3.1067e-08 -1.60409e-07
0.0275714 -9.58883e-09 -7.06822e-07
0.0275712 3.08381e-10 -1.14141e-06
0.0196 -1.25315e-06 -3.03586e-06
0.0196004 -0.00273626 -0.00365746
0.0191583 -0.00562069 -0.00810617
0.0182855 -0.00504893 -0.0075808
0.0153654 -0.0015797 -0.00500355
0.011519 0.00422085 -0.00288214
0.00701715 0.0036373 -0.00125019
8.21201e-05 -6.96612e-05 -0.000242676
2.74344e-05 -2.74344e-05 -1.242e-07
-4.04675e-05 4.39861e-05 1.37435e-05
0.00430872 0.00224618 0.00024115
0.00949982 0.0020664 0.000192528
0.0161086 -0.00125329 -0.000187827
0.0213444 -0.00203113 -0.000261712
0.0244241 -0.00160905 -0.000152301
0.026001 -0.0010692 -5.35278e-05
0.0267846 -0.000675888 -9.21983e-06
0.0271764 -0.000421247 3.43774e-06
0.0273735 -0.000261487 4.75822e-06
0.0274724 -0.000162389 3.40237e-06
0.0275215 -0.000101229 1.99547e-06
0.0275456 -6.35087e-05 1.04662e-06
0.0275569 -4.01724e-05 4.98437e-07
0.027562 -2.56457e-05 2.08755e-07
0.0275641 -1.65274e-05 6.64829e-08
0.0275647 -1.07486e-05 2.38251e-09
0.0275647 -7.04908e-06 -2.25744e-08
0.0275645 -4.65688e-06 -2.91097e-08
0.0275642 -3.09548e-06 -2.77308e-08
0.0275639 -2.06777e-06 -2.35234e-08
0.0275637 -1.38644e-06 -1.88014e-08
0.0275635 -9.32082e-07 -1.45114e-08
0.0275634 -6.27705e-07 -1.09551e-08
0.0275633 -4.23169e-07 -8.15004e-09
0.0275632 -2.85511e-07 -6.00516e-09
0.0275631 -1.92892e-07 -4.40185e-09
0.0275631 -1.30751e-07 -3.23009e-09
0.0275631 -8.93341e-08 -2.40393e-09
0.027563 -6.20809e-08 -1.87004e-09
0.027563 -4.45421e-08 -1.61749e-09
0.027563 -3.3622e-08 -1.69495e-09
0.027563 -2.69949e-08 -2.23948e-09
0.027563 -2.25927e-08 -3.51668e-09
0.027563 -1.80525e-08 -5.98056e-09
0.0275629 -1.00165e-08 -1.04204e-08
0.0275629 6.86891e-09 -1.81978e-08
0.0275629 4.17894e-08 -2.93942e-08
0.0275628 1.105e-07 -4.1543e-08
0.0275628 2.31172e-07 -1.57477e-07
0.0275627 4.026e-07 -7.02976e-07
0.0275625 4.9867e-07 -1.13857e-06
0.018 -7.62811e-07 -3.03147e-06
0.0180011 -0.000944183 -0.00358152
0.0187394 -0.00131247 -0.00765758
0.019749 0.000138625 -0.0068361
0.0196954 0.0026439 -0.00437186
0.0195852 0.00789743 -0.00252945
0.0198783 0.0130541 -0.00131038
0.0122639 0.00729291 -0.000603053
8.40674e-05 -5.5255e-05 -0.000207114
-3.29879e-05 -6.2563e-05 5.30781e-07
8.1581e-06 -0.00106065 0.000785821
0.00965698 -0.0053868 0.000963704
0.0179054 -0.00854981 3.20362e-05
0.0232155 -0.00688147 -0.000300551
0.0258448 -0.00410594 -0.000232067
0.0269131 -0.00220797 -0.000106715
0.0273066 -0.001186 -3.82228e-05
0.0274429 -0.000652851 -1.18797e-05
0.0274845 -0.000366911 -3.32247e-06
0.0274921 -0.000209468 -8.42583e-07
0.0274887 -0.000121252 -2.14579e-07
0.0274826 -7.11563e-05 -9.00255e-08
0.0274767 -4.23448e-05 -7.65793e-08
0.0274718 -2.55559e-05 -7.51423e-08
0.0274681 -1.56382e-05 -6.83146e-08
0.0274653 -9.69684e-06 -5.73641e-08
0.0274633 -6.08704e-06 -4.55537e-08
0.0274618 -3.86343e-06 -3.4871e-08
0.0274608 -2.47564e-06 -2.6067e-08
0.02746 -1.59902e-06 -1.91905e-08
0.0274595 -1.03931e-06 -1.39906e-08
0.0274592 -6.78669e-07 -1.01364e-08
0.0274589 -4.44567e-07 -7.31533e-09
0.0274587 -2.91767e-07 -5.26803e-09
0.0274586 -1.91691e-07 -3.79277e-09
0.0274585 -1.26077e-07 -2.73966e-09
0.0274584 -8.31302e-08 -2.00246e-09
0.0274584 -5.51514e-08 -1.51235e-09
0.0274584 -3.70434e-08 -1.23585e-09
0.0274583 -2.53317e-08 -1.17894e-09
0.0274583 -1.74855e-08 -1.39933e-09
0.0274583 -1.13814e-08 -2.03017e-09
0.0274583 -4.79601e-09 -3.31857e-09
0.0274583 5.18664e-09 -5.68258e-09
0.0274583 2.29909e-08 -9.85199e-09
0.0274583 5.57882e-08 -1.71554e-08
0.0274582 1.16107e-07 -2.77105e-08
0.0274582 2.29419e-07 -3.81016e-08
0.0274583 4.43192e-07 -1.47242e-07
0.0274583 7.81921e-07 -6.87739e-07
0.0274581 9.81212e-07 -1.12373e-06
0.0148 -5.35129e-07 -2.6441e-06
0.0148016 1.0667e-05 -0.00336428
0.0170981 0.000771645 -0.00686671
0.0201324 0.00235516 -0.00575234
0.0225908 0.00456108 -0.0035684
0.0245509 0.00750491 -0.00222566
0.0276953 0.0126811 -0.00140123
0.0307722 0.0205063 -0.00076777
0.0250608 0.0123638 -9.47265e-05
0.0262513 -6.28882e-12 0.00057648
0.0310369 -0.00767623 0.00171234
0.0351745 -0.0161331 0.00199153
0.0337999 -0.0147648 0.000693129
0.0309669 -0.00982202 -0.000179085
0.0289668 -0.00519826 -0.000327149
0.0278709 -0.00247857 -0.000195164
0.0272946 -0.0011852 -8.44545e-05
0.0269839 -0.000592013 -3.20877e-05
0.0268109 -0.00030853 -1.15126e-05
0.026712 -0.000166035 -3.99764e-06
0.0266542 -9.15211e-05 -1.34141e-06
0.0266198 -5.1416e-05 -4.205e-07
0.0265989 -2.93531e-05 -1.07782e-07
0.0265861 -1.69982e-05 -6.03292e-09
0.0265781 -9.97217e-06 2.32451e-08
0.026573 -5.91988e-06 2.81667e-08
0.0265697 -3.55162e-06 2.5443e-08
0.0265676 -2.1502e-06 2.08542e-08
0.0265661 -1.31125e-06 1.63446e-08
0.0265652 -8.03733e-07 1.24968e-08
0.0265646 -4.93948e-07 9.40749e-09
0.0265642 -3.03495e-07 7.00708e-09
0.0265639 -1.85828e-07 5.17872e-09
0.0265637 -1.12969e-07 3.80353e-09
0.0265636 -6.79054e-08 2.77622e-09
0.0265635 -4.01804e-08 2.00835e-09
0.0265634 -2.32943e-08 1.4263e-09
0.0265634 -1.31508e-08 9.66306e-10
0.0265633 -7.10039e-09 5.67065e-10
0.0265633 -3.32345e-09 1.58889e-10
0.0265633 -3.9282e-10 -3.52744e-10
0.0265633 3.09366e-09 -1.11228e-09
0.0265633 8.90608e-09 -2.34964e-09
0.0265633 1.9706e-08 -4.43146e-09
0.0265633 3.98826e-08 -7.97319e-09
0.0265633 7.69562e-08 -1.40921e-08
0.0265633 1.44099e-07 -2.29428e-08
0.0265634 2.7089e-07 -3.12092e-08
0.0265635 5.40792e-07 -1.27928e-07
0.0265637 1.03772e-06 -6.42638e-07
0.0265639 1.34848e-06 -1.06408e-06
0.01 -9.66967e-07 -2.42725e-06
0.0100007 6.5038e-05 -0.00285447
0.0129289 0.000740464 -0.00540412
0.0167855 0.00178675 -0.00406698
0.0205122 0.00315907 -0.00238888
0.0247497 0.00574689 -0.00165486
0.0301089 0.0084292 -0.0015928
0.0387659 0.0105842 -0.00122603
0.0512675 0.00453185 -6.22547e-05