# vtk DataFile Version 2.0
Tobias Weinzierl: CPU, Manycore and Cluster Computing
ASCII

DATASET STRUCTURED_POINTS
DIMENSIONS  51 11 6

ORIGIN 0 0 0 

SPACING 0.1 0.1 0.1 

POINT_DATA 3366

VECTORS velocity float
0 0 0
2.64296e-14 0 0
2.10056e-09 0 0
3.6222e-09 0 0
-6.08437e-09 0 0
4.87458e-09 0 0
6.25754e-09 0 0
5.00781e-09 0 0
4.3331e-09 0 0
3.07151e-09 0 0
1.61184e-09 0 0
8.21683e-10 0 0
-7.05137e-11 0 0
-2.35376e-09 0 0
-5.71041e-09 0 0
-8.56153e-09 0 0
-1.00017e-08 0 0
-1.04307e-08 0 0
-1.0714e-08 0 0
-1.13625e-08 0 0
-1.2396e-08 0 0
-1.35903e-08 0 0
-1.47159e-08 0 0
-1.56392e-08 0 0
-1.63233e-08 0 0
-1.67901e-08 0 0
-1.70861e-08 0 0
-1.72599e-08 0 0
-1.73523e-08 0 0
-1.73941e-08 0 0
-1.74066e-08 0 0
-1.74036e-08 0 0
-1.73937e-08 0 0
-1.73816e-08 0 0
-1.73699e-08 0 0
-1.73597e-08 0 0
-1.73515e-08 0 0
-1.73451e-08 0 0
-1.73402e-08 0 0
-1.73368e-08 0 0
-1.73343e-08 0 0
-1.73327e-08 0 0
-1.73317e-08 0 0
-1.7331e-08 0 0
-1.73305e-08 0 0
-1.73303e-08 0 0
-1.73302e-08 0 0
-1.73303e-08 0 0
-1.73305e-08 0 0
-1.73314e-08 0 0
0.00196212 0 0
0 3.79831e-07 0
-1.30453e-12 -2.07147e-09 0
3.22275e-09 -5.28226e-09 0
7.94295e-09 -1.68897e-09 0
-3.36169e-09 -8.35328e-09 0
1.65912e-08 -1.11592e-08 0
1.83071e-08 1.39938e-10 0
1.46426e-08 2.70374e-09 0
1.3252e-08 2.82753e-09 0
1.15508e-08 2.66129e-09 0
8.76528e-09 1.41796e-09 0
6.03855e-09 1.08825e-09 0
2.63816e-09 3.2055e-09 0
-2.79446e-09 5.80435e-09 0
-9.19242e-09 6.17265e-09 0
-1.40722e-08 4.26246e-09 0
-1.66593e-08 1.99868e-09 0
-1.82762e-08 7.97869e-10 0
-2.0487e-08 7.02269e-10 0
-2.38272e-08 1.07369e-09 0
-2.78954e-08 1.37839e-09 0
-3.19823e-08 1.42663e-09 0
-3.5534e-08 1.26036e-09 0
-3.82974e-08 9.91402e-10 0
-4.02652e-08 7.12061e-10 0
-4.15635e-08 4.72639e-10 0
-4.23595e-08 2.8991e-10 0
-4.28089e-08 1.61689e-10 0
-4.30352e-08 7.79241e-11 0
-4.31272e-08 2.7013e-11 0
-4.31445e-08 -1.32764e-12 0
-4.31245e-08 -1.51288e-11 0
-4.30894e-08 -2.01755e-11 0
-4.30514e-08 -2.03745e-11 0
-4.30164e-08 -1.82096e-11 0
-4.29869e-08 -1.51599e-11 0
-4.29634e-08 -1.20368e-11 0
-4.29453e-08 -9.23294e-12 0
-4.29318e-08 -6.89526e-12 0
-4.29221e-08 -5.03739e-12 0
-4.29152e-08 -3.60893e-12 0
-4.29106e-08 -2.53529e-12 0
-4.29075e-08 -1.74008e-12 0
-4.29055e-08 -1.15445e-12 0
-4.29042e-08 -7.16958e-13 0
-4.29034e-08 -3.76399e-13 0
-4.29032e-08 -8.00891e-14 0
-4.29035e-08 2.55761e-13 0
-4.29044e-08 9.46164e-13 0
-4.29072e-08 2.99095e-12 0
0.00562847 -3.05339e-08 0
0 -2.09453e-08 0
-1.51897e-12 -1.96691e-09 0
3.80361e-09 -8.43161e-09 0
1.39117e-08 -1.36428e-08 0
1.54787e-08 -2.63978e-08 0
3.16237e-08 -2.22171e-08 0
2.71203e-08 -1.88381e-09 0
2.46048e-08 1.23084e-10 0
2.01649e-08 -5.11651e-09 0
1.39364e-08 -1.04478e-08 0
6.22351e-09 -1.21454e-08 0
1.44616e-09 -8.31116e-09 0
-1.3382e-09 -1.26623e-09 0
-5.95774e-09 4.64014e-09 0
-1.17851e-08 7.87181e-09 0
-1.61119e-08 9.58878e-09 0
-1.81218e-08 1.07283e-08 0
-1.91301e-08 1.12673e-08 0
-2.07237e-08 1.1022e-08 0
-2.35441e-08 1.0037e-08 0
-2.72732e-08 8.52823e-09 0
-3.11815e-08 6.77728e-09 0
-3.46325e-08 5.05032e-09 0
-3.73001e-08 3.53718e-09 0
-3.91455e-08 2.32921e-09 0
-4.02968e-08 1.43569e-09 0
-4.09378e-08 8.16804e-10 0
-4.12405e-08 4.13599e-10 0
-4.13394e-08 1.67109e-10 0
-4.13274e-08 2.75021e-11 0
-4.1264e-08 -4.33266e-11 0
-4.11837e-08 -7.25223e-11 0
-4.11049e-08 -7.83152e-11 0
-4.10359e-08 -7.22846e-11 0
-4.09794e-08 -6.13587e-11 0
-4.09352e-08 -4.93905e-11 0
-4.09017e-08 -3.83069e-11 0
-4.08768e-08 -2.88978e-11 0
-4.08589e-08 -2.13296e-11 0
-4.08461e-08 -1.54613e-11 0
-4.08373e-08 -1.10276e-11 0
-4.08313e-08 -7.73682e-12 0
-4.08273e-08 -5.31895e-12 0
-4.08248e-08 -3.5441e-12 0
-4.08231e-08 -2.21561e-12 0
-4.08222e-08 -1.15186e-12 0
-4.0822e-08 -1.28867e-13 0
-4.08226e-08 1.27277e-12 0
-4.0824e-08 3.50776e-12 0
-4.08269e-08 6.82972e-12 0
0.00805302 -6.87822e-08 0
0 -6.29894e-07 0
1.55447e-12 -3.98735e-09 0
5.72615e-09 -1.39121e-08 0
1.78175e-08 -2.60036e-08 0
1.72095e-08 -3.56436e-08 0
1.99069e-08 -1.95727e-08 0
1.50758e-08 -6.48646e-12 0
1.49704e-08 -2.20853e-09 0
4.93079e-09 -1.07379e-08 0
-5.50238e-09 -2.07992e-08 0
-1.14149e-08 -2.61496e-08 0
-1.35639e-08 -2.65582e-08 0
-1.47762e-08 -2.04215e-08 0
-2.01587e-08 -8.51152e-09 0
-2.74417e-08 5.14268e-09 0
-3.24081e-08 1.60157e-08 0
-3.31051e-08 2.13045e-08 0
-3.02876e-08 2.1406e-08 0
-2.61078e-08 1.86006e-08 0
-2.25403e-08 1.49098e-08 0
-2.0456e-08 1.13359e-08 0
-1.96937e-08 8.20793e-09 0
-1.96602e-08 5.61578e-09 0
-1.9831e-08 3.58238e-09 0
-1.99266e-08 2.08461e-09 0
-1.98717e-08 1.05492e-09 0
-1.96957e-08 3.98585e-10 0
-1.94571e-08 1.62729e-11 0
-1.92063e-08 -1.79757e-10 0
-1.89752e-08 -2.58436e-10 0
-1.87791e-08 -2.69331e-10 0
-1.86216e-08 -2.45494e-10 0
-1.85002e-08 -2.07395e-10 0
-1.84094e-08 -1.66697e-10 0
-1.83429e-08 -1.29318e-10 0
-1.82952e-08 -9.76867e-11 0
-1.82614e-08 -7.22781e-11 0
-1.82378e-08 -5.25941e-11 0
-1.82214e-08 -3.77429e-11 0
-1.82103e-08 -2.67568e-11 0
-1.82029e-08 -1.87469e-11 0
-1.81981e-08 -1.29625e-11 0
-1.8195e-08 -8.79809e-12 0
-1.81931e-08 -5.77409e-12 0
-1.8192e-08 -3.50187e-12 0
-1.81914e-08 -1.61633e-12 0
-1.81914e-08 2.60746e-13 0
-1.81918e-08 2.41339e-12 0
-1.8192e-08 4.85189e-12 0
-1.81931e-08 7.14732e-12 0
0.00904277 -7.22102e-08 0
0 -1.23083e-06 0
-3.9586e-13 -7.63733e-09 0
2.32431e-09 -2.10336e-08 0
6.67669e-09 -2.76111e-08 0
2.94621e-09 -2.23211e-08 0
-2.41096e-12 -8.10834e-09 0
-1.12462e-11 -2.21501e-11 0
2.1196e-11 -2.32105e-11 0
-6.31457e-09 -8.95934e-09 0
-2.43356e-08 -2.74606e-08 0
-3.10909e-08 -4.10611e-08 0
-2.95064e-08 -4.31171e-08 0
-3.16584e-08 -3.19352e-08 0
-3.77672e-08 -1.13883e-08 0
-4.39497e-08 9.20443e-09 0
-4.73702e-08 2.2777e-08 0
-4.63841e-08 2.67426e-08 0
-4.06617e-08 2.35164e-08 0
-3.18519e-08 1.74876e-08 0
-2.26905e-08 1.17368e-08 0
-1.5215e-08 7.30734e-09 0
-1.00127e-08 4.13779e-09 0
-6.68153e-09 1.93185e-09 0
-4.56109e-09 4.60472e-10 0
-3.13703e-09 -4.39583e-10 0
-2.11375e-09 -9.09746e-10 0
-1.34694e-09 -1.08108e-09 0
-7.67101e-10 -1.06624e-09 0
-3.33964e-10 -9.51704e-10 0
-1.71364e-11 -7.96774e-10 0
2.09419e-10 -6.37634e-10 0
3.68052e-10 -4.93435e-10 0
4.77128e-10 -3.72109e-10 0
5.51004e-10 -2.74971e-10 0
6.00436e-10 -1.99919e-10 0
6.33195e-10 -1.43455e-10 0
6.54736e-10 -1.01832e-10 0
6.68789e-10 -7.16321e-11 0
6.77856e-10 -4.99887e-11 0
6.83588e-10 -3.46222e-11 0
6.87083e-10 -2.37828e-11 0
6.89099e-10 -1.61581e-11 0
6.90179e-10 -1.07779e-11 0
6.90722e-10 -6.91886e-12 0
6.91005e-10 -4.02351e-12 0
6.91171e-10 -1.68498e-12 0
6.91357e-10 3.1838e-13 0
6.91868e-10 1.99861e-12 0
6.92944e-10 3.28015e-12 0
6.93136e-10 4.19854e-12 0
0.00939408 -4.04181e-08 0
0 -1.11337e-06 0
-6.33401e-12 -8.36562e-09 0
-2.70987e-09 -1.83203e-08 0
-2.92161e-09 -2.14309e-08 0
-7.36983e-09 -2.13952e-08 0
-6.29997e-09 -9.92075e-09 0
-1.73354e-11 1.542e-11 0
5.40245e-12 -5.40245e-12 0
2.02237e-11 -2.26613e-11 0
-1.33755e-08 -1.52519e-08 0
-3.8283e-08 -4.26147e-08 0
-4.0986e-08 -5.14158e-08 0
-4.31435e-08 -3.66696e-08 0
-4.49392e-08 -1.21883e-08 0
-4.54172e-08 1.09474e-08 0
-4.5564e-08 2.51416e-08 0
-4.46425e-08 2.76443e-08 0
-4.01951e-08 2.16616e-08 0
-3.16054e-08 1.29692e-08 0
-2.11337e-08 5.60551e-09 0
-1.16225e-08 7.52326e-10 0
-4.53636e-09 -1.98728e-09 0
1.12299e-10 -3.31111e-09 0
2.96021e-09 -3.74788e-09 0
4.66766e-09 -3.64632e-09 0
5.69881e-09 -3.24666e-09 0
6.33097e-09 -2.71846e-09 0
6.72141e-09 -2.174e-09 0
6.96112e-09 -1.67799e-09 0
7.10552e-09 -1.25965e-09 0
7.18989e-09 -9.25119e-10 0
7.23715e-09 -6.67767e-10 0
7.26206e-09 -4.75454e-10 0
7.27401e-09 -3.34883e-10 0
7.27877e-09 -2.33859e-10 0
7.27979e-09 -1.62196e-10 0
7.27903e-09 -1.11866e-10 0
7.27755e-09 -7.67865e-11 0
7.27588e-09 -5.24735e-11 0
7.27422e-09 -3.56871e-11 0
7.27265e-09 -2.4119e-11 0
7.27123e-09 -1.6138e-11 0
7.27002e-09 -1.05931e-11 0
7.2691e-09 -6.68228e-12 0
7.26857e-09 -3.88033e-12 0
7.26846e-09 -1.88604e-12 0
7.26877e-09 -5.43318e-13 0
7.26959e-09 2.33427e-13 0
7.27086e-09 4.34454e-13 0
7.27105e-09 2.59601e-13 0
0.00947594 8.01343e-09 0
0 -7.68735e-07 0
-4.66756e-12 -5.07202e-09 0
-2.86703e-09 -1.29136e-08 0
-2.56845e-09 -1.68736e-08 0
-1.09309e-08 -1.66522e-08 0
-1.59292e-08 -1.00594e-08 0
-7.06757e-09 -2.43892e-09 0
-1.45838e-11 1.63718e-11 0
3.28964e-12 -3.28964e-12 0
1.61634e-11 -2.403e-11 0
-1.76768e-08 -2.50651e-08 0
-3.24839e-08 -4.83759e-08 0
-3.97372e-08 -3.47231e-08 0
-4.07963e-08 -1.00539e-08 0
-3.70963e-08 1.21139e-08 0
-3.27349e-08 2.49473e-08 0
-3.04464e-08 2.5985e-08 0
-2.82126e-08 1.83498e-08 0
-2.32431e-08 8.14583e-09 0
-1.59062e-08 -7.42879e-11 0
-8.60296e-09 -4.94857e-09 0
-3.13928e-09 -7.05218e-09 0
1.17813e-10 -7.39153e-09 0
1.67032e-09 -6.77115e-09 0
2.19116e-09 -5.72255e-09 0
2.19453e-09 -4.57246e-09 0
1.98817e-09 -3.50393e-09 0
1.72904e-09 -2.60086e-09 0
1.48615e-09 -1.88408e-09 0
1.28354e-09 -1.33982e-09 0
1.12458e-09 -9.39626e-10 0
1.0044e-09 -6.52188e-10 0
9.15686e-10 -4.49243e-10 0
8.51283e-10 -3.07724e-10 0
8.05079e-10 -2.09917e-10 0
7.72217e-10 -1.42747e-10 0
7.48988e-10 -9.682e-11 0
7.32621e-10 -6.55117e-11 0
7.21077e-10 -4.42084e-11 0
7.12882e-10 -2.97247e-11 0
7.06998e-10 -1.98728e-11 0
7.02741e-10 -1.31588e-11 0
6.99699e-10 -8.57711e-12 0
6.97648e-10 -5.46608e-12 0
6.96451e-10 -3.4001e-12 0
6.95922e-10 -2.10923e-12 0
6.95856e-10 -1.43533e-12 0
6.96211e-10 -1.34027e-12 0
6.96891e-10 -2.0099e-12 0
6.96543e-10 -3.45656e-12 0
0.00939405 5.33391e-08 0
0 -5.39143e-07 0
-1.64414e-12 -3.6546e-09 0
-1.18678e-09 -9.40598e-09 0
-2.61118e-09 -1.26788e-08 0
-1.05761e-08 -1.16261e-08 0
-2.03122e-08 -5.30307e-09 0
-1.98228e-08 -3.04969e-10 0
-1.11694e-08 2.9927e-10 0
-1.89595e-11 1.42565e-11 0
1.54595e-11 1.20439e-11 0
3.01314e-12 -1.38881e-08 0
-2.00898e-08 -2.7969e-08 0
-3.71752e-08 -1.83153e-08 0
-4.31965e-08 6.7725e-10 0
-3.65519e-08 1.47756e-08 0
-2.38679e-08 2.03059e-08 0
-1.49712e-08 1.79073e-08 0
-1.24166e-08 1.04564e-08 0
-1.23525e-08 2.13179e-09 0
-1.17118e-08 -3.99265e-09 0
-1.05216e-08 -7.13113e-09 0
-9.84984e-09 -7.95091e-09 0
-1.01548e-08 -7.4173e-09 0
-1.12102e-08 -6.2723e-09 0
-1.25782e-08 -4.97409e-09 0
-1.39194e-08 -3.76821e-09 0
-1.5061e-08 -2.76061e-09 0
-1.59556e-08 -1.97363e-09 0
-1.6621e-08 -1.38658e-09 0
-1.70999e-08 -9.62367e-10 0
-1.74374e-08 -6.62435e-10 0
-1.76721e-08 -4.53455e-10 0
-1.78339e-08 -3.09242e-10 0
-1.7945e-08 -2.10336e-10 0
-1.80211e-08 -1.42771e-10 0
-1.80731e-08 -9.67319e-11 0
-1.81087e-08 -6.54132e-11 0
-1.8133e-08 -4.41334e-11 0
-1.81497e-08 -2.96865e-11 0
-1.81612e-08 -1.98848e-11 0
-1.81692e-08 -1.32423e-11 0
-1.81749e-08 -8.75565e-12 0
-1.81788e-08 -5.75081e-12 0
-1.81815e-08 -3.77722e-12 0
-1.81832e-08 -2.54274e-12 0
-1.81842e-08 -1.87824e-12 0
-1.81847e-08 -1.72437e-12 0
-1.8185e-08 -2.16028e-12 0
-1.81851e-08 -3.5454e-12 0
-1.81864e-08 -6.1447e-12 0
0.00904273 7.66486e-08 0
0 -4.57717e-07 0
-2.05098e-12 -1.91612e-09 0
-2.07614e-10 -5.32118e-09 0
-3.64603e-09 -7.90285e-09 0
-1.38438e-08 -7.82723e-09 0
-2.58567e-08 -1.59244e-09 0
-2.84989e-08 3.92054e-09 0
-2.52111e-08 -4.46265e-09 0
-1.58933e-08 -6.64614e-09 0
-1.36708e-08 -1.11564e-13 0
-1.49698e-08 -5.08522e-09 0
-3.19009e-08 -7.3651e-09 0
-4.88353e-08 1.9866e-09 0
-5.13622e-08 1.2109e-08 0
-3.7227e-08 1.47116e-08 0
-1.74097e-08 1.04512e-08 0
-6.29232e-09 3.73725e-09 0
-7.47334e-09 -1.95779e-09 0
-1.45489e-08 -5.02801e-09 0
-2.11899e-08 -5.66512e-09 0
-2.55955e-08 -5.00274e-09 0
-2.85286e-08 -4.02158e-09 0
-3.08862e-08 -3.1516e-09 0
-3.30057e-08 -2.4611e-09 0
-3.48835e-08 -1.91025e-09 0
-3.64499e-08 -1.46271e-09 0
-3.76811e-08 -1.10059e-09 0
-3.86046e-08 -8.13742e-10 0
-3.92747e-08 -5.92394e-10 0
-3.975e-08 -4.25688e-10 0
-4.00823e-08 -3.02629e-10 0
-4.03125e-08 -2.13228e-10 0
-4.0471e-08 -1.49097e-10 0
-4.05799e-08 -1.0356e-10 0
-4.06545e-08 -7.15001e-11 0
-4.07055e-08 -4.90893e-11 0
-4.07404e-08 -3.35204e-11 0
-4.07643e-08 -2.27634e-11 0
-4.07807e-08 -1.53683e-11 0
-4.0792e-08 -1.03106e-11 0
-4.07998e-08 -6.87293e-12 0
-4.08053e-08 -4.55818e-12 0
-4.08092e-08 -3.02589e-12 0
-4.08119e-08 -2.05043e-12 0
-4.08137e-08 -1.49592e-12 0
-4.08149e-08 -1.30006e-12 0
-4.08159e-08 -1.47714e-12 0
-4.08168e-08 -2.13308e-12 0
-4.08179e-08 -3.58256e-12 0
-4.08206e-08 -6.17037e-12 0
0.00805301 6.40012e-08 0
0 -4.72377e-07 0
-2.24066e-13 -3.37757e-10 0
3.49299e-10 -1.37267e-09 0
-4.44821e-09 -2.57724e-09 0
-1.58699e-08 -2.84865e-09 0
-2.89017e-08 -1.89329e-09 0
-3.26803e-08 4.00199e-10 0
-2.96969e-08 -1.67195e-09 0
-3.4232e-08 -3.47531e-09 0
-3.19686e-08 8.26729e-10 0
-2.97917e-08 5.05884e-09 0
-3.33397e-08 7.91082e-09 0
-3.56091e-08 8.443e-09 0
-3.05424e-08 6.6365e-09 0
-1.76943e-08 3.51164e-09 0
-5.55096e-09 -5.72942e-10 0
-3.28518e-09 -4.23247e-09 0
-1.08817e-08 -5.63862e-09 0
-2.14774e-08 -4.63256e-09 0
-2.9628e-08 -2.65314e-09 0
-3.4265e-08 -1.04332e-09 0
-3.66019e-08 -2.1501e-10 0
-3.79173e-08 3.36854e-11 0
-3.8882e-08 1.57946e-11 0
-3.97144e-08 -6.57386e-11 0
-4.04434e-08 -1.26979e-10 0
-4.10553e-08 -1.51353e-10 0
-4.1545e-08 -1.47616e-10 0
-4.19215e-08 -1.28738e-10 0
-4.22024e-08 -1.04607e-10 0
-4.24074e-08 -8.10086e-11 0
-4.25547e-08 -6.06175e-11 0
-4.26592e-08 -4.42193e-11 0
-4.27327e-08 -3.16336e-11 0
-4.2784e-08 -2.22819e-11 0
-4.28196e-08 -1.54954e-11 0
-4.28443e-08 -1.06575e-11 0
-4.28612e-08 -7.25695e-12 0
-4.28729e-08 -4.89449e-12 0
-4.28811e-08 -3.27059e-12 0
-4.28868e-08 -2.16732e-12 0
-4.28909e-08 -1.43045e-12 0
-4.28939e-08 -9.53958e-13 0
-4.2896e-08 -6.69422e-13 0
-4.28974e-08 -5.40185e-13 0
-4.28985e-08 -5.55381e-13 0
-4.28996e-08 -7.35361e-13 0
-4.29007e-08 -1.11064e-12 0
-4.29024e-08 -1.71736e-12 0
-4.2906e-08 -2.78367e-12 0
0.0056285 2.42692e-08 0
0 0 0
6.54659e-13 0 0
2.47722e-10 0 0
-2.21671e-09 0 0
-7.53393e-09 0 0
-1.37257e-08 0 0
-1.69376e-08 0 0
-1.5656e-08 0 0
-1.83414e-08 0 0
-1.82979e-08 0 0
-1.48191e-08 0 0
-1.03175e-08 0 0
-6.42627e-09 0 0
-3.39404e-09 0 0
-5.28872e-10 0 0
7.25142e-10 0 0
-1.41693e-09 0 0
-6.14876e-09 0 0
-1.09487e-08 0 0
-1.41477e-08 0 0
-1.56779e-08 0 0
-1.62116e-08 0 0
-1.63558e-08 0 0
-1.64246e-08 0 0
-1.65187e-08 0 0
-1.6643e-08 0 0
-1.67769e-08 0 0
-1.6902e-08 0 0
-1.70087e-08 0 0
-1.70941e-08 0 0
-1.71596e-08 0 0
-1.72084e-08 0 0
-1.72439e-08 0 0
-1.72694e-08 0 0
-1.72874e-08 0 0
-1.73001e-08 0 0
-1.73088e-08 0 0
-1.73149e-08 0 0
-1.73191e-08 0 0
-1.73221e-08 0 0
-1.73242e-08 0 0
-1.73257e-08 0 0
-1.73269e-08 0 0
-1.73277e-08 0 0
-1.73283e-08 0 0
-1.73287e-08 0 0
-1.73292e-08 0 0
-1.73298e-08 0 0
-1.73307e-08 0 0
-1.73324e-08 0 0
0.00196214 0 0
0 0 5.27418e-07
-1.52247e-12 0 -3.0595e-11
2.39396e-09 0 1.65917e-09
8.96051e-09 0 9.87324e-09
-2.01147e-08 0 7.09702e-09
7.51563e-09 0 -1.18781e-09
1.33438e-08 0 -2.75812e-10
1.2202e-08 0 -7.81544e-10
1.30155e-08 0 -8.94232e-10
1.47042e-08 0 5.68306e-11
1.72794e-08 0 8.28792e-10
2.0993e-08 0 5.91345e-10
2.31539e-08 0 -3.2154e-11
2.00635e-08 0 -1.65585e-10
1.15735e-08 0 3.48813e-11
1.40291e-09 0 2.90606e-11
-7.1113e-09 0 -1.29276e-10
-1.34693e-08 0 -8.54469e-11
-1.88242e-08 0 2.29725e-10
-2.40824e-08 0 6.08689e-10
-2.93092e-08 0 8.49905e-10
-3.41109e-08 0 8.93634e-10
-3.81124e-08 0 7.88844e-10
-4.11616e-08 0 6.16025e-10
-4.33123e-08 0 4.38467e-10
-4.47286e-08 0 2.89485e-10
-4.56014e-08 0 1.78835e-10
-4.61007e-08 0 1.03395e-10
-4.63593e-08 0 5.53078e-11
-4.64719e-08 0 2.64328e-11
-4.65019e-08 0 1.01259e-11
-4.64894e-08 0 1.58599e-12
-4.64584e-08 0 -2.40099e-12
-4.64225e-08 0 -3.86898e-12
-4.63884e-08 0 -4.04436e-12
-4.63592e-08 0 -3.63169e-12
-4.63355e-08 0 -3.01352e-12
-4.63171e-08 0 -2.38215e-12
-4.63033e-08 0 -1.82255e-12
-4.62933e-08 0 -1.36251e-12
-4.62862e-08 0 -1.00135e-12
-4.62814e-08 0 -7.25516e-13
-4.62782e-08 0 -5.18463e-13
-4.6276e-08 0 -3.64917e-13
-4.62746e-08 0 -2.49145e-13
-4.62738e-08 0 -1.60664e-13
-4.62734e-08 0 -9.72781e-14
-4.62736e-08 0 -8.328e-14
-4.62744e-08 0 -5.52487e-14
-4.6277e-08 0 7.78654e-13
0.00557237 0 -4.12764e-09
0.0036 -3.04112e-07 -6.23062e-08
0.0035998 -0.00138528 -2.20901e-05
0.00671542 -0.00391381 0.000106858
0.0136065 -0.00591332 -0.000544065
0.0235331 -0.0144248 -0.00430426
0.0462831 -0.013295 -0.00487881
0.0497767 -0.0018753 -0.00164657
0.0495148 0.00267916 -0.000168976
0.0445239 0.00500575 0.000558036
0.0389092 0.00517248 0.000530619
0.0337838 0.00450602 0.000248197
0.0294663 0.00362129 -2.89248e-05
0.0260489 0.00273204 -0.000216166
0.0234738 0.00193481 -0.000303244
0.0215784 0.00129646 -0.000306056
0.0201809 0.000843917 -0.000250701
0.0191415 0.000554496 -0.000170105
0.018368 0.00037833 -9.41389e-05
0.0177999 0.000267651 -3.92245e-05
0.0173927 0.000191569 -7.48751e-06
0.0171099 0.000135126 6.79422e-06
0.0169206 9.23611e-05 1.07923e-05
0.0167988 6.06656e-05 9.98746e-06
0.0167237 3.8117e-05 7.61403e-06
0.0166796 2.27902e-05 5.20536e-06
0.0166551 1.28331e-05 3.3017e-06
0.0166425 6.65078e-06 1.97227e-06
0.0166369 2.99442e-06 1.11379e-06
0.0166351 9.5497e-07 5.90738e-07
0.0166352 -9.33214e-08 2.87608e-07
0.0166362 -5.61865e-07 1.20608e-07
0.0166374 -7.10235e-07 3.40915e-08
0.0166386 -6.95667e-07 -6.86828e-09
0.0166396 -6.09144e-07 -2.32531e-08
0.0166404 -5.00375e-07 -2.71868e-08
0.0166411 -3.9435e-07 -2.53994e-08
0.0166416 -3.01921e-07 -2.14517e-08
0.016642 -2.26304e-07 -1.71071e-08
0.0166422 -1.66941e-07 -1.31479e-08
0.0166424 -1.21668e-07 -9.84505e-09
0.0166426 -8.78794e-08 -7.22019e-09
0.0166427 -6.31006e-08 -5.19668e-09
0.0166428 -4.52305e-08 -3.68167e-09
0.0166428 -3.25878e-08 -2.57585e-09
0.0166429 -2.39146e-08 -1.79336e-09
0.0166429 -1.83047e-08 -1.20004e-09
0.0166429 -1.51504e-08 -4.25748e-10
0.0166429 -1.43711e-08 1.77105e-09
0.016643 -1.98386e-08 5.66929e-09
0.016643 -5.74987e-08 -4.57958e-09
0.0166431 -8.99374e-08 -1.70318e-08
0.01 -1.37318e-07 -1.43408e-06
0.0100007 -0.00298967 -0.000598425
0.0147895 -0.00994329 -0.000786888
0.024159 -0.0177102 -0.00126125
0.0384893 -0.0324452 -0.00336317
0.0591128 -0.0247284 -0.000818119
0.0563664 -0.0026881 0.00316608
0.0558058 0.00513521 0.00337689
0.0500234 0.0101368 0.00297952
0.0445388 0.0103127 0.00205846
0.0400273 0.00925696 0.00109045
0.0363102 0.00783239 0.000342528
0.0333363 0.00631118 -0.000169929
0.031057 0.00488526 -0.000459245
0.0293126 0.00367846 -0.000539839
0.0279634 0.00271943 -0.000468066
0.0269272 0.00197928 -0.00032671
0.0261519 0.00141709 -0.000186278
0.025592 0.000995852 -8.27613e-05
0.0252026 0.000684712 -2.15131e-05
0.0249424 0.000458794 7.44883e-06
0.0247763 0.000298349 1.69803e-05
0.0246756 0.000187502 1.70506e-05
0.0246186 0.000113313 1.36697e-05
0.024589 6.53376e-05 9.79074e-06
0.0245759 3.54295e-05 6.54485e-06
0.024572 1.75186e-05 4.17277e-06
0.0245727 7.28709e-06 2.56713e-06
0.0245753 1.79212e-06 1.5331e-06
0.0245786 -8.95793e-07 8.9075e-07
0.0245817 -1.99665e-06 5.03079e-07
0.0245844 -2.2545e-06 2.75094e-07
0.0245865 -2.10552e-06 1.44411e-07
0.0245882 -1.79358e-06 7.15629e-08
0.0245895 -1.44661e-06 3.22835e-08
0.0245904 -1.12533e-06 1.20085e-08
0.0245911 -8.53364e-07 2.19381e-09
0.0245916 -6.35128e-07 -2.05857e-09
0.0245919 -4.66127e-07 -3.4867e-09
0.0245922 -3.38534e-07 -3.57466e-09
0.0245924 -2.44046e-07 -3.09093e-09
0.0245925 -1.75179e-07 -2.41936e-09
0.0245926 -1.25768e-07 -1.7688e-09
0.0245927 -9.09895e-08 -1.22137e-09
0.0245927 -6.72675e-08 -7.74051e-10
0.0245927 -5.22544e-08 -2.48319e-10
0.0245928 -4.51091e-08 1.09119e-09
0.0245928 -5.05841e-08 4.18708e-09
0.0245929 -7.9088e-08 6.91994e-09
0.0245929 -1.50825e-07 -1.62048e-08
0.024593 -2.01146e-07 -3.99851e-08
0.0148 -9.46707e-07 -1.72055e-06
0.0148023 -0.00529112 -0.00112819
0.020366 -0.0163978 -0.00243976
0.0274893 -0.0287426 -0.00394184
0.0321107 -0.046057 -0.00576093
0.0305957 -0.0284404 -0.00140551
0.0268342 -1.21125e-05 0.0032921
0.0262793 0.0070858 0.00351349
0.0298173 0.0144961 0.00340852
0.0301775 0.0139756 0.00242047
0.0293731 0.0122233 0.00143546
0.0285401 0.0103848 0.000587754
0.0278977 0.00847097 -1.60487e-05
0.0275676 0.00663593 -0.000360901
0.0274374 0.00504389 -0.000459932
0.0274133 0.00372547 -0.000393912
0.0274466 0.00267161 -0.000260371
0.0275084 0.00186366 -0.000130101
0.0275787 0.00126852 -3.59661e-05
0.0276458 0.000842947 1.73462e-05
0.0277058 0.000544894 3.90466e-05
0.0277587 0.000340247 4.16274e-05
0.0278049 0.000203235 3.53415e-05
0.0278447 0.000114469 2.66097e-05
0.0278779 5.92365e-05 1.85744e-05
0.0279048 2.65004e-05 1.23063e-05
0.0279258 8.24974e-06 7.84604e-06
0.0279418 -1.08563e-06 4.85334e-06
0.0279536 -5.20554e-06 2.92619e-06
0.0279621 -6.45826e-06 1.72339e-06
0.0279682 -6.26686e-06 9.91788e-07
0.0279724 -5.45094e-06 5.56882e-07
0.0279754 -4.45387e-06 3.03963e-07
0.0279774 -3.49489e-06 1.60154e-07
0.0279788 -2.6663e-06 8.03846e-08
0.0279798 -1.99295e-06 3.74151e-08
0.0279805 -1.467e-06 1.51273e-08
0.0279809 -1.06737e-06 4.17676e-09
0.0279812 -7.69789e-07 -7.42508e-10
0.0279814 -5.51602e-07 -2.57404e-09
0.0279816 -3.93627e-07 -2.90173e-09
0.0279817 -2.80542e-07 -2.55291e-09
0.0279818 -2.00602e-07 -1.97749e-09
0.0279818 -1.45154e-07 -1.36975e-09
0.0279819 -1.08134e-07 -6.75727e-10
0.0279819 -8.63711e-08 3.13932e-10
0.0279819 -7.99693e-08 2.28447e-09
0.0279819 -9.28335e-08 4.41655e-09
0.027982 -1.30674e-07 -7.28627e-10
0.027982 -1.8635e-07 -3.56992e-08
0.027982 -2.16214e-07 -6.47684e-08
0.018 -1.90879e-06 -1.67422e-06
0.0180029 -0.0069805 -0.00188032
0.0207555 -0.0189293 -0.00492036
0.0206939 -0.0248757 -0.00632895
0.0160692 -0.0269198 -0.00761262
-1.57559e-06 -0.0140024 -0.0043247
9.59501e-05 2.60465e-05 9.04459e-07
-3.29589e-05 3.42961e-05 0.000649509
0.00660554 0.00413334 0.0014214
0.0135491 0.00941241 0.00137984
0.0169856 0.0102867 0.00096354
0.0187391 0.00933022 0.000414702
0.0204142 0.00772872 -7.45483e-05
0.0221034 0.00597023 -0.000330895
0.0236406 0.00442302 -0.000376297
0.0249537 0.00314624 -0.000304186
0.026036 0.00214248 -0.000192678
0.0269004 0.00140052 -8.72855e-05
0.0275655 0.000883528 -8.98666e-06
0.0280585 0.000537569 3.68838e-05
0.0284133 0.000311208 5.49743e-05
0.0286638 0.000165917 5.46958e-05
0.0288389 7.56218e-05 4.54333e-05
0.0289602 2.25533e-05 3.38257e-05
0.0290434 -5.94484e-06 2.33704e-05
0.0290999 -1.90128e-05 1.52917e-05
0.0291377 -2.30573e-05 9.59551e-06
0.0291626 -2.23238e-05 5.81871e-06
0.0291788 -1.94379e-05 3.42418e-06
0.0291893 -1.58989e-05 1.95848e-06
0.0291959 -1.24794e-05 1.08767e-06
0.0292001 -9.51611e-06 5.84199e-07
0.0292027 -7.10485e-06 3.00843e-07
0.0292044 -5.22142e-06 1.45929e-07
0.0292054 -3.79144e-06 6.4089e-08
0.0292061 -2.72783e-06 2.27554e-08
0.0292065 -1.94874e-06 3.23373e-09
0.0292067 -1.38467e-06 -4.95018e-09
0.0292069 -9.80008e-07 -7.51687e-09
0.029207 -6.91862e-07 -7.49659e-09
0.0292071 -4.88057e-07 -6.42458e-09
0.0292071 -3.44946e-07 -5.03802e-09
0.0292071 -2.45469e-07 -3.68386e-09
0.0292072 -1.77668e-07 -2.45844e-09
0.0292072 -1.3376e-07 -1.25013e-09
0.0292072 -1.09301e-07 -1.12668e-10
0.0292072 -1.01878e-07 8.92894e-10
0.0292072 -1.07798e-07 2.16915e-10
0.0292072 -1.23598e-07 -1.33995e-08
0.0292072 -1.32706e-07 -5.23503e-08
0.0292071 -1.31618e-07 -7.88593e-08
0.0196 -2.76156e-06 -2.52895e-06
0.019601 -0.00588034 -0.00274488
0.0190618 -0.0131189 -0.00647103
0.0159643 -0.0161198 -0.0066756
0.0109316 -0.0150962 -0.00668333
0.00175243 -0.0062178 -0.00503525
7.15003e-05 -6.56583e-05 -0.00129893
3.26994e-05 -3.26994e-05 -3.98947e-08
-3.23544e-05 3.35635e-05 0.000253493
0.00397432 0.00283442 0.000538417
0.00913279 0.00665843 0.000466791
0.0120558 0.00698612 0.000117785
0.0153035 0.00544825 -0.000259946
0.0184584 0.00387144 -0.000410952
0.0211589 0.00262001 -0.000395845
0.0233435 0.00164453 -0.00031226
0.0250675 0.000913813 -0.000213276
0.0263984 0.000417974 -0.00011975
0.0273926 0.000122369 -4.27317e-05
0.0281055 -3.17613e-05 9.84208e-06
0.0285972 -0.000101055 3.65491e-05
0.0289261 -0.000124435 4.30911e-05
0.0291411 -0.000123993 3.8117e-05
0.0292788 -0.000111669 2.89426e-05
0.0293656 -9.42974e-05 1.9894e-05
0.0294192 -7.59863e-05 1.27283e-05
0.0294517 -5.90785e-05 7.70235e-06
0.0294709 -4.46781e-05 4.44687e-06
0.0294821 -3.30726e-05 2.45711e-06
0.0294884 -2.40836e-05 1.29621e-06
0.0294918 -1.73207e-05 6.46239e-07
0.0294936 -1.2341e-05 2.96906e-07
0.0294945 -8.73212e-06 1.17638e-07
0.0294949 -6.14717e-06 3.10514e-08
0.0294951 -4.31151e-06 -6.98127e-09
0.0294951 -3.0161e-06 -2.07663e-08
0.0294951 -2.10613e-06 -2.32294e-08
0.0294951 -1.4691e-06 -2.0976e-08
0.029495 -1.02433e-06 -1.72117e-08
0.029495 -7.1457e-07 -1.3374e-08
0.029495 -4.9944e-07 -1.00049e-08
0.029495 -3.50681e-07 -7.22898e-09
0.0294949 -2.4871e-07 -5.03688e-09
0.0294949 -1.80153e-07 -3.37813e-09
0.0294949 -1.3583e-07 -2.23975e-09
0.0294949 -1.08635e-07 -1.88034e-09
0.0294949 -9.21722e-08 -2.61921e-09
0.0294949 -7.90465e-08 -5.28456e-09
0.0294948 -6.13032e-08 -2.18607e-08
0.0294948 -2.31726e-08 -5.78298e-08
0.0294947 4.02671e-09 -7.92298e-08
0.0196 -1.32644e-06 -3.51988e-06
0.0195999 -0.00367312 -0.00312383
0.0187841 -0.00804828 -0.00650927
0.0175389 -0.00805015 -0.00604914
0.0132343 -0.00420956 -0.00554811
0.00913819 0.00264405 -0.00531855
0.00616231 0.00317995 -0.0030902
7.16589e-05 -5.96578e-05 -0.000659751
2.73034e-05 -2.73034e-05 -1.25048e-07
-3.18146e-05 3.28942e-05 9.05361e-05
0.00279697 0.00205912 0.000352029
0.0071745 0.00326655 0.000260582
0.0124834 0.00166403 -0.000146118
0.0171356 0.000526915 -0.000318117
0.0207347 -8.15954e-05 -0.00032498
0.0233964 -0.000458535 -0.00027475
0.0253354 -0.000698514 -0.000216276
0.0267254 -0.000797731 -0.000156104
0.0276894 -0.000769139 -9.52692e-05
0.0283261 -0.000662261 -4.29054e-05
0.0287241 -0.000530205 -7.72149e-06
0.0289601 -0.000405943 9.49604e-06
0.029093 -0.00030221 1.40685e-05
0.0291637 -0.000220564 1.2341e-05
0.0291988 -0.000158422 8.73301e-06
0.0292143 -0.000112256 5.39772e-06
0.0292196 -7.86557e-05 2.99584e-06
0.0292202 -5.46324e-05 1.49336e-06
0.0292187 -3.77081e-05 6.45535e-07
0.0292165 -2.59204e-05 2.09998e-07
0.0292145 -1.77774e-05 9.52939e-09
0.0292127 -1.2182e-05 -6.78144e-08
0.0292112 -8.34892e-06 -8.62547e-08
0.0292101 -5.72637e-06 -7.98634e-08
0.0292093 -3.93214e-06 -6.53576e-08
0.0292087 -2.70373e-06 -5.01688e-08
0.0292083 -1.86176e-06 -3.7093e-08
0.029208 -1.28398e-06 -2.6793e-08
0.0292077 -8.87094e-07 -1.90617e-08
0.0292076 -6.14348e-07 -1.34163e-08
0.0292075 -4.27025e-07 -9.34752e-09
0.0292074 -2.98701e-07 -6.43446e-09
0.0292073 -2.11227e-07 -4.4322e-09
0.0292073 -1.5182e-07 -3.22992e-09
0.0292072 -1.10973e-07 -2.8216e-09
0.0292072 -8.09594e-08 -3.30279e-09
0.0292072 -5.49088e-08 -4.70307e-09
0.0292071 -2.53667e-08 -7.27847e-09
0.0292071 1.89819e-08 -2.11036e-08
0.029207 9.23742e-08 -5.02546e-08
0.029207 1.3811e-07 -6.72401e-08
0.018 -8.4939e-07 -3.50757e-06
0.0180009 -0.0019984 -0.00304612
0.0183239 -0.00384051 -0.00615163
0.0183923 -0.00260199 -0.00528599
0.0173913 0.000706967 -0.00420937
0.0171259 0.00713758 -0.00396722
0.0178616 0.0126056 -0.00297586
0.0109797 0.00693405 -0.00146893
7.31278e-05 -4.61877e-05 -0.000427649
-2.49855e-05 -5.37318e-05 5.45917e-07
7.73741e-06 -0.000645502 0.000742929
0.00837393 -0.00272396 0.00108502
0.0157749 -0.004313 0.000471881
0.020811 -0.00408143 0.000179564
0.0239877 -0.00332299 6.57041e-05
0.0259427 -0.00265448 -1.55893e-06
0.0271207 -0.00215367 -6.54118e-05
0.0277952 -0.00173639 -0.000110563
0.0281403 -0.00135031 -0.000118693
0.0282783 -0.00100178 -9.65339e-05
0.0282987 -0.000713384 -6.43381e-05
0.0282628 -0.000493667 -3.71266e-05
0.0282078 -0.000335582 -1.94863e-05
0.0281532 -0.000225675 -9.8026e-06
0.0281069 -0.000150769 -5.00631e-06
0.0280708 -0.000100347 -2.73022e-06
0.0280441 -6.66914e-05 -1.62244e-06
0.028025 -4.43488e-05 -1.0333e-06
0.0280116 -2.95569e-05 -6.82701e-07
0.0280023 -1.97659e-05 -4.55472e-07
0.0279959 -1.32724e-05 -3.02203e-07
0.0279915 -8.95055e-06 -1.98159e-07
0.0279885 -6.06135e-06 -1.28258e-07
0.0279865 -4.1206e-06 -8.2046e-08
0.027985 -2.8108e-06 -5.19927e-08
0.0279841 -1.923e-06 -3.27277e-08
0.0279834 -1.31901e-06 -2.052e-08
0.0279829 -9.06854e-07 -1.28491e-08
0.0279826 -6.24988e-07 -8.05486e-09
0.0279824 -4.31977e-07 -5.06682e-09
0.0279823 -2.99748e-07 -3.20743e-09
0.0279821 -2.09068e-07 -2.0772e-09
0.0279821 -1.46496e-07 -1.50097e-09
0.027982 -1.02344e-07 -1.39119e-09
0.027982 -6.92735e-08 -1.69047e-09
0.0279819 -4.11925e-08 -2.37038e-09
0.0279819 -1.22455e-08 -3.32061e-09
0.0279819 2.43388e-08 -4.67627e-09
0.0279818 8.11216e-08 -1.24094e-08
0.0279818 1.67627e-07 -3.31576e-08
0.0279818 2.18508e-07 -4.70137e-08
0.0148 -4.76972e-07 -3.10749e-06
0.0148015 -0.00102689 -0.00282363
0.016237 -0.00161475 -0.00541707
0.0178216 2.60581e-05 -0.00429509
0.0191808 0.00324365 -0.00309081
0.020952 0.00740121 -0.00286834
0.0247726 0.0129804 -0.00241139
0.028062 0.0195296 -0.00149721
0.0230619 0.0113211 -0.000328735
0.0235039 2.19584e-11 0.000629048
0.0266485 -0.00667896 0.00155797
0.0301514 -0.0130523 0.00210781
0.0310864 -0.0110284 0.00164948
0.0305644 -0.00777685 0.00117747
0.0295419 -0.00519407 0.000747141
0.0284817 -0.00347375 0.000382099
0.0275516 -0.00235957 9.95554e-05
0.0267884 -0.00160358 -7.78661e-05
0.0261843 -0.00106798 -0.000147724
0.0257209 -0.000691811 -0.000142086
0.0253761 -0.000439252 -0.000104753
0.0251272 -0.000277291 -6.59828e-05
0.0249524 -0.00017613 -3.75133e-05
0.0248324 -0.000113233 -1.99292e-05
0.0247515 -7.37503e-05 -1.01261e-05
0.0246977 -4.85945e-05 -4.99452e-06
0.0246622 -3.23309e-05 -2.40931e-06
0.0246388 -2.16832e-05 -1.13623e-06
0.0246235 -1.46386e-05 -5.18232e-07
0.0246134 -9.93628e-06 -2.2198e-07
0.0246067 -6.77388e-06 -8.25432e-08
0.0246022 -4.63376e-06 -1.91791e-08
0.0245992 -3.1781e-06 7.55771e-09
0.0245972 -2.18401e-06 1.69696e-08
0.0245958 -1.50308e-06 1.85072e-08
0.0245948 -1.0356e-06 1.67699e-08
0.0245942 -7.14193e-07 1.39518e-08
0.0245938 -4.93009e-07 1.10511e-08
0.0245935 -3.40734e-07 8.47436e-09
0.0245933 -2.35856e-07 6.34196e-09
0.0245931 -1.63497e-07 4.64554e-09
0.024593 -1.13241e-07 3.31831e-09
0.0245929 -7.76495e-08 2.259e-09
0.0245929 -5.12091e-08 1.40105e-09
0.0245929 -2.95258e-08 7.07936e-10
0.0245928 -8.65687e-09 1.64742e-10
0.0245928 1.55794e-08 -6.9203e-11
0.0245928 4.77466e-08 -1.92613e-10
0.0245928 9.5564e-08 -2.60762e-09
0.0245929 1.61842e-07 -1.70635e-08
0.0245929 1.9896e-07 -2.92294e-08
0.01 -9.10189e-07 -2.81303e-06
0.0100007 -0.000629842 -0.0022996
0.0113323 -0.000696678 -0.00414078
0.0132255 0.000579687 -0.00292367
0.0157093 0.00255402 -0.00184357
0.0196619 0.00559608 -0.00185388