# vtk DataFile Version 2.0
Tobias Weinzierl: CPU, Manycore and Cluster Computing
ASCII

DATASET STRUCTURED_POINTS
DIMENSIONS  51 11 6

ORIGIN 0 0 0 

SPACING 0.1 0.1 0.1 

POINT_DATA 3366

VECTORS velocity float
0 0 0
1.9833e-11 0 0
-4.38041e-08 0 0
-1.52572e-07 0 0
-2.5163e-07 0 0
-9.71135e-08 0 0
-3.59712e-08 0 0
-4.07445e-10 0 0
8.9327e-09 0 0
-2.2268e-08 0 0
-7.02808e-08 0 0
-1.06511e-07 0 0
-1.21234e-07 0 0
-1.20913e-07 0 0
-1.15671e-07 0 0
-1.11721e-07 0 0
-1.10542e-07 0 0
-1.1129e-07 0 0
-1.12798e-07 0 0
-1.1432e-07 0 0
-1.15535e-07 0 0
-1.16386e-07 0 0
-1.16927e-07 0 0
-1.1724e-07 0 0
-1.17404e-07 0 0
-1.17475e-07 0 0
-1.17495e-07 0 0
-1.17489e-07 0 0
-1.1747e-07 0 0
-1.17449e-07 0 0
-1.17429e-07 0 0
-1.17411e-07 0 0
-1.17397e-07 0 0
-1.17385e-07 0 0
-1.17377e-07 0 0
-1.1737e-07 0 0
-1.17365e-07 0 0
-1.17362e-07 0 0
-1.17359e-07 0 0
-1.17357e-07 0 0
-1.17355e-07 0 0
-1.17354e-07 0 0
-1.17353e-07 0 0
-1.17353e-07 0 0
-1.17353e-07 0 0
-1.17353e-07 0 0
-1.17355e-07 0 0
-1.17357e-07 0 0
-1.17359e-07 0 0
-1.17368e-07 0 0
0.0024021 0 0
0 4.25262e-07 0
6.47834e-11 1.28098e-08 0
-7.16346e-08 4.15477e-08 0
-2.73792e-07 6.18517e-08 0
-4.20939e-07 4.12067e-08 0
-1.73561e-07 5.91059e-08 0
-1.0535e-07 1.05865e-07 0
-6.72314e-08 8.77608e-08 0
-2.83649e-08 6.62601e-08 0
-4.90544e-08 6.87483e-08 0
-1.14353e-07 6.38452e-08 0
-1.74958e-07 4.38383e-08 0
-2.04647e-07 1.96404e-08 0
-2.09705e-07 3.21207e-09 0
-2.07896e-07 -2.58921e-09 0
-2.09702e-07 -1.98836e-09 0
-2.16065e-07 1.55793e-10 0
-2.24262e-07 1.56943e-09 0
-2.31917e-07 1.97264e-09 0
-2.37952e-07 1.76041e-09 0
-2.42221e-07 1.32168e-09 0
-2.45008e-07 8.80071e-10 0
-2.46708e-07 5.26051e-10 0
-2.47677e-07 2.76481e-10 0
-2.48186e-07 1.16747e-10 0
-2.48423e-07 2.35331e-11 0
-2.48508e-07 -2.50198e-11 0
-2.48514e-07 -4.59117e-11 0
-2.48486e-07 -5.10216e-11 0
-2.48445e-07 -4.80195e-11 0
-2.48403e-07 -4.15216e-11 0
-2.48366e-07 -3.41048e-11 0
-2.48336e-07 -2.70727e-11 0
-2.48312e-07 -2.09817e-11 0
-2.48293e-07 -1.59796e-11 0
-2.48279e-07 -1.20116e-11 0
-2.48268e-07 -8.93752e-12 0
-2.48261e-07 -6.59473e-12 0
-2.48255e-07 -4.82877e-12 0
-2.48251e-07 -3.50579e-12 0
-2.48247e-07 -2.51547e-12 0
-2.48245e-07 -1.76892e-12 0
-2.48243e-07 -1.19482e-12 0
-2.48242e-07 -7.36501e-13 0
-2.48242e-07 -3.34127e-13 0
-2.48244e-07 1.21435e-13 0
-2.48247e-07 7.28118e-13 0
-2.48253e-07 1.69913e-12 0
-2.48262e-07 6.06123e-12 0
-2.48283e-07 2.22067e-11 0
0.00662685 -1.48337e-07 0
0 9.08287e-10 0
9.93076e-11 1.43473e-08 0
-9.77339e-09 -7.42045e-10 0
-1.55088e-07 -9.10324e-08 0
-2.01802e-07 -1.47584e-07 0
-2.33113e-08 -1.36052e-08 0
-9.87494e-08 1.43951e-07 0
-1.3065e-07 1.18069e-07 0
-1.00909e-07 4.1416e-08 0
-7.89061e-08 1.05665e-08 0
-1.1147e-07 5.58029e-09 0
-1.54516e-07 1.96154e-08 0
-1.77933e-07 3.87597e-08 0
-1.79495e-07 4.76762e-08 0
-1.7515e-07 4.53527e-08 0
-1.76347e-07 3.78432e-08 0
-1.83755e-07 2.92887e-08 0
-1.93581e-07 2.14172e-08 0
-2.02649e-07 1.48877e-08 0
-2.09601e-07 9.86765e-09 0
-2.14338e-07 6.24179e-09 0
-2.17295e-07 3.75875e-09 0
-2.19005e-07 2.13787e-09 0
-2.19916e-07 1.12757e-09 0
-2.20352e-07 5.27671e-10 0
-2.20522e-07 1.9099e-10 0
-2.20555e-07 1.56593e-11 0
-2.20526e-07 -6.53772e-11 0
-2.20473e-07 -9.42971e-11 0
-2.20417e-07 -9.64868e-11 0
-2.20366e-07 -8.65302e-11 0
-2.20324e-07 -7.23559e-11 0
-2.2029e-07 -5.79601e-11 0
-2.20264e-07 -4.51199e-11 0
-2.20245e-07 -3.44272e-11 0
-2.2023e-07 -2.58871e-11 0
-2.2022e-07 -1.92501e-11 0
-2.20212e-07 -1.41856e-11 0
-2.20206e-07 -1.03661e-11 0
-2.20202e-07 -7.50218e-12 0
-2.20199e-07 -5.35106e-12 0
-2.20196e-07 -3.71258e-12 0
-2.20195e-07 -2.41363e-12 0
-2.20194e-07 -1.28839e-12 0
-2.20194e-07 -1.64558e-13 0
-2.20196e-07 1.28055e-12 0
-2.20201e-07 4.08543e-12 0
-2.20207e-07 1.01472e-11 0
-2.20214e-07 1.97585e-11 0
-2.20228e-07 3.22135e-11 0
0.00897335 -2.36012e-07 0
0 -6.13644e-07 0
1.02416e-10 -1.2237e-08 0
4.39223e-08 -8.40657e-08 0
-7.08122e-08 -2.27348e-07 0
-1.27394e-07 -3.01414e-07 0
5.3137e-08 -1.45981e-07 0
-2.9359e-08 -1.0345e-10 0
-6.38262e-08 -3.55394e-08 0
-1.35716e-07 -1.02855e-07 0
-1.45794e-07 -1.26144e-07 0
-1.75308e-07 -8.8867e-08 0
-2.12259e-07 -1.98194e-08 0
-2.2689e-07 4.39456e-08 0
-2.14073e-07 7.07687e-08 0
-1.8889e-07 6.88047e-08 0
-1.68142e-07 5.64021e-08 0
-1.57514e-07 4.26748e-08 0
-1.54532e-07 3.04175e-08 0
-1.55071e-07 2.04781e-08 0
-1.56437e-07 1.30303e-08 0
-1.5752e-07 7.82686e-09 0
-1.58101e-07 4.40775e-09 0
-1.58285e-07 2.28329e-09 0
-1.58238e-07 1.03472e-09 0
-1.58087e-07 3.45482e-10 0
-1.57909e-07 -4.77605e-12 0
-1.57742e-07 -1.60198e-10 0
-1.57602e-07 -2.10266e-10 0
-1.57491e-07 -2.079e-10 0
-1.57407e-07 -1.8286e-10 0
-1.57345e-07 -1.50907e-10 0
-1.57299e-07 -1.19714e-10 0
-1.57266e-07 -9.24965e-11 0
-1.57242e-07 -7.01605e-11 0
-1.57226e-07 -5.25123e-11 0
-1.57214e-07 -3.89134e-11 0
-1.57205e-07 -2.86123e-11 0
-1.57199e-07 -2.08988e-11 0
-1.57195e-07 -1.51623e-11 0
-1.57191e-07 -1.09028e-11 0
-1.57189e-07 -7.71924e-12 0
-1.57187e-07 -5.28787e-12 0
-1.57186e-07 -3.33545e-12 0
-1.57185e-07 -1.57802e-12 0
-1.57185e-07 3.81876e-13 0
-1.57187e-07 2.98458e-12 0
-1.57189e-07 6.28365e-12 0
-1.57191e-07 1.00433e-11 0
-1.5719e-07 1.47468e-11 0
-1.57193e-07 2.16076e-11 0
0.00961206 -1.99216e-07 0
0 -1.17743e-06 0
3.40488e-11 -5.01572e-08 0
1.97472e-08 -1.44529e-07 0
-1.05044e-07 -2.01148e-07 0
-2.11884e-07 -1.65203e-07 0
-5.02517e-11 -5.84909e-08 0
8.02952e-13 -1.23622e-10 0
5.38065e-11 -9.22373e-11 0
-7.21051e-08 -7.83721e-08 0
-1.9361e-07 -1.60282e-07 0
-2.28848e-07 -1.1968e-07 0
-2.53423e-07 -2.69231e-08 0
-2.6893e-07 4.47408e-08 0
-2.59794e-07 6.65713e-08 0
-2.28916e-07 5.76728e-08 0
-1.93673e-07 4.33933e-08 0
-1.67265e-07 3.14581e-08 0
-1.51619e-07 2.17786e-08 0
-1.43236e-07 1.39795e-08 0
-1.38648e-07 8.14453e-09 0
-1.35875e-07 4.18616e-09 0
-1.34027e-07 1.7498e-09 0
-1.32734e-07 3.9219e-10 0
-1.3182e-07 -2.76896e-10 0
-1.31182e-07 -5.44273e-10 0
-1.30744e-07 -5.97854e-10 0
-1.30449e-07 -5.50562e-10 0
-1.30252e-07 -4.65195e-10 0
-1.30123e-07 -3.73805e-10 0
-1.30038e-07 -2.90869e-10 0
-1.29982e-07 -2.21474e-10 0
-1.29946e-07 -1.66096e-10 0
-1.29922e-07 -1.23219e-10 0
-1.29906e-07 -9.06909e-11 0
-1.29896e-07 -6.63579e-11 0
-1.29889e-07 -4.83349e-11 0
-1.29884e-07 -3.50764e-11 0
-1.29881e-07 -2.53649e-11 0
-1.29879e-07 -1.8263e-11 0
-1.29877e-07 -1.30587e-11 0
-1.29876e-07 -9.21136e-12 0
-1.29875e-07 -6.30089e-12 0
-1.29874e-07 -3.9887e-12 0
-1.29873e-07 -2.02935e-12 0
-1.29873e-07 -3.19411e-13 0
-1.29873e-07 1.14882e-12 0
-1.29873e-07 2.44851e-12 0
-1.29873e-07 3.83361e-12 0
-1.2987e-07 6.00047e-12 0
-1.29872e-07 9.86884e-12 0
0.00974658 -1.05328e-07 0
0 -1.05051e-06 0
-9.18672e-12 -5.43606e-08 0
-1.30456e-08 -1.20635e-07 0
-1.33103e-07 -1.62485e-07 0
-2.62938e-07 -1.84788e-07 0
-1.14842e-07 -8.85883e-08 0
-8.93098e-12 1.24346e-11 0
4.12451e-11 -4.12451e-11 0
1.99796e-11 -8.72942e-11 0
-9.99362e-08 -7.55064e-08 0
-2.04458e-07 -1.19568e-07 0
-2.13376e-07 -2.46488e-08 0
-2.48581e-07 6.31982e-08 0
-2.77026e-07 7.71408e-08 0
-2.66009e-07 5.13262e-08 0
-2.26605e-07 2.67016e-08 0
-1.87349e-07 1.28737e-08 0
-1.60653e-07 5.51608e-09 0
-1.45171e-07 1.16601e-09 0
-1.36497e-07 -1.34206e-09 0
-1.31502e-07 -2.50229e-09 0
-1.28519e-07 -2.77028e-09 0
-1.26702e-07 -2.55338e-09 0
-1.25593e-07 -2.13921e-09 0
-1.24921e-07 -1.69326e-09 0
-1.2452e-07 -1.29321e-09 0
-1.24285e-07 -9.65219e-10 0
-1.24148e-07 -7.09787e-10 0
-1.24071e-07 -5.16998e-10 0
-1.24028e-07 -3.74315e-10 0
-1.24005e-07 -2.7001e-10 0
-1.23993e-07 -1.94344e-10 0
-1.23987e-07 -1.39712e-10 0
-1.23985e-07 -1.00375e-10 0
-1.23984e-07 -7.20919e-11 0
-1.23984e-07 -5.17685e-11 0
-1.23984e-07 -3.71634e-11 0
-1.23985e-07 -2.66591e-11 0
-1.23985e-07 -1.90905e-11 0
-1.23985e-07 -1.36175e-11 0
-1.23985e-07 -9.63487e-12 0
-1.23985e-07 -6.71675e-12 0
-1.23984e-07 -4.57785e-12 0
-1.23984e-07 -3.02527e-12 0
-1.23984e-07 -1.91081e-12 0
-1.23984e-07 -1.14079e-12 0
-1.23985e-07 -7.3395e-13 0
-1.23986e-07 -7.4133e-13 0
-1.23984e-07 -7.4128e-13 0
-1.23987e-07 1.1214e-13 0
0.00976623 3.53518e-09 0
0 -7.3891e-07 0
7.69913e-12 -4.73359e-08 0
-1.74939e-08 -1.12757e-07 0
-1.33343e-07 -1.24586e-07 0
-2.84006e-07 -1.03338e-07 0
-2.57553e-07 -6.08849e-08 0
-7.44575e-08 -1.6708e-08 0
-1.10705e-11 1.33204e-11 0
6.46284e-12 -6.46284e-12 0
-3.4562e-11 -7.45181e-11 0
-8.35204e-08 -4.34456e-08 0
-9.56374e-08 2.4061e-09 0
-1.55576e-07 1.19575e-07 0
-2.47074e-07 1.1844e-07 0
-2.84361e-07 5.68919e-08 0
-2.54327e-07 9.22761e-09 0
-2.05415e-07 -1.02388e-08 0
-1.69055e-07 -1.47333e-08 0
-1.4868e-07 -1.40549e-08 0
-1.38544e-07 -1.18426e-08 0
-1.33703e-07 -9.30295e-09 0
-1.3142e-07 -6.95176e-09 0
-1.30364e-07 -5.01377e-09 0
-1.29899e-07 -3.53256e-09 0
-1.29715e-07 -2.45496e-09 0
-1.29664e-07 -1.69486e-09 0
-1.29669e-07 -1.1682e-09 0
-1.29697e-07 -8.0649e-10 0
-1.29729e-07 -5.58724e-10 0
-1.2976e-07 -3.88789e-10 0
-1.29786e-07 -2.7181e-10 0
-1.29807e-07 -1.90894e-10 0
-1.29824e-07 -1.34627e-10 0
-1.29837e-07 -9.52951e-11 0
-1.29846e-07 -6.76664e-11 0
-1.29854e-07 -4.81721e-11 0
-1.29859e-07 -3.43624e-11 0
-1.29863e-07 -2.45447e-11 0
-1.29866e-07 -1.75431e-11 0
-1.29868e-07 -1.25387e-11 0
-1.29869e-07 -8.96112e-12 0
-1.29869e-07 -6.41255e-12 0
-1.2987e-07 -4.61544e-12 0
-1.2987e-07 -3.38736e-12 0
-1.2987e-07 -2.63257e-12 0
-1.29871e-07 -2.34868e-12 0
-1.29873e-07 -2.69907e-12 0
-1.29875e-07 -4.07006e-12 0
-1.29874e-07 -6.59564e-12 0
-1.29877e-07 -9.50643e-12 0
0.00974655 1.1102e-07 0
0 -5.22637e-07 0
1.75176e-11 -4.15728e-08 0
-2.72416e-08 -9.55068e-08 0
-1.45539e-07 -9.66695e-08 0
-2.75982e-07 -5.57312e-08 0
-2.79576e-07 -1.78445e-08 0
-1.78538e-07 -3.06194e-08 0
-8.4769e-08 -2.57708e-08 0
-4.3497e-11 -1.73618e-11 0
-4.84892e-11 -1.31937e-11 0
-3.10253e-11 -2.21353e-08 0
-3.95611e-08 5.69294e-08 0
-4.72505e-08 1.90861e-07 0
-1.24873e-07 1.72552e-07 0
-2.13601e-07 6.87446e-08 0
-2.34433e-07 -5.61352e-09 0
-2.08305e-07 -3.02221e-08 0
-1.79283e-07 -3.05498e-08 0
-1.62535e-07 -2.43027e-08 0
-1.55677e-07 -1.76635e-08 0
-1.53817e-07 -1.22223e-08 0
-1.53908e-07 -8.20466e-09 0
-1.54555e-07 -5.41523e-09 0
-1.55231e-07 -3.55097e-09 0
-1.55783e-07 -2.33097e-09 0
-1.56194e-07 -1.53931e-09 0
-1.56487e-07 -1.02544e-09 0
-1.56694e-07 -6.89916e-10 0
-1.56837e-07 -4.68829e-10 0
-1.56938e-07 -3.21597e-10 0
-1.57009e-07 -2.22479e-10 0
-1.57059e-07 -1.55054e-10 0
-1.57094e-07 -1.0875e-10 0
-1.57119e-07 -7.66808e-11 0
-1.57138e-07 -5.43073e-11 0
-1.5715e-07 -3.86005e-11 0
-1.5716e-07 -2.75161e-11 0
-1.57166e-07 -1.96614e-11 0
-1.57171e-07 -1.40787e-11 0
-1.57174e-07 -1.01056e-11 0
-1.57177e-07 -7.2821e-12 0
-1.57178e-07 -5.29231e-12 0
-1.57179e-07 -3.92952e-12 0
-1.57179e-07 -3.07908e-12 0
-1.5718e-07 -2.71698e-12 0
-1.57182e-07 -2.91067e-12 0
-1.57184e-07 -3.88854e-12 0
-1.57187e-07 -6.38383e-12 0
-1.57188e-07 -1.17631e-11 0
-1.57193e-07 -2.02225e-11 0
0.00961197 1.98674e-07 0
0 -4.60488e-07 0
3.37e-11 -3.14762e-08 0
-4.80076e-08 -7.50494e-08 0
-1.76009e-07 -7.58935e-08 0
-2.91561e-07 -3.96417e-08 0
-2.99182e-07 2.71279e-09 0
-2.23262e-07 -6.35375e-09 0
-1.73612e-07 -8.02861e-08 0
-8.98492e-08 -6.39034e-08 0
-1.01146e-07 -1.92607e-12 0
-2.0978e-07 3.34218e-08 0
-2.73098e-07 9.93741e-08 0
-1.35296e-07 1.51294e-07 0
-5.30754e-08 1.39419e-07 0
-1.25117e-07 6.74423e-08 0
-2.03857e-07 5.26132e-09 0
-2.2264e-07 -2.09216e-08 0
-2.15911e-07 -2.34887e-08 0
-2.10387e-07 -1.80999e-08 0
-2.09837e-07 -1.22765e-08 0
-2.1168e-07 -7.9462e-09 0
-2.13936e-07 -5.07811e-09 0
-2.15831e-07 -3.25639e-09 0
-2.17221e-07 -2.11162e-09 0
-2.18182e-07 -1.38864e-09 0
-2.18829e-07 -9.26193e-10 0
-2.19262e-07 -6.2578e-10 0
-2.19552e-07 -4.27595e-10 0
-2.19748e-07 -2.94994e-10 0
-2.19881e-07 -2.05172e-10 0
-2.19973e-07 -1.43676e-10 0
-2.20036e-07 -1.01188e-10 0
-2.20081e-07 -7.16036e-11 0
-2.20112e-07 -5.08688e-11 0
-2.20135e-07 -3.62554e-11 0
-2.2015e-07 -2.59085e-11 0
-2.20162e-07 -1.85551e-11 0
-2.2017e-07 -1.33142e-11 0
-2.20176e-07 -9.57274e-12 0
-2.2018e-07 -6.90284e-12 0
-2.20183e-07 -5.00786e-12 0
-2.20184e-07 -3.68778e-12 0
-2.20185e-07 -2.8189e-12 0
-2.20186e-07 -2.34581e-12 0
-2.20188e-07 -2.29572e-12 0
-2.2019e-07 -2.80051e-12 0
-2.20193e-07 -4.10877e-12 0
-2.20198e-07 -7.07123e-12 0
-2.20202e-07 -1.4563e-11 0
-2.20212e-07 -2.93466e-11 0
0.00897325 2.2178e-07 0
0 -4.86205e-07 0
4.50073e-11 -1.58836e-08 0
-6.68717e-08 -3.96956e-08 0
-1.90366e-07 -3.95993e-08 0
-2.83386e-07 -2.16058e-08 0
-3.03696e-07 -1.44886e-08 0
-2.562e-07 -3.04298e-08 0
-2.2338e-07 -7.48463e-08 0
-2.4581e-07 -5.42183e-08 0
-2.31088e-07 7.00907e-08 0
-2.70784e-07 1.57735e-07 0
-2.47587e-07 1.06623e-07 0
-1.31575e-07 -1.49954e-08 0
-7.70137e-08 -7.89576e-08 0
-1.54161e-07 -6.63267e-08 0
-2.36847e-07 -2.35802e-08 0
-2.59977e-07 5.39125e-09 0
-2.53818e-07 1.21626e-08 0
-2.46182e-07 8.75478e-09 0
-2.4303e-07 4.33937e-09 0
-2.42826e-07 1.54445e-09 0
-2.43745e-07 2.10307e-10 0
-2.44846e-07 -2.90273e-10 0
-2.45789e-07 -4.06608e-10 0
-2.46506e-07 -3.7563e-10 0
-2.47022e-07 -3.03341e-10 0
-2.47385e-07 -2.30724e-10 0
-2.47638e-07 -1.70399e-10 0
-2.47815e-07 -1.23995e-10 0
-2.47938e-07 -8.95699e-11 0
-2.48024e-07 -6.44847e-11 0
-2.48085e-07 -4.63636e-11 0
-2.48129e-07 -3.33251e-11 0
-2.4816e-07 -2.3958e-11 0
-2.48182e-07 -1.72303e-11 0
-2.48198e-07 -1.23967e-11 0
-2.4821e-07 -8.92241e-12 0
-2.48218e-07 -6.42449e-12 0
-2.48224e-07 -4.62969e-12 0
-2.48228e-07 -3.34409e-12 0
-2.48231e-07 -2.43237e-12 0
-2.48233e-07 -1.80408e-12 0
-2.48234e-07 -1.40599e-12 0
-2.48235e-07 -1.22177e-12 0
-2.48237e-07 -1.28341e-12 0
-2.48239e-07 -1.70323e-12 0
-2.48243e-07 -2.68664e-12 0
-2.48249e-07 -4.77259e-12 0
-2.48257e-07 -1.03251e-11 0
-2.48276e-07 -2.34479e-11 0
0.00662685 1.25881e-07 0
0 0 0
2.59491e-11 0 0
-3.55395e-08 0 0
-9.15553e-08 0 0
-1.29755e-07 0 0
-1.41327e-07 0 0
-1.37017e-07 0 0
-1.34539e-07 0 0
-1.5599e-07 0 0
-1.29956e-07 0 0
-6.1034e-08 0 0
-4.55624e-09 0 0
2.48269e-11 0 0
-4.23379e-08 0 0
-1.01341e-07 0 0
-1.35803e-07 0 0
-1.39593e-07 0 0
-1.31092e-07 0 0
-1.23127e-07 0 0
-1.18643e-07 0 0
-1.16756e-07 0 0
-1.16216e-07 0 0
-1.16237e-07 0 0
-1.16433e-07 0 0
-1.1665e-07 0 0
-1.16834e-07 0 0
-1.16976e-07 0 0
-1.17081e-07 0 0
-1.17157e-07 0 0
-1.17211e-07 0 0
-1.17251e-07 0 0
-1.17279e-07 0 0
-1.17299e-07 0 0
-1.17314e-07 0 0
-1.17324e-07 0 0
-1.17332e-07 0 0
-1.17337e-07 0 0
-1.17341e-07 0 0
-1.17344e-07 0 0
-1.17346e-07 0 0
-1.17348e-07 0 0
-1.17348e-07 0 0
-1.17349e-07 0 0
-1.1735e-07 0 0
-1.1735e-07 0 0
-1.17352e-07 0 0
-1.17354e-07 0 0
-1.17357e-07 0 0
-1.17362e-07 0 0
-1.17374e-07 0 0
0.00240214 0 0
0 0 5.43076e-07
8.87057e-11 0 3.09974e-08
-6.29426e-08 0 1.11047e-07
-2.94393e-07 0 1.45979e-07
-6.8044e-07 0 -9.66554e-08
-2.48132e-07 0 -2.7475e-07
-4.46913e-08 0 -2.02552e-07
8.1071e-08 0 -1.32644e-07
1.35292e-07 0 -4.43815e-08
1.0266e-07 0 1.04789e-08
1.68943e-08 0 2.04078e-08
-7.30421e-08 0 7.12153e-09
-1.37818e-07 0 -5.23409e-09
-1.74548e-07 0 -8.7719e-09
-1.93635e-07 0 -6.60136e-09
-2.06041e-07 0 -3.14152e-09
-2.16935e-07 0 -5.90567e-10
-2.26949e-07 0 6.82627e-10
-2.3538e-07 0 1.05359e-09
-2.41805e-07 0 9.7354e-10
-2.4631e-07 0 7.43434e-10
-2.49259e-07 0 5.10986e-10
-2.51076e-07 0 3.28022e-10
-2.52128e-07 0 2.00518e-10
-2.52694e-07 0 1.18015e-10
-2.52968e-07 0 6.72844e-11
-2.53076e-07 0 3.72627e-11
-2.53097e-07 0 2.00432e-11
-2.53077e-07 0 1.04369e-11
-2.5304e-07 0 5.22029e-12
-2.53e-07 0 2.46827e-12
-2.52964e-07 0 1.06535e-12
-2.52933e-07 0 3.81734e-13
-2.52908e-07 0 7.03438e-14
-2.52889e-07 0 -5.54712e-14
-2.52875e-07 0 -9.33406e-14
-2.52864e-07 0 -9.25316e-14
-2.52856e-07 0 -7.65159e-14
-2.5285e-07 0 -5.51271e-14
-2.52845e-07 0 -3.08457e-14
-2.52842e-07 0 -1.69577e-15
-2.52839e-07 0 3.83554e-14
-2.52837e-07 0 1.00006e-13
-2.52836e-07 0 1.97205e-13
-2.52836e-07 0 3.58044e-13
-2.52837e-07 0 6.50016e-13
-2.52841e-07 0 1.03254e-12
-2.52846e-07 0 1.30924e-12
-2.52855e-07 0 3.86094e-12
-2.52875e-07 0 1.72114e-11
0.00660979 0 -8.643e-08
0.0036 -1.50417e-07 4.11833e-08
0.0035998 -0.00130189 -3.08975e-05
0.00690796 -0.00411435 -0.000404997
0.0141669 -0.00742088 -0.00203878
0.0253479 -0.0140417 -0.00515225
0.046245 -0.0110766 -0.00461825
0.0491847 -0.000960193 -0.00132676
0.0486899 0.0031868 0.000228603
0.0434544 0.00532655 0.000840275
0.037792 0.00528992 0.000568923
0.0327579 0.00436756 6.24567e-05
0.0285801 0.00323672 -0.000294513
0.0253401 0.00221601 -0.000397398
0.0230064 0.00144148 -0.000324038
0.0214192 0.000920876 -0.000199726
0.020377 0.00058955 -9.96848e-05
0.0197094 0.000377747 -4.06066e-05
0.0192916 0.000239783 -1.22192e-05
0.0190361 0.000149582 -9.54482e-07
0.0188836 9.13452e-05 2.39212e-06
0.0187947 5.45167e-05 2.67064e-06
0.0187443 3.17584e-05 2.04819e-06
0.0187166 1.80189e-05 1.34738e-06
0.0187018 9.9156e-06 8.07293e-07
0.0186944 5.25117e-06 4.49327e-07
0.0186909 2.63701e-06 2.32219e-07
0.0186895 1.21741e-06 1.08995e-07
0.0186892 4.77174e-07 4.32309e-08
0.0186892 1.12934e-07 1.05442e-08
0.0186895 -4.99226e-08 -4.09077e-09
0.0186898 -1.09499e-07 -9.41385e-09
0.0186901 -1.19404e-07 -1.02737e-08
0.0186903 -1.07943e-07 -9.23679e-09
0.0186905 -8.93779e-08 -7.58739e-09
0.0186906 -7.03984e-08 -5.91864e-09
0.0186907 -5.37561e-08 -4.4677e-09
0.0186908 -4.02595e-08 -3.29926e-09
0.0186909 -2.98355e-08 -2.4025e-09
0.0186909 -2.20749e-08 -1.74111e-09
0.0186909 -1.64978e-08 -1.27964e-09
0.018691 -1.26755e-08 -9.99376e-10
0.018691 -1.0279e-08 -9.10199e-10
0.018691 -9.10728e-09 -1.06982e-09
0.018691 -9.11034e-09 -1.60122e-09
0.018691 -1.03397e-08 -2.59766e-09
0.0186911 -1.32576e-08 -4.24478e-09
0.0186911 -1.93392e-08 -6.58557e-09
0.0186911 -2.87155e-08 -3.84975e-09
0.0186913 -7.17858e-08 -1.11901e-08
0.0186916 -2.79797e-07 -1.41577e-07
0.018692 -4.50071e-07 -2.60615e-07
0.01 -8.82729e-08 -1.25445e-06
0.010001 -0.00311927 -0.000504262
0.0149907 -0.0102552 -0.00111572
0.024036 -0.0182516 -0.00258961
0.0373601 -0.0304707 -0.00415425
0.0570044 -0.0216281 -0.00115018
0.0549506 -0.00161581 0.0022189
0.054969 0.00574392 0.00252889
0.049434 0.0106368 0.00234414
0.0439375 0.0106244 0.00141859
0.0392848 0.00939546 0.000346358
0.0352634 0.00772009 -0.000358674
0.0320379 0.00585328 -0.000598441
0.0297366 0.00411197 -0.00051778
0.028205 0.0027329 -0.000328778
0.0272236 0.00175446 -0.000167883
0.0266126 0.00109934 -7.02817e-05
0.0262434 0.00067446 -2.22852e-05
0.0260276 0.000405285 -2.61812e-06
0.0259058 0.000238379 3.64501e-06
0.0258397 0.000137039 4.52493e-06
0.0258056 7.67837e-05 3.68745e-06
0.0257891 4.17198e-05 2.58018e-06
0.0257819 2.17817e-05 1.66555e-06
0.0257795 1.0739e-05 1.02206e-06
0.0257793 4.81613e-06 6.05372e-07
0.0257799 1.77208e-06 3.49072e-07
0.0257809 3.03426e-07 1.96927e-07
0.0257818 -3.31704e-07 1.08987e-07
0.0257826 -5.45677e-07 5.92399e-08
0.0257833 -5.61388e-07 3.16163e-08
0.0257838 -4.95093e-07 1.65398e-08
0.0257841 -4.04453e-07 8.4527e-09
0.0257844 -3.1587e-07 4.19615e-09
0.0257846 -2.39686e-07 2.00576e-09
0.0257848 -1.78448e-07 9.11276e-10
0.0257849 -1.31254e-07 3.86746e-10
0.0257849 -9.59537e-08 1.50618e-10
0.025785 -7.02069e-08 5.24195e-11
0.025785 -5.19335e-08 7.21564e-12
0.0257851 -3.94846e-08 -4.49462e-11
0.0257851 -3.16849e-08 -1.6276e-10
0.0257851 -2.78458e-08 -4.2193e-10
0.0257851 -2.79133e-08 -9.59183e-10
0.0257852 -3.26977e-08 -1.77983e-09
0.0257852 -4.38746e-08 -2.29159e-09
0.0257852 -7.05181e-08 -2.52689e-09
0.0257853 -1.44915e-07 7.33609e-10
0.0257855 -2.98654e-07 -1.8544e-08
0.0257858 -5.49017e-07 -2.15429e-07
0.025786 -7.00893e-07 -3.89645e-07
0.0148 -9.55149e-07 -1.57281e-06
0.0148024 -0.00533266 -0.00104863
0.0199841 -0.0162219 -0.00261649
0.0262834 -0.0276435 -0.0046154
0.0306836 -0.0433069 -0.00533017
0.029201 -0.0265713 -0.000879051
0.0262391 -1.11804e-05 0.0025381
0.026195 0.00743924 0.0025808
0.030561 0.0154432 0.00249937
0.0309031 0.0151561 0.00157743
0.0297464 0.0132751 0.000570704
0.0285884 0.0109302 -0.000143299
0.0277829 0.00816705 -0.000413593
0.0274843 0.00557117 -0.000384634
0.0274461 0.00359917 -0.000239521
0.0274873 0.00225642 -0.000107585
0.0275389 0.00138346 -2.82307e-05
0.0275859 0.000828999 7.11438e-06
0.0276269 0.000484278 1.73708e-05
0.0276618 0.000275077 1.67186e-05
0.0276902 0.000151373 1.27626e-05
0.0277124 8.01621e-05 8.71503e-06
0.0277289 4.0319e-05 5.56867e-06
0.0277408 1.8732e-05 3.40348e-06
0.0277492 7.49403e-06 2.01414e-06
0.027755 1.96048e-06 1.16251e-06
0.027759 -5.29721e-07 6.57209e-07
0.0277617 -1.46307e-06 3.64751e-07
0.0277635 -1.64725e-06 1.98857e-07
0.0277647 -1.50662e-06 1.06388e-07
0.0277655 -1.2544e-06 5.56851e-08
0.0277661 -9.90602e-07 2.83449e-08
0.0277665 -7.56715e-07 1.38777e-08
0.0277667 -5.65355e-07 6.39831e-09
0.0277669 -4.15993e-07 2.65205e-09
0.027767 -3.02953e-07 8.63472e-10
0.0277671 -2.19278e-07 7.7875e-11
0.0277672 -1.58445e-07 -2.10012e-10
0.0277672 -1.15001e-07 -2.63351e-10
0.0277673 -8.4694e-08 -2.19178e-10
0.0277673 -6.44133e-08 -1.54985e-10
0.0277673 -5.21035e-08 -1.27008e-10
0.0277673 -4.67271e-08 -1.73183e-10
0.0277673 -4.83263e-08 -2.71597e-10
0.0277674 -5.93568e-08 -3.21155e-10
0.0277674 -8.80277e-08 -3.69255e-10
0.0277674 -1.44524e-07 -2.40903e-09
0.0277675 -2.32409e-07 -8.17204e-09
0.0277676 -3.53868e-07 -4.95398e-08
0.0277676 -5.06415e-07 -2.66116e-07
0.0277676 -5.89186e-07 -4.45153e-07
0.018 -1.97753e-06 -1.70745e-06
0.0180026 -0.0066638 -0.00188394
0.0203232 -0.0178178 -0.00503585
0.0200934 -0.0233158 -0.00663553
0.0158498 -0.0254442 -0.00710575
-1.33811e-06 -0.0132914 -0.00362331
9.9582e-05 3.08487e-05 7.40984e-07
-3.69209e-05 3.87477e-05 0.000489011
0.00717408 0.00486059 0.00101948
0.0150033 0.0110497 0.000902253
0.0184254 0.011808 0.000480831
0.0200446 0.0100016 3.77703e-06
0.0217623 0.00728157 -0.000269322
0.0235389 0.00468096 -0.00028603
0.0250519 0.00285546 -0.000179685
0.0261662 0.00171023 -6.76213e-05
0.026915 0.00100819 2.40282e-06
0.0273956 0.000577775 3.06545e-05
0.0276986 0.000317515 3.40837e-05
0.0278882 0.000165058 2.75783e-05
0.028006 7.9438e-05 1.93089e-05
0.0280786 3.36563e-05 1.24297e-05
0.0281229 1.05987e-05 7.57258e-06
0.0281497 -6.90011e-08 4.4356e-06
0.0281658 -4.30708e-06 2.52043e-06
0.0281755 -5.41022e-06 1.396e-06
0.0281812 -5.12395e-06 7.54933e-07
0.0281846 -4.32896e-06 3.98081e-07
0.0281867 -3.44096e-06 2.03664e-07
0.0281879 -2.63547e-06 1.00005e-07
0.0281886 -1.96998e-06 4.60771e-08
0.028189 -1.44808e-06 1.88895e-08
0.0281893 -1.05191e-06 5.79169e-09
0.0281895 -7.57691e-07 -6.28663e-11
0.0281896 -5.4257e-07 -2.316e-09
0.0281897 -3.87123e-07 -2.86611e-09
0.0281897 -2.75898e-07 -2.67719e-09
0.0281897 -1.97088e-07 -2.22081e-09
0.0281897 -1.41941e-07 -1.71523e-09
0.0281898 -1.04147e-07 -1.25475e-09
0.0281898 -7.9338e-08 -8.78362e-10
0.0281898 -6.47225e-08 -6.03406e-10
0.0281898 -5.90516e-08 -4.7321e-10
0.0281898 -6.29166e-08 -6.40555e-10
0.0281898 -7.79057e-08 -1.42598e-09
0.0281898 -1.04194e-07 -4.04583e-09
0.0281898 -1.40083e-07 -1.1849e-08
0.0281898 -1.81643e-07 -2.50184e-08
0.0281898 -2.28717e-07 -7.56496e-08
0.0281897 -2.84757e-07 -2.90717e-07
0.0281896 -3.15225e-07 -4.62592e-07
0.0196 -2.60012e-06 -2.63864e-06
0.0196008 -0.00537024 -0.00272477
0.0191079 -0.0121121 -0.0065216
0.0161814 -0.0147387 -0.00699396
0.0113364 -0.0134559 -0.00665121
0.00217036 -0.00546163 -0.00444161
7.51994e-05 -6.92025e-05 -0.000984982
3.22816e-05 -3.22816e-05 -4.41842e-08
-3.59986e-05 3.78431e-05 0.000150126
0.00481025 0.00366107 0.000308924
0.0109716 0.00820168 0.000247195
0.0137645 0.00772314 -2.13889e-05
0.017045 0.00487498 -0.000292725
0.0203326 0.00245565 -0.000345295
0.0230929 0.00107401 -0.000257588
0.025087 0.000430168 -0.000126816
0.0263757 0.000152052 -2.72357e-05
0.0271585 2.83199e-05 2.03323e-05
0.0276214 -2.66961e-05 3.16105e-05
0.0278919 -4.67577e-05 2.70552e-05
0.0280485 -4.88093e-05 1.88682e-05
0.0281383 -4.28149e-05 1.18235e-05
0.0281893 -3.43705e-05 6.93311e-06
0.0282178 -2.61953e-05 3.87984e-06
0.0282336 -1.93313e-05 2.09135e-06
0.0282423 -1.39764e-05 1.08846e-06
0.028247 -9.97316e-06 5.44755e-07
0.0282495 -7.05722e-06 2.58721e-07
0.0282508 -4.96755e-06 1.12914e-07
0.0282514 -3.48524e-06 4.14523e-08
0.0282518 -2.44047e-06 8.39509e-09
0.0282519 -1.70703e-06 -5.41796e-09
0.028252 -1.19343e-06 -9.98149e-09
0.028252 -8.34362e-07 -1.0384e-08
0.028252 -5.83652e-07 -9.1363e-09
0.028252 -4.08844e-07 -7.4213e-09
0.0282519 -2.87225e-07 -5.75424e-09
0.0282519 -2.02957e-07 -4.32645e-09
0.0282519 -1.45056e-07 -3.18206e-09
0.0282519 -1.05973e-07 -2.31012e-09
0.0282519 -8.06428e-08 -1.70002e-09
0.0282519 -6.58283e-08 -1.38408e-09
0.0282519 -5.94651e-08 -1.50613e-09
0.0282519 -5.97848e-08 -2.47534e-09
0.0282519 -6.47445e-08 -4.88351e-09
0.0282519 -7.17121e-08 -9.60303e-09
0.0282518 -7.69918e-08 -1.93934e-08
0.0282518 -7.37375e-08 -3.36559e-08
0.0282517 -5.42228e-08 -8.45577e-08
0.0282517 -1.90599e-08 -2.96135e-07
0.0282515 1.51644e-09 -4.64417e-07
0.0196 -1.2735e-06 -3.53903e-06
0.0196001 -0.00330207 -0.00306958
0.0190034 -0.0070054 -0.0065812
0.0177199 -0.0066654 -0.00652246
0.0138658 -0.00295429 -0.00573426
0.00998068 0.00332986 -0.00459198
0.00644279 0.00332334 -0.00229491
7.52627e-05 -6.31423e-05 -0.000430046
2.71437e-05 -2.71437e-05 -1.30076e-07
-3.49727e-05 3.70246e-05 4.29933e-05
0.00364838 0.00281987 0.000339094
0.00827733 0.00400706 0.000377003
0.0136965 0.00091837 -2.9782e-05
0.0185576 -0.001144 -0.000315733
0.0223578 -0.0017348 -0.000380253
0.0249344 -0.00148956 -0.000267685
0.0264628 -0.00104108 -0.000122461
0.027296 -0.000675342 -3.16316e-05
0.0277341 -0.000431261 4.33509e-06
0.0279615 -0.0002757 1.18993e-05
0.0280784 -0.00017645 9.88621e-06
0.0281378 -0.000112851 6.34278e-06
0.0281673 -7.21504e-05 3.59031e-06
0.0281815 -4.62001e-05 1.86871e-06
0.028188 -2.96966e-05 9.01369e-07
0.0281907 -1.91986e-05 3.95021e-07
0.0281916 -1.24999e-05 1.45724e-07
0.0281917 -8.20174e-06 3.13456e-08
0.0281915 -5.42407e-06 -1.57e-08
0.0281911 -3.61445e-06 -3.09179e-08
0.0281908 -2.4256e-06 -3.21882e-08
0.0281906 -1.63819e-06 -2.8136e-08
0.0281904 -1.1127e-06 -2.26973e-08
0.0281902 -7.59652e-07 -1.75139e-08
0.0281901 -5.21117e-07 -1.31517e-08
0.02819 -3.59263e-07 -9.70249e-09
0.0281899 -2.49169e-07 -7.07351e-09
0.0281899 -1.74304e-07 -5.1199e-09
0.0281899 -1.2364e-07 -3.70474e-09
0.0281898 -8.97868e-08 -2.72889e-09
0.0281898 -6.77289e-08 -2.15512e-09
0.0281898 -5.38947e-08 -2.0375e-09
0.0281898 -4.54762e-08 -2.54824e-09
0.0281898 -3.98987e-08 -3.99861e-09
0.0281897 -3.42657e-08 -6.73783e-09
0.0281897 -2.47574e-08 -1.14278e-08
0.0281897 -5.79055e-09 -2.09435e-08
0.0281896 3.36083e-08 -3.43641e-08
0.0281896 1.12928e-07 -8.11623e-08
0.0281896 2.41513e-07 -2.88007e-07
0.0281894 3.17502e-07 -4.5497e-07
0.018 -8.03001e-07 -3.47425e-06
0.0180009 -0.00165796 -0.00300822
0.0184769 -0.00288991 -0.00624488
0.0188051 -0.00132891 -0.00576018
0.018177 0.00178936 -0.00462832
0.0181155 0.00762029 -0.00366957
0.01869 0.0126892 -0.0022478
0.0115252 0.00695441 -0.00100875
7.69841e-05 -4.93004e-05 -0.000322005
-2.80711e-05 -5.67266e-05 5.47296e-07
7.77531e-06 -0.000218201 0.00083447
0.00933215 -0.00244533 0.00134288
0.0170686 -0.0052861 0.000707975
0.0219435 -0.00593303 0.000123974
0.024826 -0.00502361 -0.000257354
0.0264595 -0.00348748 -0.000325901
0.0272898 -0.00212229 -0.000219725
0.0276538 -0.00121703 -0.000107844
0.027788 -0.000691466 -4.3701e-05
0.0278241 -0.000396686 -1.57951e-05
0.0278239 -0.000230229 -5.42813e-06
0.0278132 -0.000134967 -1.92921e-06
0.0278015 -7.989e-05 -8.04332e-07
0.0277919 -4.77886e-05 -4.32989e-07
0.0277846 -2.89228e-05 -2.86978e-07
0.0277794 -1.77277e-05 -2.08331e-07
0.0277757 -1.10095e-05 -1.53863e-07
0.0277731 -6.92761e-06 -1.12562e-07
0.0277713 -4.41482e-06 -8.11492e-08
0.0277701 -2.84727e-06 -5.77696e-08
0.0277693 -1.85658e-06 -4.07596e-08
0.0277687 -1.22266e-06 -2.8601e-08
0.0277683 -8.12371e-07 -2.00149e-08
0.027768 -5.44083e-07 -1.39965e-08
0.0277678 -3.67101e-07 -9.79525e-09
0.0277676 -2.49522e-07 -6.86898e-09
0.0277675 -1.71019e-07 -4.83614e-09
0.0277675 -1.18487e-07 -3.43489e-09
0.0277674 -8.33612e-08 -2.4941e-09
0.0277674 -5.99365e-08 -1.91719e-09
0.0277674 -4.42685e-08 -1.67561e-09
0.0277673 -3.34294e-08 -1.80563e-09
0.0277673 -2.49355e-08 -2.42412e-09
0.0277673 -1.62354e-08 -3.77403e-09
0.0277673 -4.12186e-09 -6.11697e-09
0.0277673 1.60643e-08 -9.9558e-09
0.0277672 5.12616e-08 -1.80756e-08
0.0277672 1.14974e-07 -2.89725e-08
0.0277672 2.41254e-07 -6.61884e-08
0.0277673 4.57296e-07 -2.61686e-07
0.0277672 5.88422e-07 -4.25193e-07
0.0148 -4.71857e-07 -3.02631e-06
0.0148015 -0.000749271 -0.0027975
0.0164713 -0.000816146 -0.00557924
0.0185476 0.00109778 -0.00481003
0.0205012 0.00410199 -0.00358882
0.0226005 0.00761731 -0.00288648
0.0262257 0.0127572 -0.00205239
0.0293464 0.0198045 -0.00112944
0.0239214 0.0117278 -0.000149292
0.0243069 -9.64568e-12 0.000594594
0.0278154 -0.00693118 0.00150351
0.0323654 -0.0136992 0.00229561
0.0335976 -0.0119329 0.00201939
0.0323794 -0.00880055 0.00120582
0.0303283 -0.00597908 0.000211275
0.0285675 -0.00369703 -0.000324735
0.0274056 -0.00207682 -0.000364184
0.0267183 -0.00109921 -0.000228573
0.0263246 -0.000573026 -0.000113101
0.0260998 -0.000302278 -4.99785e-05
0.0259707 -0.000162944 -2.0958e-05
0.0258959 -8.98939e-05 -8.61308e-06
0.0258522 -5.06995e-05 -3.53705e-06
0.0258263 -2.91838e-05 -1.47106e-06
0.0258108 -1.71169e-05 -6.25343e-07
0.0258014 -1.02141e-05 -2.7275e-07
0.0257956 -6.19303e-06 -1.21599e-07
0.0257919 -3.81089e-06 -5.46685e-08
0.0257896 -2.37741e-06 -2.41392e-08
0.0257881 -1.50206e-06 -9.95707e-09
0.0257871 -9.60113e-07 -3.38466e-09
0.0257864 -6.2025e-07 -4.46166e-10
0.025786 -4.04588e-07 7.4318e-10
0.0257857 -2.6628e-07 1.10448e-09
0.0257855 -1.76763e-07 1.09359e-09
0.0257854 -1.18388e-07 9.33437e-10
0.0257853 -8.0108e-08 7.27487e-10
0.0257853 -5.49043e-08 5.16426e-10
0.0257852 -3.82347e-08 3.06193e-10
0.0257852 -2.70614e-08 7.98703e-11
0.0257852 -1.92188e-08 -2.01685e-10
0.0257851 -1.29637e-08 -6.06428e-10
0.0257851 -6.60147e-09 -1.24932e-09
0.0257851 1.88513e-09 -2.3329e-09
0.0257851 1.5283e-08 -4.06404e-09
0.0257851 3.8086e-08 -6.75913e-09
0.0257851 7.76822e-08 -1.24716e-08
0.0257851 1.46595e-07 -1.96864e-08
0.0257852 2.85613e-07 -4.5569e-08
0.0257854 5.37546e-07 -2.17956e-07
0.0257856 6.94297e-07 -3.67662e-07
0.01 -9.16623e-07 -2.69994e-06
0.0100007 -0.000464633 -0.0023248
0.0117006 -0.000257881 -0.00436967