# vtk DataFile Version 2.0
Tobias Weinzierl: CPU, Manycore and Cluster Computing
ASCII

DATASET STRUCTURED_POINTS
DIMENSIONS  51 11 6

ORIGIN 0 0 0 

SPACING 0.1 0.1 0.1 

POINT_DATA 3366

VECTORS velocity float
0 0 0
1.624e-11 0 0
-1.50238e-08 0 0
-9.15086e-08 0 0
-1.9169e-07 0 0
-8.00267e-08 0 0
-4.10788e-08 0 0
-1.35504e-08 0 0
6.29545e-09 0 0
-1.96578e-09 0 0
-3.35966e-08 0 0
-6.73844e-08 0 0
-8.7571e-08 0 0
-9.26626e-08 0 0
-8.97849e-08 0 0
-8.59757e-08 0 0
-8.42319e-08 0 0
-8.45177e-08 0 0
-8.58397e-08 0 0
-8.73681e-08 0 0
-8.8677e-08 0 0
-8.96384e-08 0 0
-9.02742e-08 0 0
-9.0659e-08 0 0
-9.08707e-08 0 0
-9.09725e-08 0 0
-9.10099e-08 0 0
-9.10125e-08 0 0
-9.09986e-08 0 0
-9.09787e-08 0 0
-9.09583e-08 0 0
-9.094e-08 0 0
-9.09247e-08 0 0
-9.09125e-08 0 0
-9.0903e-08 0 0
-9.08958e-08 0 0
-9.08904e-08 0 0
-9.08864e-08 0 0
-9.08835e-08 0 0
-9.08815e-08 0 0
-9.08802e-08 0 0
-9.08794e-08 0 0
-9.08793e-08 0 0
-9.08796e-08 0 0
-9.08803e-08 0 0
-9.08815e-08 0 0
-9.08831e-08 0 0
-9.08851e-08 0 0
-9.08876e-08 0 0
-9.08951e-08 0 0
0.00229992 0 0
0 4.10505e-07 0
4.32452e-11 -1.85947e-09 0
-2.04305e-08 1.28976e-08 0
-1.5605e-07 4.00833e-08 0
-3.05176e-07 1.99878e-08 0
-1.27592e-07 3.6618e-08 0
-9.30183e-08 9.22413e-08 0
-7.38859e-08 7.83267e-08 0
-3.5155e-08 5.07873e-08 0
-2.72989e-08 4.86978e-08 0
-6.32811e-08 5.15487e-08 0
-1.14777e-07 4.32396e-08 0
-1.50422e-07 2.49153e-08 0
-1.62024e-07 7.77518e-09 0
-1.61402e-07 -8.59846e-10 0
-1.61192e-07 -2.07719e-09 0
-1.65397e-07 -3.81308e-10 0
-1.72444e-07 1.21869e-09 0
-1.79846e-07 1.88915e-09 0
-1.86101e-07 1.84039e-09 0
-1.90738e-07 1.46127e-09 0
-1.93876e-07 1.01865e-09 0
-1.9585e-07 6.38485e-10 0
-1.97008e-07 3.57735e-10 0
-1.97637e-07 1.70743e-10 0
-1.97944e-07 5.69182e-11 0
-1.98065e-07 -5.80745e-12 0
-1.98089e-07 -3.57314e-11 0
-1.98065e-07 -4.62005e-11 0
-1.98023e-07 -4.61402e-11 0
-1.97978e-07 -4.11033e-11 0
-1.97937e-07 -3.43051e-11 0
-1.97903e-07 -2.7453e-11 0
-1.97875e-07 -2.13413e-11 0
-1.97854e-07 -1.62475e-11 0
-1.97837e-07 -1.21803e-11 0
-1.97825e-07 -9.02539e-12 0
-1.97816e-07 -6.62674e-12 0
-1.9781e-07 -4.82752e-12 0
-1.97805e-07 -3.48856e-12 0
-1.97802e-07 -2.49424e-12 0
-1.978e-07 -1.75179e-12 0
-1.978e-07 -1.18726e-12 0
-1.978e-07 -7.43861e-13 0
-1.97802e-07 -3.73228e-13 0
-1.97804e-07 1.20246e-14 0
-1.97808e-07 5.138e-13 0
-1.97814e-07 1.24383e-12 0
-1.97822e-07 4.32839e-12 0
-1.9784e-07 1.61847e-11 0
0.00640763 -1.1901e-07 0
0 -9.86825e-09 0
5.82371e-11 -1.0212e-09 0
2.06636e-08 -2.14324e-08 0
-6.13869e-08 -8.9578e-08 0
-1.20544e-07 -1.63477e-07 0
1.334e-08 -6.21121e-08 0
-6.43837e-08 1.01407e-07 0
-1.11701e-07 1.04712e-07 0
-9.77029e-08 5.13069e-08 0
-6.54095e-08 2.05857e-08 0
-7.45825e-08 6.3313e-09 0
-1.09031e-07 9.26164e-09 0
-1.37669e-07 2.35028e-08 0
-1.4536e-07 3.5189e-08 0
-1.41371e-07 3.81215e-08 0
-1.39246e-07 3.46536e-08 0
-1.43297e-07 2.8453e-08 0
-1.51244e-07 2.17535e-08 0
-1.59757e-07 1.56723e-08 0
-1.6686e-07 1.07034e-08 0
-1.71977e-07 6.95066e-09 0
-1.75304e-07 4.28998e-09 0
-1.77291e-07 2.50256e-09 0
-1.78381e-07 1.35981e-09 0
-1.78918e-07 6.64711e-10 0
-1.79138e-07 2.6477e-10 0
-1.7919e-07 5.03033e-11 0
-1.79162e-07 -5.31677e-11 0
-1.79102e-07 -9.37698e-11 0
-1.79036e-07 -1.01185e-10 0
-1.78976e-07 -9.2867e-11 0
-1.78925e-07 -7.85333e-11 0
-1.78884e-07 -6.32216e-11 0
-1.78853e-07 -4.92693e-11 0
-1.78829e-07 -3.75375e-11 0
-1.78811e-07 -2.81359e-11 0
-1.78798e-07 -2.08339e-11 0
-1.78788e-07 -1.5281e-11 0
-1.78781e-07 -1.11161e-11 0
-1.78777e-07 -8.01561e-12 0
-1.78773e-07 -5.70825e-12 0
-1.78772e-07 -3.97368e-12 0
-1.78771e-07 -2.62874e-12 0
-1.78772e-07 -1.50529e-12 0
-1.78774e-07 -4.41657e-13 0
-1.78777e-07 8.0073e-13 0
-1.78781e-07 3.01964e-12 0
-1.78787e-07 7.82584e-12 0
-1.78795e-07 1.56263e-11 0
-1.78809e-07 2.56301e-11 0
0.00877705 -2.01518e-07 0
0 -6.22279e-07 0
5.75386e-11 -1.87884e-08 0
5.45111e-08 -8.05903e-08 0
-8.03001e-10 -1.8776e-07 0
-7.22344e-08 -2.5847e-07 0
6.09043e-08 -1.32578e-07 0
-1.24274e-08 -8.05424e-11 0
-5.13642e-08 -2.24973e-08 0
-1.09652e-07 -7.19361e-08 0
-1.09269e-07 -9.91286e-08 0
-1.24012e-07 -8.27294e-08 0
-1.59005e-07 -3.4412e-08 0
-1.82844e-07 2.16822e-08 0
-1.81191e-07 5.38346e-08 0
-1.61778e-07 5.94264e-08 0
-1.40789e-07 5.19659e-08 0
-1.27366e-07 4.10717e-08 0
-1.21932e-07 3.04215e-08 0
-1.21189e-07 2.12315e-08 0
-1.22135e-07 1.39595e-08 0
-1.23191e-07 8.6348e-09 0
-1.23849e-07 4.99614e-09 0
-1.241e-07 2.65961e-09 0
-1.24081e-07 1.24666e-09 0
-1.23927e-07 4.4601e-10 0
-1.23729e-07 2.80986e-11 0
-1.23536e-07 -1.63832e-10 0
-1.23369e-07 -2.30492e-10 0
-1.23236e-07 -2.33172e-10 0
-1.23133e-07 -2.07205e-10 0
-1.23056e-07 -1.71745e-10 0
-1.22999e-07 -1.3635e-10 0
-1.22958e-07 -1.05172e-10 0
-1.22929e-07 -7.94976e-11 0
-1.22908e-07 -5.92173e-11 0
-1.22893e-07 -4.36356e-11 0
-1.22882e-07 -3.18903e-11 0
-1.22874e-07 -2.31519e-11 0
-1.22869e-07 -1.67035e-11 0
-1.22865e-07 -1.19589e-11 0
-1.22863e-07 -8.45232e-12 0
-1.22862e-07 -5.81427e-12 0
-1.22862e-07 -3.74555e-12 0
-1.22863e-07 -1.96606e-12 0
-1.22864e-07 -9.96955e-14 0
-1.22867e-07 2.3245e-12 0
-1.2287e-07 5.44153e-12 0
-1.22873e-07 8.92354e-12 0
-1.22874e-07 1.28823e-11 0
-1.22879e-07 1.81612e-11 0
0.00947445 -1.76131e-07 0
0 -1.19309e-06 0
8.91179e-12 -4.47619e-08 0
2.72911e-08 -1.23785e-07 0
-4.26833e-08 -1.64364e-07 0
-1.42344e-07 -1.31545e-07 0
-2.93272e-11 -4.62283e-08 0
-3.93823e-11 -1.03951e-10 0
7.95211e-11 -1.00212e-10 0
-5.33986e-08 -5.97245e-08 0
-1.47479e-07 -1.31139e-07 0
-1.78113e-07 -1.13011e-07 0
-2.01252e-07 -4.22486e-08 0
-2.19817e-07 2.51708e-08 0
-2.19288e-07 5.55322e-08 0
-1.97788e-07 5.35765e-08 0
-1.66463e-07 4.14506e-08 0
-1.3901e-07 3.01973e-08 0
-1.21007e-07 2.12606e-08 0
-1.10937e-07 1.40579e-08 0
-1.05505e-07 8.46097e-09 0
-1.02359e-07 4.47517e-09 0
-1.00323e-07 1.90968e-09 0
-9.88983e-08 4.25285e-10 0
-9.7876e-08 -3.29738e-10 0
-9.71467e-08 -6.40335e-10 0
-9.66357e-08 -7.05913e-10 0
-9.62845e-08 -6.52247e-10 0
-9.6047e-08 -5.51984e-10 0
-9.58884e-08 -4.43396e-10 0
-9.57833e-08 -3.44288e-10 0
-9.57139e-08 -2.61179e-10 0
-9.56681e-08 -1.94884e-10 0
-9.56379e-08 -1.43683e-10 0
-9.56179e-08 -1.05006e-10 0
-9.56046e-08 -7.62415e-11 0
-9.55956e-08 -5.50875e-11 0
-9.55894e-08 -3.96533e-11 0
-9.55852e-08 -2.84506e-11 0
-9.55824e-08 -2.03383e-11 0
-9.55805e-08 -1.44554e-11 0
-9.55795e-08 -1.01564e-11 0
-9.55792e-08 -6.9495e-12 0
-9.55796e-08 -4.4411e-12 0
-9.55806e-08 -2.32844e-12 0
-9.5582e-08 -4.62297e-13 0
-9.55835e-08 1.15203e-12 0
-9.55847e-08 2.50713e-12 0
-9.55855e-08 3.74222e-12 0
-9.55847e-08 5.395e-12 0
-9.55887e-08 8.37367e-12 0
0.00963598 -9.41981e-08 0
0 -1.06491e-06 0
-1.90261e-11 -4.59374e-08 0
-3.05479e-09 -9.91627e-08 0
-7.38952e-08 -1.31428e-07 0
-1.80594e-07 -1.52222e-07 0
-8.98126e-08 -7.40263e-08 0
-5.21678e-11 5.77178e-11 0
1.9164e-11 -1.9164e-11 0
6.51939e-11 -9.36027e-11 0
-7.82864e-08 -6.40634e-08 0
-1.70759e-07 -1.13591e-07 0
-1.74546e-07 -4.59594e-08 0
-1.95356e-07 3.8171e-08 0
-2.20559e-07 6.78328e-08 0
-2.22551e-07 5.31102e-08 0
-1.95261e-07 2.94369e-08 0
-1.59131e-07 1.3731e-08 0
-1.3078e-07 5.46637e-09 0
-1.13216e-07 9.50634e-10 0
-1.03264e-07 -1.61803e-09 0
-9.76148e-08 -2.87087e-09 0
-9.42839e-08 -3.20809e-09 0
-9.22554e-08 -3.00228e-09 0
-9.1005e-08 -2.54919e-09 0
-9.02376e-08 -2.03775e-09 0
-8.97727e-08 -1.56595e-09 0
-8.94959e-08 -1.17207e-09 0
-8.93341e-08 -8.61802e-10 0
-8.92415e-08 -6.2612e-10 0
-8.91896e-08 -4.51251e-10 0
-8.91612e-08 -3.2349e-10 0
-8.91463e-08 -2.31093e-10 0
-8.91387e-08 -1.64719e-10 0
-8.91352e-08 -1.1725e-10 0
-8.91338e-08 -8.33965e-11 0
-8.91334e-08 -5.92956e-11 0
-8.91334e-08 -4.2151e-11 0
-8.91335e-08 -2.99525e-11 0
-8.91337e-08 -2.12599e-11 0
-8.9134e-08 -1.50419e-11 0
-8.91345e-08 -1.05598e-11 0
-8.91351e-08 -7.29302e-12 0
-8.91361e-08 -4.89427e-12 0
-8.91373e-08 -3.14277e-12 0
-8.91387e-08 -1.88113e-12 0
-8.91402e-08 -9.9442e-13 0
-8.91417e-08 -4.68595e-13 0
-8.91434e-08 -3.7562e-13 0
-8.91437e-08 -4.31787e-13 0
-8.91484e-08 2.00206e-13 0
0.00966173 4.37948e-09 0
0 -7.46892e-07 0
-2.28717e-12 -3.76957e-08 0
-6.45573e-09 -9.08032e-08 0
-7.51864e-08 -1.03704e-07 0
-2.02185e-07 -8.86482e-08 0
-2.03627e-07 -4.92141e-08 0
-6.05455e-08 -1.11629e-08 0
-5.30034e-11 6.31413e-11 0
-1.09349e-13 1.09349e-13 0
3.57385e-11 -9.26095e-11 0
-7.1761e-08 -5.20401e-08 0
-8.19929e-08 -3.43414e-08 0
-1.06855e-07 7.55433e-08 0
-1.68806e-07 1.05435e-07 0
-2.16759e-07 6.71754e-08 0
-2.11814e-07 2.07414e-08 0
-1.75379e-07 -4.80438e-09 0
-1.40087e-07 -1.33476e-08 0
-1.17559e-07 -1.43453e-08 0
-1.05675e-07 -1.27431e-08 0
-9.99223e-08 -1.03772e-08 0
-9.7241e-08 -7.97996e-09 0
-9.60288e-08 -5.88716e-09 0
-9.55129e-08 -4.21851e-09 0
-9.53238e-08 -2.96563e-09 0
-9.52832e-08 -2.06133e-09 0
-9.5305e-08 -1.42465e-09 0
-9.53481e-08 -9.82876e-10 0
-9.53941e-08 -6.78586e-10 0
-9.54354e-08 -4.69531e-10 0
-9.54696e-08 -3.25831e-10 0
-9.54967e-08 -2.26829e-10 0
-9.55176e-08 -1.58403e-10 0
-9.55334e-08 -1.10944e-10 0
-9.55451e-08 -7.79144e-11 0
-9.55537e-08 -5.48506e-11 0
-9.55599e-08 -3.86953e-11 0
-9.55643e-08 -2.73443e-11 0
-9.55675e-08 -1.93429e-11 0
-9.55698e-08 -1.36846e-11 0
-9.55717e-08 -9.675e-12 0
-9.55734e-08 -6.83576e-12 0
-9.5575e-08 -4.83657e-12 0
-9.55768e-08 -3.45596e-12 0
-9.55788e-08 -2.56549e-12 0
-9.55809e-08 -2.12468e-12 0
-9.55833e-08 -2.23094e-12 0
-9.55859e-08 -3.21526e-12 0
-9.55872e-08 -5.28621e-12 0
-9.55923e-08 -7.77921e-12 0
0.00963595 1.01296e-07 0
0 -5.26478e-07 0
8.56855e-12 -3.14182e-08 0
-1.28363e-08 -7.40474e-08 0
-8.82522e-08 -7.9699e-08 0
-1.98892e-07 -4.98078e-08 0
-2.23859e-07 -1.40776e-08 0
-1.47355e-07 -1.74443e-08 0
-6.8293e-08 -1.61044e-08 0
-8.5897e-11 4.05008e-11 0
3.3589e-11 4.52825e-11 0
-1.79164e-11 -2.9076e-08 0
-5.20715e-08 9.31517e-09 0
-4.24662e-08 1.21629e-07 0
-6.51662e-08 1.47017e-07 0
-1.32896e-07 8.51134e-08 0
-1.74287e-07 1.61813e-08 0
-1.68806e-07 -1.86772e-08 0
-1.46579e-07 -2.69599e-08 0
-1.29674e-07 -2.42707e-08 0
-1.2156e-07 -1.88416e-08 0
-1.18989e-07 -1.36146e-08 0
-1.18886e-07 -9.42689e-09 0
-1.19587e-07 -6.36049e-09 0
-1.20395e-07 -4.23296e-09 0
-1.21079e-07 -2.8035e-09 0
-1.21599e-07 -1.85914e-09 0
-1.21974e-07 -1.23908e-09 0
-1.22239e-07 -8.31586e-10 0
-1.22424e-07 -5.62371e-10 0
-1.22553e-07 -3.83168e-10 0
-1.22643e-07 -2.62879e-10 0
-1.22706e-07 -1.81462e-10 0
-1.2275e-07 -1.25931e-10 0
-1.22781e-07 -8.77941e-11 0
-1.22803e-07 -6.14483e-11 0
-1.22818e-07 -4.31555e-11 0
-1.22829e-07 -3.03991e-11 0
-1.22837e-07 -2.14709e-11 0
-1.22842e-07 -1.52034e-11 0
-1.22846e-07 -1.07947e-11 0
-1.22849e-07 -7.6925e-12 0
-1.22852e-07 -5.51854e-12 0
-1.22854e-07 -4.02255e-12 0
-1.22856e-07 -3.05577e-12 0
-1.22859e-07 -2.56279e-12 0
-1.22861e-07 -2.57712e-12 0
-1.22864e-07 -3.24866e-12 0
-1.22868e-07 -5.12879e-12 0
-1.2287e-07 -9.43043e-12 0
-1.22877e-07 -1.64776e-11 0
0.00947437 1.76285e-07 0
0 -4.5977e-07 0
2.41859e-11 -2.19055e-08 0
-2.60171e-08 -5.5031e-08 0
-1.14623e-07 -6.11164e-08 0
-2.15712e-07 -3.57125e-08 0
-2.40809e-07 3.37166e-09 0
-1.85839e-07 2.23376e-09 0
-1.44151e-07 -5.84539e-08 0
-7.63849e-08 -4.95988e-08 0
-6.87473e-08 -3.17632e-12 0
-1.37287e-07 2.64422e-08 0
-2.28167e-07 6.62858e-08 0
-1.50512e-07 9.46222e-08 0
-4.35122e-08 9.90356e-08 0
-6.14898e-08 6.32536e-08 0
-1.35347e-07 1.86429e-08 0
-1.71967e-07 -8.74676e-09 0
-1.74149e-07 -1.74596e-08 0
-1.69456e-07 -1.62378e-08 0
-1.67958e-07 -1.22222e-08 0
-1.69259e-07 -8.44625e-09 0
-1.71466e-07 -5.63092e-09 0
-1.73533e-07 -3.70777e-09 0
-1.75139e-07 -2.44162e-09 0
-1.76289e-07 -1.61831e-09 0
-1.7708e-07 -1.08243e-09 0
-1.77616e-07 -7.30887e-10 0
-1.77977e-07 -4.97838e-10 0
-1.78222e-07 -3.4167e-10 0
-1.78388e-07 -2.35986e-10 0
-1.78502e-07 -1.63855e-10 0
-1.78581e-07 -1.14271e-10 0
-1.78635e-07 -7.9985e-11 0
-1.78673e-07 -5.61603e-11 0
-1.787e-07 -3.95388e-11 0
-1.78719e-07 -2.79046e-11 0
-1.78732e-07 -1.9739e-11 0
-1.78741e-07 -1.39952e-11 0
-1.78748e-07 -9.94837e-12 0
-1.78752e-07 -7.09577e-12 0
-1.78756e-07 -5.09078e-12 0
-1.78759e-07 -3.69939e-12 0
-1.78761e-07 -2.7732e-12 0
-1.78764e-07 -2.23399e-12 0
-1.78767e-07 -2.07833e-12 0
-1.7877e-07 -2.40306e-12 0
-1.78774e-07 -3.39712e-12 0
-1.78778e-07 -5.64373e-12 0
-1.78783e-07 -1.13765e-11 0
-1.78794e-07 -2.29337e-11 0
0.00877696 1.87949e-07 0
0 -4.82974e-07 0
3.71679e-11 -1.00145e-08 0
-3.86819e-08 -2.74017e-08 0
-1.28976e-07 -3.07913e-08 0
-2.12546e-07 -1.8428e-08 0
-2.4117e-07 -9.37675e-09 0
-2.05133e-07 -1.61159e-08 0
-1.7668e-07 -5.01472e-08 0
-1.966e-07 -4.72828e-08 0
-1.77684e-07 3.09462e-08 0
-1.98301e-07 1.07232e-07 0
-1.98529e-07 1.01521e-07 0
-1.23983e-07 2.25528e-08 0
-5.02897e-08 -4.41163e-08 0
-8.18315e-08 -5.83172e-08 0
-1.59005e-07 -3.42907e-08 0
-1.98975e-07 -6.36971e-09 0
-2.02669e-07 6.45538e-09 0
-1.96863e-07 7.31817e-09 0
-1.93111e-07 4.44122e-09 0
-1.92279e-07 1.8897e-09 0
-1.92924e-07 4.46219e-10 0
-1.93987e-07 -1.81234e-10 0
-1.94989e-07 -3.74035e-10 0
-1.95789e-07 -3.77756e-10 0
-1.9638e-07 -3.16914e-10 0
-1.96803e-07 -2.45324e-10 0
-1.97099e-07 -1.82362e-10 0
-1.97307e-07 -1.32656e-10 0
-1.97451e-07 -9.53661e-11 0
-1.97552e-07 -6.81182e-11 0
-1.97623e-07 -4.84874e-11 0
-1.97673e-07 -3.44526e-11 0
-1.97708e-07 -2.4461e-11 0
-1.97733e-07 -1.73643e-11 0
-1.9775e-07 -1.233e-11 0
-1.97763e-07 -8.76123e-12 0
-1.97771e-07 -6.23224e-12 0
-1.97777e-07 -4.44118e-12 0
-1.97782e-07 -3.1754e-12 0
-1.97785e-07 -2.28725e-12 0
-1.97788e-07 -1.67797e-12 0
-1.9779e-07 -1.28741e-12 0
-1.97793e-07 -1.08951e-12 0
-1.97796e-07 -1.09845e-12 0
-1.978e-07 -1.3969e-12 0
-1.97804e-07 -2.14297e-12 0
-1.9781e-07 -3.66725e-12 0
-1.97817e-07 -7.54502e-12 0
-1.97835e-07 -1.67314e-11 0
0.00640764 9.88155e-08 0
0 0 0
2.22067e-11 0 0
-2.09504e-08 0 0
-6.25886e-08 0 0
-9.69661e-08 0 0
-1.10377e-07 0 0
-1.06099e-07 0 0
-1.00828e-07 0 0
-1.20237e-07 0 0
-1.08939e-07 0 0
-6.10306e-08 0 0
-1.11021e-08 0 0
7.35246e-09 0 0
-9.60015e-09 0 0
-5.32658e-08 0 0
-9.16867e-08 0 0
-1.05791e-07 0 0
-1.03399e-07 0 0
-9.72393e-08 0 0
-9.28038e-08 0 0
-9.06159e-08 0 0
-8.98469e-08 0 0
-8.97531e-08 0 0
-8.99099e-08 0 0
-9.01217e-08 0 0
-9.03144e-08 0 0
-9.04678e-08 0 0
-9.05831e-08 0 0
-9.06671e-08 0 0
-9.07274e-08 0 0
-9.07705e-08 0 0
-9.08011e-08 0 0
-9.08229e-08 0 0
-9.08384e-08 0 0
-9.08494e-08 0 0
-9.08571e-08 0 0
-9.08626e-08 0 0
-9.08665e-08 0 0
-9.08692e-08 0 0
-9.08712e-08 0 0
-9.08727e-08 0 0
-9.0874e-08 0 0
-9.08753e-08 0 0
-9.08766e-08 0 0
-9.08781e-08 0 0
-9.08799e-08 0 0
-9.08821e-08 0 0
-9.08851e-08 0 0
-9.08895e-08 0 0
-9.08997e-08 0 0
0.00229996 0 0
0 0 5.40573e-07
5.86894e-11 0 1.69009e-08
-1.07569e-08 0 7.86504e-08
-1.57687e-07 0 1.36602e-07
-5.10443e-07 0 -3.14715e-08
-2.05452e-07 0 -1.87245e-07
-6.94015e-08 0 -1.58728e-07
2.83209e-08 0 -1.257e-07
9.42393e-08 0 -6.23643e-08
1.02946e-07 0 -8.79434e-09
5.58545e-08 0 1.38843e-08
-1.67713e-08 0 1.07499e-08
-8.12951e-08 0 3.75753e-10
-1.22484e-07 0 -5.55265e-09
-1.43836e-07 0 -5.82237e-09
-1.55893e-07 0 -3.47373e-09
-1.65682e-07 0 -1.07637e-09
-1.75025e-07 0 3.88028e-10
-1.83386e-07 0 9.58878e-10
-1.90094e-07 0 9.93527e-10
-1.9499e-07 0 8.04929e-10
-1.98299e-07 0 5.74116e-10
-2.00392e-07 0 3.77719e-10
-2.01635e-07 0 2.3461e-10
-2.02323e-07 0 1.39286e-10
-2.02669e-07 0 7.95126e-11
-2.02815e-07 0 4.36907e-11
-2.02853e-07 0 2.30149e-11
-2.02837e-07 0 1.14889e-11
-2.028e-07 0 5.2918e-12
-2.02756e-07 0 2.10004e-12
-2.02716e-07 0 5.49467e-13
-2.02681e-07 0 -1.36465e-13
-2.02652e-07 0 -3.87047e-13
-2.0263e-07 0 -4.32277e-13
-2.02613e-07 0 -3.90839e-13
-2.026e-07 0 -3.20894e-13
-2.02591e-07 0 -2.48584e-13
-2.02584e-07 0 -1.83544e-13
-2.02579e-07 0 -1.27021e-13
-2.02576e-07 0 -7.58896e-14
-2.02574e-07 0 -2.3705e-14
-2.02573e-07 0 4.03716e-14
-2.02574e-07 0 1.29385e-13
-2.02575e-07 0 2.61349e-13
-2.02578e-07 0 4.93554e-13
-2.02581e-07 0 8.33925e-13
-2.02586e-07 0 1.06875e-12
-2.02594e-07 0 2.74022e-12
-2.02612e-07 0 1.23025e-11
0.00638594 0 -6.27982e-08
0.0036 -2.14384e-07 -1.79337e-10
0.00359982 -0.00127524 6.41894e-06
0.0068155 -0.00393344 -0.000183715
0.0138669 -0.00699859 -0.00163394
0.0247452 -0.0142022 -0.0050561
0.0461612 -0.0116628 -0.00483729
0.0492801 -0.00119371 -0.0015269
0.048848 0.00306515 4.87174e-05
0.0436399 0.00528594 0.000758474
0.0379541 0.0053531 0.000608258
0.0328959 0.00450705 0.000163319
0.0287022 0.00338952 -0.000219012
0.0254224 0.00233328 -0.000386695
0.0230145 0.0015123 -0.000358092
0.0213386 0.000959846 -0.000241771
0.0202124 0.000614339 -0.000129722
0.0194746 0.000397539 -5.64578e-05
0.0190028 0.000256684 -1.859e-05
0.0187084 0.000163272 -2.54045e-06
0.0185293 0.000101587 2.70013e-06
0.0184232 6.16324e-05 3.47709e-06
0.018362 3.63907e-05 2.80975e-06
0.0183279 2.08551e-05 1.91628e-06
0.0183095 1.15422e-05 1.18743e-06
0.0183002 6.11015e-06 6.86729e-07
0.0182957 3.03566e-06 3.73608e-07
0.0182939 1.35658e-06 1.90097e-07
0.0182934 4.81312e-07 8.82259e-08
0.0182935 5.5209e-08 3.46869e-08
0.0182939 -1.28976e-07 8.38186e-09
0.0182943 -1.89125e-07 -3.27639e-09
0.0182946 -1.90257e-07 -7.46401e-09
0.0182949 -1.6689e-07 -8.10656e-09
0.0182952 -1.36408e-07 -7.25922e-09
0.0182954 -1.06876e-07 -5.94089e-09
0.0182955 -8.14872e-08 -4.61752e-09
0.0182956 -6.10287e-08 -3.47283e-09
0.0182957 -4.52083e-08 -2.55513e-09
0.0182957 -3.33372e-08 -1.85478e-09
0.0182958 -2.46622e-08 -1.34532e-09
0.0182958 -1.85144e-08 -1.00699e-09
0.0182958 -1.43641e-08 -8.39977e-10
0.0182958 -1.18416e-08 -8.80402e-10
0.0182959 -1.07641e-08 -1.23125e-09
0.0182959 -1.10667e-08 -1.96531e-09
0.0182959 -1.29135e-08 -3.09412e-09
0.0182959 -1.74461e-08 -4.67941e-09
0.018296 -2.50199e-08 -2.21752e-09
0.0182961 -5.86198e-08 -5.25599e-09
0.0182963 -2.25733e-07 -1.02924e-07
0.0182967 -3.63682e-07 -1.94201e-07
0.01 -1.16134e-07 -1.3371e-06
0.0100009 -0.00304531 -0.0004912
0.0149565 -0.0100581 -0.000904443
0.0240597 -0.0180791 -0.00216942
0.0376004 -0.0310381 -0.00394547
0.057442 -0.0224256 -0.0010404
0.0551718 -0.00182174 0.00243344
0.0550315 0.00569807 0.00265596
0.0494445 0.0106087 0.00243624
0.0439969 0.0106087 0.00157945
0.0394537 0.00939658 0.000548266
0.0355486 0.00778774 -0.000222352
0.0323528 0.00601292 -0.00057733
0.0299923 0.0043245 -0.00057361
0.0283637 0.00294126 -0.0003989
0.0272858 0.00192767 -0.000218512
0.0265941 0.00123103 -9.74079e-05
0.0261638 0.000769032 -3.34986e-05
0.0259051 0.000470145 -5.67541e-06
0.0257551 0.000281055 3.90645e-06
0.0256717 0.000164044 5.73798e-06
0.0256274 9.32264e-05 4.90557e-06
0.0256053 5.13296e-05 3.52328e-06
0.0255953 2.71352e-05 2.31603e-06
0.0255915 1.35385e-05 1.44183e-06
0.0255908 6.14402e-06 8.64609e-07
0.0255914 2.29169e-06 5.04123e-07
0.0255925 4.06837e-07 2.87363e-07
0.0255936 -4.21872e-07 1.60634e-07
0.0255946 -7.0899e-07 8.81826e-08
0.0255954 -7.36883e-07 4.75458e-08
0.025596 -6.55057e-07 2.51466e-08
0.0255965 -5.38878e-07 1.30089e-08
0.0255968 -4.23539e-07 6.54987e-09
0.0255971 -3.23274e-07 3.18379e-09
0.0255973 -2.41952e-07 1.47546e-09
0.0255974 -1.78744e-07 6.40147e-10
0.0255975 -1.31035e-07 2.54965e-10
0.0255976 -9.58483e-08 9.45842e-11
0.0255976 -7.04672e-08 3.68349e-11
0.0255977 -5.26783e-08 5.37899e-12
0.0255977 -4.08282e-08 -6.19635e-11
0.0255977 -3.38096e-08 -2.26024e-10
0.0255977 -3.11494e-08 -6.04083e-10
0.0255977 -3.32606e-08 -1.24011e-09
0.0255978 -4.12575e-08 -1.44658e-09
0.0255978 -6.17213e-08 -9.83818e-10
0.0255979 -1.21334e-07 2.22548e-09
0.0255981 -2.49982e-07 -1.04642e-08
0.0255983 -4.6795e-07 -1.63286e-07
0.0255985 -6.02095e-07 -3.00546e-07
0.0148 -9.58332e-07 -1.64572e-06
0.0148023 -0.00529209 -0.00104613
0.0200947 -0.0161803 -0.00246383
0.0265663 -0.0278486 -0.00437778
0.0309843 -0.0440064 -0.00542848
0.0294965 -0.0270648 -0.0009429
0.0263057 -1.14085e-05 0.00277358
0.0261518 0.00735778 0.00279164
0.0303765 0.0152303 0.00268128
0.0307846 0.0149158 0.00176257
0.0297212 0.0131252 0.000749543
0.0286125 0.0109639 -3.92338e-05
0.027803 0.00839263 -0.000405088
0.0274856 0.00588092 -0.000433397
0.0274453 0.00389105 -0.000296214
0.0274968 0.00249087 -0.00014635
0.0275582 0.00155853 -4.62152e-05
0.0276103 0.000953481 2.96786e-06
0.0276536 0.000568597 1.96999e-05
0.0276902 0.000329408 2.08971e-05
0.0277208 0.000184672 1.66746e-05
0.0277453 9.95476e-05 1.17072e-05
0.0277642 5.09688e-05 7.63421e-06
0.0277782 2.41574e-05 4.74265e-06
0.0277883 9.94544e-06 2.84594e-06
0.0277954 2.81261e-06 1.66304e-06
0.0278003 -4.74131e-07 9.50959e-07
0.0278037 -1.75682e-06 5.33577e-07
0.027806 -2.05484e-06 2.941e-07
0.0278076 -1.91352e-06 1.59182e-07
0.0278087 -1.61205e-06 8.44268e-08
0.0278094 -1.28453e-06 4.36832e-08
0.0278099 -9.88564e-07 2.18677e-08
0.0278102 -7.43354e-07 1.04293e-08
0.0278104 -5.50101e-07 4.59304e-09
0.0278106 -4.02623e-07 1.72948e-09
0.0278107 -2.92594e-07 4.11319e-10
0.0278108 -2.11925e-07 -1.24102e-10
0.0278109 -1.53705e-07 -2.77113e-10
0.0278109 -1.12443e-07 -2.55171e-10
0.0278109 -8.40123e-08 -1.69361e-10
0.0278109 -6.55289e-08 -8.91746e-11
0.027811 -5.52729e-08 -5.23204e-11
0.027811 -5.26163e-08 -2.51983e-11
0.027811 -5.89602e-08 1.26912e-10
0.027811 -8.10559e-08 6.23784e-10
0.0278111 -1.28755e-07 -3.36353e-11
0.0278111 -2.06854e-07 -4.58783e-09
0.0278112 -3.17067e-07 -3.80838e-08
0.0278113 -4.52603e-07 -2.10576e-07
0.0278112 -5.24667e-07 -3.53144e-07
0.018 -1.95912e-06 -1.72159e-06
0.0180026 -0.00672257 -0.00187493
0.0204263 -0.0180184 -0.00493944
0.0202196 -0.0235911 -0.00649762
0.0158704 -0.0257795 -0.00728692
-1.40663e-06 -0.0134934 -0.00385495
9.86566e-05 2.97028e-05 7.91024e-07
-3.59981e-05 3.77093e-05 0.000522179
0.00705035 0.00469785 0.00110128
0.0147079 0.0107383 0.000998835
0.0181473 0.0116217 0.000567668
0.019775 0.0100593 5.26558e-05
0.0214748 0.00753691 -0.000274813
0.0232545 0.00498548 -0.000326926
0.0248206 0.00310506 -0.000227005
0.0260208 0.001889 -0.000101543
0.0268532 0.00113366 -1.2647e-05
0.0273981 0.000664797 2.96072e-05
0.027746 0.000375046 3.96505e-05
0.0279664 0.000200333 3.45452e-05
0.0281052 9.91572e-05 2.5271e-05
0.0281922 4.34349e-05 1.67694e-05
0.0282461 1.45609e-05 1.04554e-05
0.0282793 7.91774e-07 6.24079e-06
0.0282995 -4.91192e-06 3.6047e-06
0.0283118 -6.57107e-06 2.02703e-06
0.0283191 -6.37748e-06 1.1129e-06
0.0283236 -5.46676e-06 5.96648e-07
0.0283262 -4.39022e-06 3.11477e-07
0.0283278 -3.38963e-06 1.5723e-07
0.0283288 -2.55076e-06 7.56446e-08
0.0283294 -1.88606e-06 3.36318e-08
0.0283298 -1.37741e-06 1.27618e-08
0.02833 -9.97093e-07 2.94476e-09
0.0283301 -7.17305e-07 -1.25102e-09
0.0283302 -5.13929e-07 -2.69631e-09
0.0283303 -3.67502e-07 -2.87458e-09
0.0283303 -2.62992e-07 -2.5292e-09
0.0283303 -1.89138e-07 -2.0161e-09
0.0283304 -1.3772e-07 -1.49551e-09
0.0283304 -1.02921e-07 -1.03469e-09
0.0283304 -8.08322e-08 -6.52524e-10
0.0283304 -6.92749e-08 -3.60397e-10
0.0283304 -6.81135e-08 -2.63037e-10
0.0283304 -7.86628e-08 -6.05069e-10
0.0283304 -1.0124e-07 -2.22656e-09
0.0283304 -1.34117e-07 -8.11904e-09
0.0283304 -1.72729e-07 -2.01757e-08
0.0283304 -2.15247e-07 -6.42112e-08
0.0283303 -2.61595e-07 -2.36253e-07
0.0283302 -2.85351e-07 -3.71768e-07
0.0196 -2.64398e-06 -2.63048e-06
0.0196008 -0.00546798 -0.00272313
0.0191066 -0.0122945 -0.00645454
0.0161443 -0.0150194 -0.00685129
0.0112357 -0.0138308 -0.00670139
0.00205791 -0.00564059 -0.00465636
7.43147e-05 -6.83464e-05 -0.00107229
3.23483e-05 -3.23483e-05 -4.20239e-08
-3.51523e-05 3.68438e-05 0.000169973
0.00463473 0.00351669 0.000350416
0.0106425 0.00801086 0.000283065
0.0134659 0.00778751 -5.79166e-06
0.0167076 0.00515765 -0.00030021
0.0199373 0.00275552 -0.000373295
0.0227124 0.00126459 -0.000301448
0.0248113 0.000517655 -0.000170288
0.02623 0.000187428 -5.40206e-05
0.0271193 4.27761e-05 1.19431e-05
0.0276561 -2.25385e-05 3.40475e-05
0.0279749 -4.9054e-05 3.30114e-05
0.0281623 -5.47214e-05 2.45234e-05
0.0282714 -5.00025e-05 1.59971e-05
0.0283343 -4.13143e-05 9.65453e-06
0.02837 -3.21605e-05 5.52747e-06
0.02839 -2.41118e-05 3.03999e-06
0.0284011 -1.76438e-05 1.61442e-06
0.0284072 -1.27086e-05 8.27277e-07
0.0284105 -9.06079e-06 4.05948e-07
0.0284122 -6.418e-06 1.87096e-07
0.0284131 -4.52757e-06 7.72257e-08
0.0284135 -3.18615e-06 2.45262e-08
0.0284137 -2.23909e-06 1.00362e-09
0.0284138 -1.57253e-06 -8.13357e-09
0.0284138 -1.1043e-06 -1.0525e-08
0.0284138 -7.7582e-07 -1.00112e-08
0.0284138 -5.45641e-07 -8.45285e-09
0.0284138 -3.84593e-07 -6.70069e-09
0.0284138 -2.72226e-07 -5.10482e-09
0.0284138 -1.94264e-07 -3.77767e-09
0.0284138 -1.40808e-07 -2.72993e-09
0.0284138 -1.05111e-07 -1.94815e-09
0.0284138 -8.27585e-08 -1.44444e-09
0.0284138 -7.09286e-08 -1.3128e-09
0.0284138 -6.73884e-08 -1.9058e-09
0.0284138 -6.97264e-08 -3.79988e-09
0.0284137 -7.49905e-08 -7.60308e-09
0.0284137 -7.94631e-08 -1.5742e-08
0.0284137 -7.66048e-08 -2.92814e-08
0.0284136 -5.78537e-08 -7.41431e-08
0.0284135 -2.07735e-08 -2.42488e-07
0.0284134 1.93672e-09 -3.73868e-07
0.0196 -1.2791e-06 -3.54893e-06
0.0196 -0.00339007 -0.00307242
0.0189728 -0.00723743 -0.00650575
0.0176985 -0.00695183 -0.00635291
0.0137038 -0.0032009 -0.00572165
0.00975865 0.00319958 -0.00482869
0.00637079 0.00329729 -0.00249911
7.43914e-05 -6.23015e-05 -0.000476206
2.71491e-05 -2.71491e-05 -1.29479e-07
-3.42472e-05 3.60575e-05 5.08374e-05
0.00350278 0.00275434 0.00033668
0.00814258 0.00408514 0.00036143
0.0135171 0.00129446 -1.67134e-05
0.0182421 -0.000761533 -0.000283099
0.0219637 -0.00156386 -0.000378973
0.0246149 -0.00151074 -0.000304812
0.0262913 -0.00113242 -0.000163226
0.0272523 -0.000762864 -5.45917e-05
0.0277732 -0.000497458 -2.6732e-06
0.0280485 -0.000323295 1.2424e-05
0.0281918 -0.000210369 1.23479e-05
0.0282652 -0.000136777 8.53918e-06
0.0283019 -8.87814e-05 5.05799e-06
0.0283198 -5.76011e-05 2.72575e-06
0.028328 -3.74365e-05 1.36133e-06
0.0283314 -2.44273e-05 6.25925e-07
0.0283326 -1.60294e-05 2.54e-07
0.0283327 -1.05897e-05 7.76559e-08
0.0283325 -7.04663e-06 1.00933e-09
0.0283321 -4.72285e-06 -2.73921e-08
0.0283317 -3.18713e-06 -3.39026e-08
0.0283314 -2.16437e-06 -3.14543e-08
0.0283311 -1.4782e-06 -2.60856e-08
0.0283309 -1.01475e-06 -2.04197e-08
0.0283308 -6.99894e-07 -1.54525e-08
0.0283307 -4.84993e-07 -1.14453e-08
0.0283306 -3.37841e-07 -8.35639e-09
0.0283305 -2.36971e-07 -6.042e-09
0.0283305 -1.67984e-07 -4.3466e-09
0.0283305 -1.21183e-07 -3.14546e-09
0.0283304 -8.99808e-08 -2.37383e-09
0.0283304 -6.97291e-08 -2.05739e-09
0.0283304 -5.68762e-08 -2.33296e-09
0.0283304 -4.83533e-08 -3.48096e-09
0.0283304 -4.10025e-08 -5.8223e-09
0.0283303 -3.09681e-08 -9.66592e-09
0.0283303 -1.30208e-08 -1.74833e-08
0.0283303 2.27148e-08 -3.01924e-08
0.0283302 9.51482e-08 -7.09539e-08
0.0283302 2.15936e-07 -2.33795e-07
0.02833 2.88326e-07 -3.63148e-07
0.018 -8.16225e-07 -3.49048e-06
0.0180009 -0.00174557 -0.0030052
0.0184442 -0.00311955 -0.00616815
0.0187096 -0.0016023 -0.00559118
0.0179795 0.00159429 -0.00455095
0.0178751 0.0075596 -0.0037993
0.0185034 0.0126773 -0.00243276
0.0114156 0.00693949 -0.00110141
7.60708e-05 -4.85322e-05 -0.000341503
-2.73604e-05 -5.59304e-05 5.56015e-07
7.70465e-06 -0.000272309 0.000802757
0.00919049 -0.00234692 0.00128751
0.0169713 -0.00483248 0.000729179
0.0218914 -0.00541789 0.00024476
0.0247505 -0.00479815 -0.000149926
0.0263833 -0.00357485 -0.000307008
0.0272591 -0.00232394 -0.00025407
0.0276714 -0.00139333 -0.000143978
0.0278339 -0.000811878 -6.49611e-05
0.0278809 -0.000473151 -2.54282e-05
0.0278822 -0.000278104 -9.22414e-06
0.0278694 -0.000164932 -3.34162e-06
0.0278548 -9.86789e-05 -1.34516e-06
0.0278424 -5.96118e-05 -6.6802e-07
0.0278331 -3.64104e-05 -4.09987e-07
0.0278264 -2.25131e-05 -2.83527e-07
0.0278216 -1.41021e-05 -2.03655e-07
0.0278184 -8.95039e-06 -1.46335e-07
0.0278161 -5.75399e-06 -1.04022e-07
0.0278145 -3.74414e-06 -7.31106e-08
0.0278134 -2.4636e-06 -5.09442e-08
0.0278127 -1.63738e-06 -3.53089e-08
0.0278122 -1.09803e-06 -2.44109e-08
0.0278118 -7.42231e-07 -1.68716e-08
0.0278116 -5.05359e-07 -1.16761e-08
0.0278114 -3.46468e-07 -8.10149e-09
0.0278113 -2.39274e-07 -5.64427e-09
0.0278112 -1.66707e-07 -3.96136e-09
0.0278111 -1.17535e-07 -2.82678e-09
0.0278111 -8.42452e-08 -2.10598e-09
0.027811 -6.16602e-08 -1.74352e-09
0.027811 -4.60174e-08 -1.75085e-09
0.027811 -3.42941e-08 -2.20472e-09
0.027811 -2.36429e-08 -3.30534e-09
0.0278109 -1.08001e-08 -5.28595e-09
0.0278109 8.70953e-09 -8.30871e-09
0.0278109 4.13291e-08 -1.47199e-08
0.0278109 9.88635e-08 -2.49038e-08
0.0278109 2.11747e-07 -5.60893e-08
0.0278109 4.05915e-07 -2.07053e-07
0.0278109 5.24231e-07 -3.32435e-07
0.0148 -4.70904e-07 -3.05477e-06
0.0148015 -0.000827427 -0.00278526
0.0164083 -0.00102372 -0.00548823
0.0183582 0.000859996 -0.00464875
0.0201792 0.00395846 -0.00349667
0.0222363 0.00761747 -0.00293798
0.025932 0.0128064 -0.00216285
0.0290951 0.0197316 -0.00120866
0.0237647 0.0116409 -0.000172748
0.0241546 3.02206e-11 0.000634641
0.0275292 -0.00685054 0.00151352
0.0318245 -0.0135375 0.00219364
0.0331169 -0.0117051 0.0019632
0.0322183 -0.00851101 0.00137284
0.0304229 -0.00580919 0.000472763
0.0287114 -0.00373235 -0.000184524
0.0274833 -0.00221411 -0.000362421
0.0267132 -0.00122834 -0.00027428
0.026255 -0.00066064 -0.0001516
0.0259863 -0.000355223 -7.19801e-05
0.025829 -0.000193965 -3.16982e-05
0.0257368 -0.00010813 -1.34882e-05
0.0256823 -6.16033e-05 -5.68069e-06
0.0256499 -3.58506e-05 -2.40588e-06
0.0256303 -2.12899e-05 -1.03616e-06
0.0256184 -1.28848e-05 -4.56804e-07
0.025611 -7.93589e-06 -2.06275e-07
0.0256064 -4.96727e-06 -9.47374e-08
0.0256034 -3.15531e-06 -4.35491e-08
0.0256015 -2.03135e-06 -1.94773e-08
0.0256003 -1.32366e-06 -8.03451e-09
0.0255995 -8.71936e-07 -2.65395e-09
0.0255989 -5.79978e-07 -2.36159e-10
0.0255985 -3.89175e-07 7.33494e-10
0.0255983 -2.6327e-07 1.0116e-09
0.0255981 -1.79515e-07 9.77598e-10
0.025598 -1.23442e-07 8.17619e-10
0.0255979 -8.57147e-08 6.16461e-10
0.0255978 -6.02084e-08 4.04237e-10
0.0255978 -4.27999e-08 1.78967e-10
0.0255978 -3.05832e-08 -8.63679e-11
0.0255978 -2.13242e-08 -4.44127e-10
0.0255977 -1.30323e-08 -9.79767e-10
0.0255977 -3.55957e-09 -1.86105e-09
0.0255977 9.81266e-09 -3.27088e-09
0.0255977 3.11971e-08 -5.26729e-09
0.0255977 6.73403e-08 -9.52346e-09
0.0255977 1.28976e-07 -1.6089e-08
0.0255978 2.49433e-07 -3.64239e-08
0.0255979 4.63339e-07 -1.667e-07
0.0255981 5.9566e-07 -2.80131e-07
0.01 -9.12969e-07 -2.73127e-06
0.0100007 -0.00051406 -0.0022999
0.0115887 -0.000376775 -0.00427745