# vtk DataFile Version 2.0
Tobias Weinzierl: CPU, Manycore and Cluster Computing
ASCII

DATASET STRUCTURED_POINTS
DIMENSIONS  51 11 6

ORIGIN 0 0 0 

SPACING 0.1 0.1 0.1 

POINT_DATA 3366

VECTORS velocity float
0 0 0
1.41077e-13 0 0
-2.06276e-10 0 0
-3.64833e-10 0 0
-1.40922e-09 0 0
9.45022e-10 0 0
1.44044e-09 0 0
1.45143e-09 0 0
1.68065e-09 0 0
2.25632e-09 0 0
3.02109e-09 0 0
3.68783e-09 0 0
3.99576e-09 0 0
3.84454e-09 0 0
3.25403e-09 0 0
2.33468e-09 0 0
1.28651e-09 0 0
3.32511e-10 0 0
-4.13742e-10 0 0
-9.94841e-10 0 0
-1.53085e-09 0 0
-2.11426e-09 0 0
-2.76228e-09 0 0
-3.43156e-09 0 0
-4.05875e-09 0 0
-4.59362e-09 0 0
-5.01262e-09 0 0
-5.31657e-09 0 0
-5.52155e-09 0 0
-5.64956e-09 0 0
-5.72234e-09 0 0
-5.75815e-09 0 0
-5.77092e-09 0 0
-5.77049e-09 0 0
-5.76337e-09 0 0
-5.75364e-09 0 0
-5.74363e-09 0 0
-5.73454e-09 0 0
-5.72688e-09 0 0
-5.72073e-09 0 0
-5.71598e-09 0 0
-5.71242e-09 0 0
-5.7098e-09 0 0
-5.70791e-09 0 0
-5.70656e-09 0 0
-5.70563e-09 0 0
-5.70502e-09 0 0
-5.70468e-09 0 0
-5.70458e-09 0 0
-5.70476e-09 0 0
0.00189044 0 0
0 3.80263e-07 0
2.89316e-13 -2.38578e-12 0
-3.11356e-10 -2.80688e-10 0
-1.9383e-10 -8.39202e-11 0
-7.64087e-10 -8.38681e-10 0
3.11425e-09 -7.45987e-10 0
3.67267e-09 9.07907e-10 0
3.49491e-09 7.5062e-10 0
4.43595e-09 -4.06768e-10 0
6.49117e-09 -1.66081e-09 0
8.96616e-09 -2.59463e-09 0
1.10016e-08 -2.92686e-09 0
1.19004e-08 -2.47261e-09 0
1.1412e-08 -1.29693e-09 0
9.81502e-09 1.32601e-10 0
7.66632e-09 1.20211e-09 0
5.4498e-09 1.59539e-09 0
3.41038e-09 1.43483e-09 0
1.54261e-09 1.07047e-09 0
-3.02092e-10 7.87298e-10 0
-2.26641e-09 6.76075e-10 0
-4.38809e-09 6.81675e-10 0
-6.58386e-09 7.0939e-10 0
-8.69795e-09 6.9602e-10 0
-1.05736e-08 6.26237e-10 0
-1.21075e-08 5.165e-10 0
-1.32675e-08 3.92915e-10 0
-1.40806e-08 2.76896e-10 0
-1.46077e-08 1.80408e-10 0
-1.49198e-08 1.0713e-10 0
-1.50826e-08 5.55521e-11 0
-1.51491e-08 2.17937e-11 0
-1.51587e-08 1.44056e-12 0
-1.5138e-08 -9.51063e-12 0
-1.51041e-08 -1.42928e-11 0
-1.50672e-08 -1.53189e-11 0
-1.50328e-08 -1.42774e-11 0
-1.50031e-08 -1.22776e-11 0
-1.4979e-08 -9.99833e-12 0
-1.49601e-08 -7.81748e-12 0
-1.49458e-08 -5.91562e-12 0
-1.49352e-08 -4.35219e-12 0
-1.49275e-08 -3.11821e-12 0
-1.4922e-08 -2.17091e-12 0
-1.49181e-08 -1.45528e-12 0
-1.49154e-08 -9.14934e-13 0
-1.49137e-08 -4.93719e-13 0
-1.49127e-08 -1.21913e-13 0
-1.49125e-08 3.39339e-13 0
-1.4913e-08 1.18699e-12 0
0.00544657 -1.07469e-08 0
0 -1.84881e-08 0
6.24429e-13 -6.74915e-11 0
3.0963e-10 -1.10263e-09 0
1.68532e-09 -2.75904e-09 0
3.41089e-09 -4.84466e-09 0
5.95107e-09 -3.42101e-09 0
4.6199e-09 8.17016e-11 0
3.473e-09 -2.37471e-10 0
4.13661e-09 -2.38372e-09 0
7.08897e-09 -4.5945e-09 0
1.09239e-08 -6.57243e-09 0
1.3978e-08 -8.01929e-09 0
1.52334e-08 -8.27811e-09 0
1.42766e-08 -6.83827e-09 0
1.18396e-08 -4.00986e-09 0
8.94684e-09 -6.69248e-10 0
6.19626e-09 2.32625e-09 0
3.70426e-09 4.43743e-09 0
1.36702e-09 5.51123e-09 0
-9.23047e-10 5.71186e-09 0
-3.21427e-09 5.35052e-09 0
-5.50122e-09 4.70856e-09 0
-7.72369e-09 3.9598e-09 0
-9.77343e-09 3.1922e-09 0
-1.15314e-08 2.45653e-09 0
-1.29153e-08 1.79243e-09 0
-1.3906e-08 1.23003e-09 0
-1.45416e-08 7.84262e-10 0
-1.48943e-08 4.53613e-10 0
-1.50452e-08 2.24248e-10 0
-1.50667e-08 7.62038e-11 0
-1.50153e-08 -1.13379e-11 0
-1.49302e-08 -5.6854e-11 0
-1.48362e-08 -7.51337e-11 0
-1.47472e-08 -7.71226e-11 0
-1.467e-08 -7.03972e-11 0
-1.46065e-08 -5.98678e-11 0
-1.45565e-08 -4.8487e-11 0
-1.45183e-08 -3.78581e-11 0
-1.44898e-08 -2.87112e-11 0
-1.4469e-08 -2.12515e-11 0
-1.4454e-08 -1.5397e-11 0
-1.44434e-08 -1.09306e-11 0
-1.4436e-08 -7.59066e-12 0
-1.44309e-08 -5.12033e-12 0
-1.44275e-08 -3.28513e-12 0
-1.44253e-08 -1.86228e-12 0
-1.44241e-08 -5.79095e-13 0
-1.44238e-08 8.97292e-13 0
-1.44244e-08 2.89797e-12 0
0.00787874 -2.69842e-08 0
0 -6.2833e-07 0
1.05354e-12 -6.89995e-10 0
8.41806e-10 -2.6627e-09 0
2.71145e-09 -5.24836e-09 0
3.89781e-09 -6.95687e-09 0
3.78178e-09 -3.68266e-09 0
2.38745e-09 -2.37703e-12 0
1.42953e-09 -1.06431e-09 0
4.43238e-10 -3.481e-09 0
1.79515e-09 -6.49674e-09 0
5.10819e-09 -1.00479e-08 0
7.89204e-09 -1.3339e-08 0
9.13756e-09 -1.45759e-08 0
8.14679e-09 -1.27186e-08 0
5.56364e-09 -8.25881e-09 0
2.31161e-09 -2.28711e-09 0
-9.52644e-10 3.76128e-09 0
-3.79054e-09 8.41828e-09 0
-5.88126e-09 1.08109e-08 0
-7.0752e-09 1.101e-08 0
-7.47902e-09 9.74902e-09 0
-7.39618e-09 7.86213e-09 0
-7.14396e-09 5.92447e-09 0
-6.90878e-09 4.2106e-09 0
-6.72865e-09 2.80633e-09 0
-6.56247e-09 1.71491e-09 0
-6.36345e-09 9.09878e-10 0
-6.1141e-09 3.52068e-10 0
-5.82587e-09 -4.66229e-12 0
-5.52424e-09 -2.08341e-10 0
-5.23474e-09 -3.0365e-10 0
-4.97558e-09 -3.2819e-10 0
-4.75608e-09 -3.10947e-10 0
-4.57822e-09 -2.72542e-10 0
-4.43914e-09 -2.2651e-10 0
-4.33351e-09 -1.80958e-10 0
-4.25521e-09 -1.4015e-10 0
-4.19833e-09 -1.05833e-10 0
-4.1577e-09 -7.82383e-11 0
-4.12911e-09 -5.67893e-11 0
-4.10924e-09 -4.05547e-11 0
-4.09559e-09 -2.85248e-11 0
-4.0863e-09 -1.97571e-11 0
-4.08003e-09 -1.34402e-11 0
-4.07584e-09 -8.90569e-12 0
-4.0731e-09 -5.60491e-12 0
-4.07143e-09 -3.07293e-12 0
-4.07053e-09 -8.92502e-13 0
-4.07012e-09 1.26633e-12 0
-4.07014e-09 3.46217e-12 0
0.00897799 -2.99198e-08 0
0 -1.23451e-06 0
4.60624e-13 -1.33641e-09 0
1.29877e-10 -3.79189e-09 0
7.26218e-10 -5.04149e-09 0
8.40871e-10 -4.07763e-09 0
-3.43205e-13 -1.49243e-09 0
-4.1724e-12 -4.98351e-12 0
4.18147e-12 -4.57821e-12 0
-9.3805e-10 -1.73651e-09 0
-2.98832e-09 -6.20923e-09 0
-3.58186e-09 -1.16648e-08 0
-2.34369e-09 -1.64443e-08 0
-1.91911e-09 -1.84418e-08 0
-2.99537e-09 -1.6221e-08 0
-5.12439e-09 -1.02627e-08 0
-7.72059e-09 -2.0096e-09 0
-1.02404e-08 6.2093e-09 0
-1.21243e-08 1.20557e-08 0
-1.28304e-08 1.43661e-08 0
-1.20694e-08 1.35313e-08 0
-1.00165e-08 1.08626e-08 0
-7.23471e-09 7.67614e-09 0
-4.36131e-09 4.79116e-09 0
-1.8331e-09 2.52558e-09 0
1.8757e-10 9.02456e-10 0
1.72963e-09 -1.69683e-10 0
2.89571e-09 -8.07083e-10 0
3.78619e-09 -1.12102e-09 0
4.47349e-09 -1.20998e-09 0
5.00458e-09 -1.15637e-09 0
5.41105e-09 -1.02442e-09 0
5.71693e-09 -8.60131e-10 0
5.94246e-09 -6.93351e-10 0
6.10527e-09 -5.41092e-10 0
6.22043e-09 -4.1121e-10 0
6.30039e-09 -3.05643e-10 0
6.35498e-09 -2.2293e-10 0
6.3917e-09 -1.59978e-10 0
6.41607e-09 -1.13182e-10 0
6.43206e-09 -7.90655e-11 0
6.44242e-09 -5.459e-11 0
6.44908e-09 -3.72608e-11 0
6.45332e-09 -2.51148e-11 0
6.456e-09 -1.66517e-11 0
6.4577e-09 -1.07439e-11 0
6.45876e-09 -6.54927e-12 0
6.45942e-09 -3.45079e-12 0
6.45991e-09 -1.04077e-12 0
6.46053e-09 9.08596e-13 0
6.46111e-09 2.412e-12 0
0.00943023 -1.50895e-08 0
0 -1.11924e-06 0
-2.17872e-13 -1.24226e-09 0
-7.5381e-10 -2.90352e-09 0
-9.68289e-10 -3.81686e-09 0
-1.36231e-09 -4.08234e-09 0
-9.60304e-10 -1.92692e-09 0
-3.98198e-12 3.99443e-12 0
2.00958e-13 -2.00958e-13 0
4.6074e-12 -3.77347e-12 0
-1.92927e-09 -2.72997e-09 0
-6.66085e-09 -9.92785e-09 0
-9.24796e-09 -1.69226e-08 0
-1.11565e-08 -1.93238e-08 0
-1.30221e-08 -1.66143e-08 0
-1.45732e-08 -9.67167e-09 0
-1.56135e-08 -5.17873e-10 0
-1.60081e-08 7.97876e-09 0
-1.5602e-08 1.33288e-08 0
-1.41416e-08 1.45917e-08 0
-1.14553e-08 1.25454e-08 0
-7.73751e-09 8.83888e-09 0
-3.56136e-09 4.96711e-09 0
4.0504e-10 1.77573e-09 0
3.69754e-09 -4.79565e-10 0
6.15859e-09 -1.86769e-09 0
7.86055e-09 -2.57031e-09 0
8.97518e-09 -2.78023e-09 0
9.67867e-09 -2.66752e-09 0
1.01107e-08 -2.37025e-09 0
1.03693e-08 -1.9921e-09 0
1.05188e-08 -1.60366e-09 0
1.06011e-08 -1.24705e-09 0
1.06426e-08 -9.42576e-10 0
1.06604e-08 -6.95796e-10 0
1.06651e-08 -5.03519e-10 0
1.06631e-08 -3.5829e-10 0
1.06582e-08 -2.51304e-10 0
1.06525e-08 -1.74085e-10 0
1.06472e-08 -1.1928e-10 0
1.06426e-08 -8.09217e-11 0
1.06388e-08 -5.43805e-11 0
1.06359e-08 -3.6183e-11 0
1.06336e-08 -2.37872e-11 0
1.0632e-08 -1.53673e-11 0
1.06309e-08 -9.63196e-12 0
1.06302e-08 -5.69289e-12 0
1.06299e-08 -2.97315e-12 0
1.06301e-08 -1.13894e-12 0
1.06307e-08 -4.02901e-14 0
1.06314e-08 4.09514e-13 0
0.0095497 9.42452e-09 0
0 -7.70683e-07 0
5.90377e-14 -7.08324e-10 0
-7.16562e-10 -1.85655e-09 0
-7.75593e-10 -2.4593e-09 0
-1.62812e-09 -2.75816e-09 0
-2.11735e-09 -2.41162e-09 0
-9.3095e-10 -9.64454e-10 0
-3.80794e-12 4.16771e-12 0
4.38038e-13 -4.38038e-13 0
6.02632e-12 -3.27536e-12 0
-2.94952e-09 -5.09234e-09 0
-9.38511e-09 -1.37208e-08 0
-1.47023e-08 -1.71202e-08 0
-1.8246e-08 -1.41167e-08 0
-1.99869e-08 -6.90848e-09 0
-1.98101e-08 1.66469e-09 0
-1.79313e-08 8.6995e-09 0
-1.48761e-08 1.22479e-08 0
-1.11092e-08 1.19676e-08 0
-6.92827e-09 8.97767e-09 0
-2.64676e-09 4.96595e-09 0
1.31003e-09 1.2771e-09 0
4.52966e-09 -1.44192e-09 0
6.78911e-09 -3.0992e-09 0
8.10915e-09 -3.87248e-09 0
8.68018e-09 -4.00931e-09 0
8.749e-09 -3.73972e-09 0
8.53645e-09 -3.25008e-09 0
8.20306e-09 -2.67824e-09 0
7.84831e-09 -2.11589e-09 0
7.52461e-09 -1.6153e-09 0
7.25343e-09 -1.19887e-09 0
7.03845e-09 -8.69308e-10 0
6.87448e-09 -6.18271e-10 0
6.75293e-09 -4.32701e-10 0
6.66477e-09 -2.98763e-10 0
6.60189e-09 -2.03928e-10 0
6.55765e-09 -1.37815e-10 0
6.52685e-09 -9.23038e-11 0
6.50559e-09 -6.12958e-11 0
6.49102e-09 -4.03449e-11 0
6.48111e-09 -2.62816e-11 0
6.47442e-09 -1.68857e-11 0
6.46999e-09 -1.06285e-11 0
6.46716e-09 -6.48086e-12 0
6.46548e-09 -3.77202e-12 0
6.46464e-09 -2.08725e-12 0
6.46443e-09 -1.19672e-12 0
6.46477e-09 -1.05442e-12 0
6.46521e-09 -1.6144e-12 0
0.00943023 3.10124e-08 0
0 -5.39652e-07 0
4.81227e-13 -3.63846e-10 0
-2.73776e-10 -1.05165e-09 0
-3.04805e-10 -1.76843e-09 0
-8.8694e-10 -2.09276e-09 0
-2.19744e-09 -1.51752e-09 0
-2.63794e-09 -4.32336e-10 0
-1.69997e-09 7.30592e-11 0
-4.6221e-12 3.67063e-12 0
6.22129e-12 1.64278e-12 0
2.30114e-12 -2.92522e-09 0
-4.93597e-09 -9.42501e-09 0
-1.27423e-08 -1.2543e-08 0
-1.96155e-08 -8.87419e-09 0
-2.32193e-08 -1.85905e-09 0
-2.24847e-08 4.81123e-09 0
-1.82179e-08 8.86624e-09 0
-1.23431e-08 9.55456e-09 0
-6.62783e-09 7.43307e-09 0
-2.02721e-09 3.90919e-09 0
1.20557e-09 4.38616e-10 0
3.15009e-09 -2.10824e-09 0
3.98764e-09 -3.53707e-09 0
3.94232e-09 -4.0544e-09 0
3.27303e-09 -3.97342e-09 0
2.24548e-09 -3.56148e-09 0
1.09027e-09 -3.0051e-09 0
-2.62345e-11 -2.42242e-09 0
-1.00727e-09 -1.88217e-09 0
-1.81351e-09 -1.41855e-09 0
-2.44412e-09 -1.04235e-09 0
-2.91919e-09 -7.49927e-10 0
-3.26688e-09 -5.30163e-10 0
-3.51571e-09 -3.69365e-10 0
-3.69072e-09 -2.54188e-10 0
-3.81214e-09 -1.7308e-10 0
-3.89549e-09 -1.16742e-10 0
-3.95221e-09 -7.80456e-11 0
-3.99055e-09 -5.1716e-11 0
-4.01632e-09 -3.39443e-11 0
-4.03354e-09 -2.20332e-11 0
-4.04498e-09 -1.41016e-11 0
-4.0525e-09 -8.85808e-12 0
-4.05736e-09 -5.4313e-12 0
-4.06039e-09 -3.24509e-12 0
-4.06218e-09 -1.92927e-12 0
-4.06315e-09 -1.26374e-12 0
-4.06358e-09 -1.15338e-12 0
-4.06369e-09 -1.65866e-12 0
-4.06387e-09 -2.79579e-12 0
0.008978 3.86951e-08 0
0 -4.57203e-07 0
5.0102e-13 -1.76595e-10 0
9.01894e-11 -5.6826e-10 0
1.56718e-11 -1.00167e-09 0
-8.59429e-10 -1.22563e-09 0
-2.64595e-09 -5.06153e-10 0
-3.97714e-09 8.196e-10 0
-4.03956e-09 -4.61175e-11 0
-2.69332e-09 -7.5629e-10 0
-1.99369e-09 -1.78093e-14 0
-7.3792e-10 -3.06086e-09 0
-3.95905e-09 -7.00649e-09 0
-1.24754e-08 -6.57868e-09 0
-2.09545e-08 -2.63958e-09 0
-2.45054e-08 2.33456e-09 0
-2.16988e-08 5.81055e-09 0
-1.47588e-08 6.69807e-09 0
-7.31438e-09 5.21267e-09 0
-1.99678e-09 2.39354e-09 0
4.32858e-10 -4.49313e-10 0
5.35181e-10 -2.38905e-09 0
-7.32865e-10 -3.2022e-09 0
-2.59364e-09 -3.17881e-09 0
-4.58647e-09 -2.74049e-09 0
-6.48435e-09 -2.19663e-09 0
-8.18377e-09 -1.69836e-09 0
-9.63963e-09 -1.29064e-09 0
-1.08395e-08 -9.71111e-10 0
-1.17937e-08 -7.24412e-10 0
-1.25287e-08 -5.35251e-10 0
-1.30793e-08 -3.91285e-10 0
-1.34821e-08 -2.82806e-10 0
-1.37713e-08 -2.0203e-10 0
-1.39755e-08 -1.42642e-10 0
-1.41179e-08 -9.95341e-11 0
-1.42162e-08 -6.8635e-11 0
-1.42834e-08 -4.67565e-11 0
-1.43291e-08 -3.14483e-11 0
-1.43598e-08 -2.08607e-11 0
-1.43804e-08 -1.36213e-11 0
-1.4394e-08 -8.72899e-12 0
-1.4403e-08 -5.46656e-12 0
-1.44088e-08 -3.32999e-12 0
-1.44126e-08 -1.9723e-12 0
-1.44149e-08 -1.16149e-12 0
-1.44162e-08 -7.53505e-13 0
-1.44171e-08 -6.75594e-13 0
-1.44176e-08 -9.12762e-13 0
-1.44182e-08 -1.51129e-12 0
-1.44192e-08 -2.47855e-12 0
0.00787877 2.87179e-08 0
0 -4.70987e-07 0
5.99464e-13 -6.39681e-12 0
2.51539e-10 -5.78679e-11 0
1.15174e-10 -1.34939e-10 0
-9.83542e-10 -1.62899e-10 0
-3.1413e-09 -1.06121e-10 0
-4.93311e-09 5.25288e-10 0
-5.0593e-09 5.35451e-10 0
-5.88085e-09 -2.98438e-10 0
-5.46489e-09 -1.00748e-09 0
-4.4171e-09 -1.78557e-09 0
-6.81268e-09 -1.37454e-09 0
-1.12304e-08 1.88343e-10 0
-1.51576e-08 1.59968e-09 0
-1.56204e-08 2.41899e-09 0
-1.20054e-08 2.41603e-09 0
-6.43082e-09 1.61743e-09 0
-1.78317e-09 4.12904e-10 0
2.71158e-10 -6.63043e-10 0
-2.20295e-10 -1.26193e-09 0
-2.24239e-09 -1.35917e-09 0
-4.73224e-09 -1.14528e-09 0
-7.03513e-09 -8.38043e-10 0
-8.91148e-09 -5.71437e-10 0
-1.03625e-08 -3.86893e-10 0
-1.14719e-08 -2.73214e-10 0
-1.23246e-08 -2.0473e-10 0
-1.29833e-08 -1.60367e-10 0
-1.34907e-08 -1.2784e-10 0
-1.38779e-08 -1.01514e-10 0
-1.41693e-08 -7.93357e-11 0
-1.43852e-08 -6.07083e-11 0
-1.45426e-08 -4.54162e-11 0
-1.46557e-08 -3.32195e-11 0
-1.4736e-08 -2.37706e-11 0
-1.47921e-08 -1.66473e-11 0
-1.4831e-08 -1.14101e-11 0
-1.48575e-08 -7.64732e-12 0
-1.48755e-08 -5.0017e-12 0
-1.48875e-08 -3.18013e-12 0
-1.48954e-08 -1.95288e-12 0
-1.49006e-08 -1.14669e-12 0
-1.49039e-08 -6.35881e-13 0
-1.4906e-08 -3.33187e-13 0
-1.49072e-08 -1.81948e-13 0
-1.4908e-08 -1.50194e-13 0
-1.49085e-08 -2.21819e-13 0
-1.49091e-08 -3.84088e-13 0
-1.49098e-08 -6.15663e-13 0
-1.4911e-08 -9.41352e-13 0
0.00544661 9.7621e-09 0
0 0 0
4.19491e-13 0 0
1.47544e-10 0 0
7.29106e-11 0 0
-4.54056e-10 0 0
-1.53547e-09 0 0
-2.66298e-09 0 0
-2.71987e-09 0 0
-3.188e-09 0 0
-3.47095e-09 0 0
-3.67697e-09 0 0
-4.08091e-09 0 0
-4.22356e-09 0 0
-4.16162e-09 0 0
-3.51118e-09 0 0
-2.1777e-09 0 0
-7.1188e-10 0 0
1.69527e-10 0 0
1.46227e-10 0 0
-5.97315e-10 0 0
-1.64652e-09 0 0
-2.65475e-09 0 0
-3.45902e-09 0 0
-4.04289e-09 0 0
-4.45536e-09 0 0
-4.75291e-09 0 0
-4.97658e-09 0 0
-5.15054e-09 0 0
-5.28775e-09 0 0
-5.39561e-09 0 0
-5.4792e-09 0 0
-5.54277e-09 0 0
-5.59016e-09 0 0
-5.62482e-09 0 0
-5.64971e-09 0 0
-5.66729e-09 0 0
-5.6795e-09 0 0
-5.68786e-09 0 0
-5.69349e-09 0 0
-5.69722e-09 0 0
-5.69966e-09 0 0
-5.70123e-09 0 0
-5.70221e-09 0 0
-5.7028e-09 0 0
-5.70315e-09 0 0
-5.70337e-09 0 0
-5.70354e-09 0 0
-5.70376e-09 0 0
-5.70409e-09 0 0
-5.70459e-09 0 0
0.00189046 0 0
0 0 5.27437e-07
3.67027e-13 0 2.0895e-10
-6.02658e-10 0 6.45952e-10
-7.95392e-10 0 1.28735e-09
-4.71498e-09 0 -4.70343e-10
1.54372e-09 0 -2.10259e-09
3.41788e-09 0 -1.41323e-09
3.97418e-09 0 -9.89977e-10
4.63954e-09 0 -3.97606e-10
5.71045e-09 0 3.20573e-10
7.12406e-09 0 1.16319e-09
9.01984e-09 0 1.95242e-09
1.13254e-08 0 2.3165e-09
1.3468e-08 0 2.0397e-09
1.45313e-08 0 1.3786e-09
1.39015e-08 0 7.66843e-10
1.16823e-08 0 4.08048e-10
8.5397e-09 0 2.6638e-10
5.17067e-09 0 2.57516e-10
1.93313e-09 0 3.30195e-10
-1.12813e-09 0 4.43619e-10
-4.06162e-09 0 5.50041e-10
-6.85177e-09 0 6.08304e-10
-9.40132e-09 0 6.00985e-10
-1.15933e-08 0 5.36452e-10
-1.33525e-08 0 4.38018e-10
-1.46698e-08 0 3.30658e-10
-1.55906e-08 0 2.32588e-10
-1.61907e-08 0 1.53049e-10
-1.65517e-08 0 9.40591e-11
-1.67471e-08 0 5.33954e-11
-1.68353e-08 0 2.71321e-11
-1.68589e-08 0 1.1235e-11
-1.68471e-08 0 2.31143e-12
-1.68188e-08 0 -2.19386e-12
-1.67852e-08 0 -4.06468e-12
-1.67526e-08 0 -4.47386e-12
-1.6724e-08 0 -4.15165e-12
-1.67003e-08 0 -3.52755e-12
-1.66815e-08 0 -2.8371e-12
-1.66672e-08 0 -2.19701e-12
-1.66565e-08 0 -1.655e-12
-1.66487e-08 0 -1.22083e-12
-1.66431e-08 0 -8.85638e-13
-1.66391e-08 0 -6.34157e-13
-1.66364e-08 0 -4.51636e-13
-1.66346e-08 0 -3.29133e-13
-1.66335e-08 0 -2.7304e-13
-1.66332e-08 0 -2.85503e-13
-1.66337e-08 0 -1.98296e-13
0.00537314 0 -6.927e-10
0.0036 -3.01536e-07 -6.11072e-08
0.0035998 -0.00138923 -2.10993e-05
0.00669735 -0.0039383 0.000115865
0.0136101 -0.00587317 -0.000485649
0.0234986 -0.0144996 -0.00426388
0.0464179 -0.013482 -0.00489172
0.0499615 -0.00195667 -0.00164816
0.0497066 0.00261801 -0.000165476
0.0447328 0.00493929 0.000571803
0.0391431 0.00509816 0.000569843
0.0340599 0.00442175 0.000316638
0.0298003 0.00353272 5.63025e-05
0.026428 0.00266532 -0.000132253
0.0238652 0.00192156 -0.000234558
0.0219523 0.00134407 -0.000262032
0.0205172 0.00092952 -0.00023665
0.0194212 0.000647262 -0.000182663
0.0185702 0.000460231 -0.000121007
0.017906 0.000335963 -6.62806e-05
0.0173922 0.000250339 -2.57722e-05
0.0170026 0.000187748 -5.54816e-07
0.0167149 0.00013944 1.20774e-05
0.0165093 0.000101161 1.61519e-05
0.0163674 7.09859e-05 1.53953e-05
0.0162735 4.78436e-05 1.25362e-05
0.0162142 3.07781e-05 9.23641e-06
0.0161788 1.87387e-05 6.31864e-06
0.0161592 1.06303e-05 4.06559e-06
0.0161495 5.42945e-06 2.47285e-06
0.0161458 2.26986e-06 1.4187e-06
0.0161453 4.75134e-07 7.58221e-07
0.0161465 -4.49892e-07 3.65003e-07
0.0161483 -8.48784e-07 1.4341e-07
0.0161502 -9.49016e-07 2.69272e-08
0.0161519 -8.94529e-07 -2.81042e-08
0.0161534 -7.72014e-07 -4.90464e-08
0.0161546 -6.30594e-07 -5.23492e-08
0.0161555 -4.95766e-07 -4.74845e-08
0.0161562 -3.78861e-07 -3.96331e-08
0.0161568 -2.83209e-07 -3.14337e-08
0.0161571 -2.07987e-07 -2.40792e-08
0.0161574 -1.50523e-07 -1.79791e-08
0.0161576 -1.07587e-07 -1.31537e-08
0.0161578 -7.60771e-08 -9.46088e-09
0.0161578 -5.3309e-08 -6.70719e-09
0.0161579 -3.70969e-08 -4.66821e-09
0.016158 -2.57247e-08 -3.04281e-09
0.016158 -1.79621e-08 -1.10037e-09
0.016158 -1.39477e-08 1.8823e-09
0.016158 -2.29843e-08 3.87225e-10
0.0161581 -3.29379e-08 -2.90213e-09
0.01 -1.33974e-07 -1.43355e-06
0.0100007 -0.00298306 -0.000597812
0.0147872 -0.00997063 -0.000792568
0.0242003 -0.017775 -0.00122526
0.0386534 -0.0326778 -0.00333066
0.0593829 -0.0249959 -0.000809068
0.0565975 -0.00278619 0.00319666
0.0560304 0.00504715 0.00339379
0.0502623 0.0100014 0.0030042
0.0448218 0.0101224 0.00212839
0.0403555 0.00900908 0.00121283
0.0366832 0.00756431 0.000494915
0.0337472 0.0060958 -9.68377e-06
0.0314925 0.00478142 -0.000314599
0.0297642 0.00370348 -0.000441968
0.0284125 0.00285635 -0.00043868
0.0273339 0.00219426 -0.000359933
0.0264694 0.00167198 -0.000253502
0.0257869 0.00125746 -0.000152421
0.0252641 0.000929831 -7.37433e-05
0.0248785 0.000674166 -2.16362e-05
0.0246057 0.00047799 7.45838e-06
0.0244213 0.000330255 2.00762e-05
0.0243029 0.000221331 2.26699e-05
0.0242318 0.000143009 2.02182e-05
0.024193 8.83452e-05 1.59488e-05
0.024175 5.14937e-05 1.16243e-05
0.0241696 2.76208e-05 8.00527e-06
0.0241712 1.28595e-05 5.27755e-06
0.0241761 4.24356e-06 3.35658e-06
0.024182 -4.00774e-07 2.06774e-06
0.0241879 -2.59691e-06 1.23472e-06
0.024193 -3.36707e-06 7.12987e-07
0.0241973 -3.368e-06 3.95583e-07
0.0242006 -3.00227e-06 2.08134e-07
0.0242032 -2.50336e-06 1.01061e-07
0.0242052 -1.99697e-06 4.2367e-08
0.0242066 -1.54317e-06 1.19539e-08
0.0242077 -1.16414e-06 -2.47788e-09
0.0242084 -8.61793e-07 -8.25848e-09
0.0242089 -6.28358e-07 -9.62882e-09
0.0242093 -4.52486e-07 -8.95154e-09
0.0242096 -3.2249e-07 -7.48369e-09
0.0242098 -2.2789e-07 -5.86604e-09
0.0242099 -1.59984e-07 -4.3972e-09
0.02421 -1.11935e-07 -3.12375e-09
0.02421 -7.86482e-08 -1.77269e-09
0.0242101 -5.81841e-08 2.82597e-10
0.0242101 -5.17556e-08 3.23463e-09
0.0242102 -6.75315e-08 -2.42591e-09
0.0242102 -8.27645e-08 -9.73715e-09
0.0148 -9.43053e-07 -1.7227e-06
0.0148023 -0.00530127 -0.00112377
0.0204138 -0.0164673 -0.00244975
0.0276342 -0.0289568 -0.0039446
0.0323178 -0.0464116 -0.00578234
0.0307627 -0.0286402 -0.00142332
0.0269413 -1.21869e-05 0.00331461
0.0263757 0.00704094 0.00352902
0.0298554 0.0143332 0.00343473
0.0302079 0.0136916 0.00247863
0.0294366 0.0118541 0.00153999
0.0286334 0.00997038 0.000729385
0.0280373 0.00809764 0.000142375
0.027744 0.00640621 -0.000214927
0.0276257 0.00502491 -0.00036485
0.0275759 0.00392485 -0.000370998
0.0275472 0.00303557 -0.000300085
0.0275296 0.00230535 -0.000202882
0.0275273 0.00170787 -0.000111039
0.0275438 0.00123005 -3.98565e-05
0.027578 0.000860098 6.89417e-06
0.0276248 0.00058294 3.20503e-05
0.0276785 0.000381388 4.12356e-05
0.027734 0.000238854 4.04015e-05
0.0277874 0.000141017 3.44938e-05
0.0278361 7.62106e-05 2.69494e-05
0.0278784 3.51684e-05 1.97529e-05
0.0279137 1.06696e-05 1.37886e-05
0.0279423 -2.77248e-06 9.25681e-06
0.0279646 -9.1801e-06 6.01409e-06
0.0279816 -1.13765e-05 3.79511e-06
0.0279942 -1.125e-05 2.3295e-06
0.0280034 -9.99866e-06 1.39015e-06
0.02801 -8.33662e-06 8.04355e-07
0.0280146 -6.65717e-06 4.487e-07
0.0280178 -5.15176e-06 2.38754e-07
0.0280201 -3.89249e-06 1.1867e-07
0.0280216 -2.88616e-06 5.2554e-08
0.0280226 -2.10783e-06 1.794e-08
0.0280233 -1.52047e-06 1.1277e-09
0.0280238 -1.08564e-06 -6.01834e-09
0.0280241 -7.68626e-07 -8.184e-09
0.0280243 -5.40396e-07 -7.97435e-09
0.0280245 -3.77851e-07 -6.79285e-09
0.0280246 -2.63266e-07 -5.32871e-09
0.0280247 -1.83723e-07 -3.83578e-09
0.0280247 -1.30376e-07 -2.06804e-09
0.0280247 -9.86452e-08 -4.7398e-11
0.0280248 -8.78948e-08 1.20738e-10
0.0280248 -9.26459e-08 -1.04e-08
0.0280248 -9.74347e-08 -2.00964e-08
0.018 -1.90293e-06 -1.66766e-06
0.018003 -0.0070227 -0.00187255
0.0208043 -0.0190853 -0.00492791
0.0207719 -0.0251389 -0.00635531
0.0161195 -0.0271498 -0.00764356
-1.58426e-06 -0.014083 -0.00434459
9.55007e-05 2.55274e-05 9.15874e-07
-3.24875e-05 3.38082e-05 0.000655615
0.00654736 0.00402899 0.00144707
0.0133323 0.00909345 0.00142228
0.0167142 0.00980068 0.00102126
0.0185104 0.00876725 0.000499055
0.0202307 0.00722314 2.56526e-05
0.0219351 0.00568658 -0.000245054
0.0234536 0.00444601 -0.000329306
0.0247215 0.0034595 -0.000301488
0.0257518 0.00264363 -0.000225004
0.0265851 0.00195485 -0.000139632
0.0272609 0.00138364 -6.55347e-05
0.0278083 0.000930787 -1.01994e-05
0.0282477 0.000590934 2.56717e-05
0.0285953 0.000349125 4.45592e-05
0.0288657 0.000185246 5.03855e-05
0.0290727 7.94226e-05 4.75472e-05
0.0292289 1.4974e-05 4.01098e-05
0.029345 -2.10041e-05 3.12026e-05
0.02943 -3.81397e-05 2.27928e-05
0.0294912 -4.34661e-05 1.58209e-05
0.0295346 -4.19761e-05 1.0519e-05
0.0295648 -3.70586e-05 6.73328e-06
0.0295854 -3.08727e-05 4.15984e-06
0.0295993 -2.46796e-05 2.48047e-06
0.0296085 -1.91257e-05 1.42343e-06
0.0296144 -1.44673e-05 7.80534e-07
0.0296183 -1.07344e-05 4.02996e-07
0.0296208 -7.84128e-06 1.89752e-07
0.0296223 -5.65518e-06 7.48768e-08
0.0296233 -4.03588e-06 1.68645e-08
0.0296239 -2.85532e-06 -9.56202e-09
0.0296243 -2.00558e-06 -1.92945e-08
0.0296245 -1.40034e-06 -2.0801e-08
0.0296246 -9.72967e-07 -1.86953e-08
0.0296247 -6.734e-07 -1.53478e-08
0.0296248 -4.64842e-07 -1.19007e-08
0.0296248 -3.20797e-07 -8.79299e-09
0.0296248 -2.22687e-07 -6.16568e-09
0.0296249 -1.57965e-07 -3.90024e-09
0.0296249 -1.17276e-07 -2.30462e-09
0.0296249 -9.49371e-08 -5.86955e-09
0.0296248 -7.4947e-08 -1.82094e-08
0.0296248 -6.18701e-08 -2.64786e-08
0.0196 -2.77099e-06 -2.51432e-06
0.019601 -0.00594029 -0.0027435
0.0190506 -0.01326 -0.00648947
0.0159193 -0.0163202 -0.00670396
0.010841 -0.015314 -0.00669894
0.00169287 -0.00631628 -0.00504914
7.10462e-05 -6.52228e-05 -0.00130577
3.27353e-05 -3.27353e-05 -4.17112e-08
-3.18922e-05 3.30828e-05 0.000265237
0.00384883 0.00266866 0.000569285
0.00875618 0.00618039 0.000503843
0.0116397 0.00635451 0.000156854
0.0148756 0.00491314 -0.000227113
0.0180189 0.00360625 -0.00040134
0.0207092 0.00269696 -0.000406996
0.0228853 0.0020254 -0.000330552
0.0246113 0.00146763 -0.000232075
0.0259742 0.000983624 -0.000142554
0.0270461 0.000580385 -7.25956e-05
0.0278797 0.000272369 -2.25307e-05
0.0285155 6.07882e-05 1.03875e-05
0.0289886 -6.80257e-05 2.90931e-05
0.0293317 -0.000134903 3.65506e-05
0.0295743 -0.000160186 3.60518e-05
0.029742 -0.000159986 3.09502e-05
0.0298554 -0.000145701 2.40728e-05
0.0299304 -0.000124917 1.7327e-05
0.0299788 -0.000102447 1.16889e-05
0.0300093 -8.11429e-05 7.44476e-06
0.030028 -6.24791e-05 4.48837e-06
0.030039 -4.70033e-05 2.55427e-06
0.0300453 -3.46885e-05 1.35699e-06
0.0300487 -2.51976e-05 6.54415e-07
0.0300504 -1.8066e-05 2.65353e-07
0.0300512 -1.28149e-05 6.48916e-08
0.0300514 -9.01099e-06 -2.78897e-08
0.0300514 -6.29123e-06 -6.27264e-08
0.0300513 -4.36704e-06 -6.87066e-08
0.0300512 -3.0172e-06 -6.19776e-08
0.0300511 -2.07671e-06 -5.09638e-08
0.030051 -1.42504e-06 -3.97002e-08
0.0300509 -9.75549e-07 -2.98482e-08
0.0300508 -6.66747e-07 -2.18579e-08
0.0300507 -4.5545e-07 -1.56614e-08
0.0300507 -3.11636e-07 -1.1e-08
0.0300507 -2.1435e-07 -7.65491e-09
0.0300507 -1.48792e-07 -5.57282e-09
0.0300506 -1.02609e-07 -4.65813e-09
0.0300506 -6.61999e-08 -1.0141e-08
0.0300506 -2.21767e-08 -2.0348e-08
0.0300505 5.24518e-09 -2.48842e-08
0.0196 -1.33643e-06 -3.51526e-06
0.0195999 -0.00370549 -0.00312883
0.0187462 -0.00814809 -0.0065312
0.0174878 -0.00820231 -0.00606084
0.0131424 -0.00438648 -0.00554611
0.00903965 0.0024946 -0.00534221
0.00613129 0.0031227 -0.00313317
7.12244e-05 -5.92211e-05 -0.00068228
2.73289e-05 -2.73289e-05 -1.25187e-07
-3.13592e-05 3.24251e-05 9.82874e-05
0.00261912 0.00179757 0.000375352
0.00680699 0.00270971 0.000279246
0.0120079 0.00117342 -0.000164632
0.0166029 0.000297557 -0.00037776
0.0201835 1.71203e-05 -0.000397594
0.0228658 -7.77471e-05 -0.000325408
0.024865 -0.000175181 -0.000231627
0.0263561 -0.000300459 -0.00015024
0.0274585 -0.000417142 -8.98056e-05
0.0282549 -0.000490028 -4.76047e-05
0.0288092 -0.000507777 -1.91127e-05
0.0291772 -0.000479652 -1.19177e-06
0.0294083 -0.000423358 8.34352e-06
0.0295443 -0.000355405 1.1674e-05
0.0296179 -0.000287208 1.11223e-05
0.0296531 -0.000225169 8.74821e-06
0.029666 -0.000172132 5.99318e-06
0.029667 -0.000128772 3.62527e-06
0.0296624 -9.45492e-05 1.90415e-06
0.0296559 -6.8317e-05 8.01399e-07
0.0296494 -4.8699e-05 1.73948e-07
0.0296435 -3.43277e-05 -1.35164e-07
0.0296387 -2.39785e-05 -2.53644e-07
0.029635 -1.66287e-05 -2.70324e-07
0.0296322 -1.14665e-05 -2.40421e-07
0.0296301 -7.87222e-06 -1.94949e-07
0.0296285 -5.38636e-06 -1.49418e-07
0.0296274 -3.67587e-06 -1.10314e-07
0.0296267 -2.50348e-06 -7.93564e-08
0.0296261 -1.70228e-06 -5.60469e-08
0.0296257 -1.15604e-06 -3.90678e-08
0.0296255 -7.84356e-07 -2.69682e-08
0.0296253 -5.31889e-07 -1.84602e-08
0.0296251 -3.60635e-07 -1.25565e-08
0.0296251 -2.44359e-07 -8.58134e-09
0.029625 -1.64493e-07 -6.08814e-09
0.0296249 -1.07403e-07 -4.96889e-09
0.0296249 -6.17025e-08 -4.6357e-09
0.0296249 -1.70117e-08 -9.23026e-09
0.0296248 3.85802e-08 -1.51637e-08
0.0296248 7.0881e-08 -1.63702e-08
0.018 -8.49048e-07 -3.51124e-06
0.0180009 -0.00201985 -0.00305222
0.0183093 -0.0039148 -0.00616969
0.0183552 -0.00273671 -0.00529249
0.0173275 0.000544169 -0.00418939
0.0170375 0.00700449 -0.00396591
0.0177686 0.0125429 -0.00302294
0.0109052 0.00692347 -0.00151864
7.26583e-05 -4.57838e-05 -0.000443506
-2.45288e-05 -5.33781e-05 5.4788e-07
7.78382e-06 -0.000777878 0.000759958
0.00817882 -0.00305562 0.00110713
0.0153644 -0.00463741 0.000453714
0.0202439 -0.00419701 0.00010712
0.0233573 -0.00317964 -3.67443e-05
0.0253541 -0.00231777 -8.44061e-05
0.0266606 -0.00175447 -9.19904e-05
0.0275138 -0.00141077 -8.58332e-05
0.028047 -0.00117851 -7.54437e-05
0.0283467 -0.000986924 -6.29593e-05
0.0284807 -0.000808524 -4.921e-05
0.0285056 -0.000642148 -3.57503e-05
0.0284676 -0.000494888 -2.4281e-05
0.0284003 -0.000371931 -1.57071e-05
0.0283257 -0.000274037 -9.9521e-06
0.0282562 -0.000198768 -6.36657e-06
0.0281973 -0.000142335 -4.20288e-06
0.0281504 -0.000100827 -2.87685e-06
0.0281146 -7.07698e-05 -2.02046e-06
0.0280881 -4.92921e-05 -1.43243e-06
0.0280689 -3.41189e-05 -1.011e-06
0.0280553 -2.35008e-05 -7.04199e-07
0.0280458 -1.61267e-05 -4.82038e-07
0.0280392 -1.10353e-05 -3.23888e-07
0.0280346 -7.53533e-06 -2.13728e-07
0.0280315 -5.13683e-06 -1.38705e-07
0.0280294 -3.49689e-06 -8.86892e-08
0.0280279 -2.3775e-06 -5.59842e-08
0.0280269 -1.61448e-06 -3.49587e-08
0.0280262 -1.09501e-06 -2.16357e-08
0.0280258 -7.41793e-07 -1.32937e-08
0.0280255 -5.01891e-07 -8.11739e-09
0.0280252 -3.39012e-07 -4.93051e-09
0.0280251 -2.28098e-07 -3.01821e-09
0.028025 -1.51586e-07 -1.97743e-09
0.0280249 -9.68018e-08 -1.53049e-09
0.0280249 -5.41565e-08 -1.60302e-09
0.0280248 -1.58789e-08 -1.57817e-09
0.0280248 2.62155e-08 -3.55798e-09
0.0280248 7.60743e-08 -5.79623e-09
0.0280248 1.02783e-07 -5.8499e-09
0.0148 -4.75324e-07 -3.11072e-06
0.0148015 -0.00104357 -0.00283356
0.0162274 -0.00167228 -0.00543458
0.0177792 -7.93394e-05 -0.0042941
0.0190783 0.00310984 -0.00305767
0.0207896 0.00730176 -0.00283108
0.0245938 0.0129675 -0.00240901
0.027885 0.019496 -0.00153031
0.0229395 0.0112703 -0.00035782
0.0234024 6.09299e-12 0.000618336
0.0265577 -0.00675312 0.00156319
0.0299149 -0.0131978 0.00212692
0.0306064 -0.0111075 0.00165117
0.0299211 -0.00771421 0.00113255
0.0288963 -0.00500638 0.000658879
0.0279653 -0.00324167 0.000300841
0.0272195 -0.00217438 7.73961e-05
0.0266275 -0.00152441 -3.78578e-05
0.0261422 -0.00109987 -8.31342e-05
0.0257339 -0.000797262 -8.92378e-05
0.0253895 -0.000570571 -7.66334e-05
0.0251041 -0.000400926 -5.78746e-05
0.0248741 -0.000277651 -3.98699e-05
0.0246941 -0.000190995 -2.55689e-05
0.0245571 -0.000131465 -1.54761e-05
0.0244555 -9.09323e-05 -8.92532e-06
0.0243817 -6.32634e-05 -4.92945e-06
0.024329 -4.42155e-05 -2.60493e-06
0.0242919 -3.09802e-05 -1.30347e-06
0.0242661 -2.1718e-05 -5.99783e-07
0.0242483 -1.52097e-05 -2.33701e-07
0.0242361 -1.063e-05 -5.3057e-08
0.0242278 -7.40922e-06 2.85313e-08
0.0242222 -5.14825e-06 5.90388e-08
0.0242183 -3.56532e-06 6.45799e-08
0.0242157 -2.46059e-06 5.90322e-08
0.0242139 -1.69226e-06 4.95186e-08
0.0242127 -1.15981e-06 3.94949e-08
0.0242119 -7.92176e-07 3.04717e-08
0.0242113 -5.39265e-07 2.2964e-08
0.0242109 -3.65852e-07 1.70048e-08
0.0242107 -2.47203e-07 1.24229e-08
0.0242105 -1.65917e-07 8.97885e-09
0.0242104 -1.0966e-07 6.42491e-09
0.0242103 -6.95563e-08 4.54821e-09
0.0242103 -3.90595e-08 3.2244e-09
0.0242102 -1.30725e-08 2.38765e-09
0.0242102 1.21545e-08 2.28495e-09
0.0242102 4.01429e-08 2.27242e-09
0.0242102 6.9841e-08 1.07175e-09
0.0242102 8.43437e-08 8.51227e-11
0.01 -9.10959e-07 -2.8193e-06
0.0100008 -0.000639244 -0.00230777
0.0113163 -0.000726705 -0.00414835
0.0131629 0.00052903 -0.00290492
0.0155668 0.00249161 -0.00179331
0.0194282 0.00553716 -0.00179616
0.0253246 0.00835637 -0.00235332
0.0344462 0.0101195 -0.00209315
0.0460517 0.0048107 -0.000517582
0.0458105 -0.0040376 0.000975173