# vtk DataFile Version 2.0
Tobias Weinzierl: CPU, Manycore and Cluster Computing
ASCII

DATASET STRUCTURED_POINTS
DIMENSIONS  51 11 6

ORIGIN 0 0 0 

SPACING 0.1 0.1 0.1 

POINT_DATA 3366

VECTORS velocity float
0 0 0
1.43902e-12 0 0
2.88881e-09 0 0
4.49771e-09 0 0
-7.74778e-09 0 0
4.58018e-09 0 0
5.89167e-09 0 0
4.49899e-09 0 0
3.57946e-09 0 0
1.88894e-09 0 0
4.59216e-10 0 0
-1.19457e-11 0 0
-1.0101e-09 0 0
-3.92195e-09 0 0
-7.85895e-09 0 0
-1.08529e-08 0 0
-1.21358e-08 0 0
-1.24083e-08 0 0
-1.26664e-08 0 0
-1.33816e-08 0 0
-1.44946e-08 0 0
-1.57363e-08 0 0
-1.68715e-08 0 0
-1.77794e-08 0 0
-1.84375e-08 0 0
-1.88776e-08 0 0
-1.91509e-08 0 0
-1.93073e-08 0 0
-1.93875e-08 0 0
-1.94211e-08 0 0
-1.94284e-08 0 0
-1.94222e-08 0 0
-1.94103e-08 0 0
-1.93971e-08 0 0
-1.93846e-08 0 0
-1.9374e-08 0 0
-1.93653e-08 0 0
-1.93585e-08 0 0
-1.93534e-08 0 0
-1.93495e-08 0 0
-1.93467e-08 0 0
-1.93446e-08 0 0
-1.93432e-08 0 0
-1.93421e-08 0 0
-1.93414e-08 0 0
-1.93408e-08 0 0
-1.93405e-08 0 0
-1.93403e-08 0 0
-1.93404e-08 0 0
-1.93411e-08 0 0
0.00197355 0 0
0 3.79897e-07 0
9.58793e-13 -2.71977e-09 0
4.4812e-09 -6.5311e-09 0
9.71709e-09 -2.00924e-09 0
-5.02377e-09 -1.00764e-08 0
1.76098e-08 -1.33415e-08 0
1.86778e-08 5.77825e-10 0
1.39098e-08 4.29705e-09 0
1.18904e-08 4.93296e-09 0
9.3044e-09 4.49684e-09 0
6.0976e-09 2.53518e-09 0
3.50634e-09 2.08641e-09 0
-1.13084e-10 4.54517e-09 0
-6.38564e-09 7.07337e-09 0
-1.34796e-08 6.79584e-09 0
-1.84224e-08 4.24429e-09 0
-2.07695e-08 1.75583e-09 0
-2.23259e-08 6.5748e-10 0
-2.47649e-08 7.25045e-10 0
-2.8452e-08 1.17515e-09 0
-3.28034e-08 1.4728e-09 0
-3.70347e-08 1.47805e-09 0
-4.06076e-08 1.27082e-09 0
-4.33194e-08 9.76768e-10 0
-4.52087e-08 6.87326e-10 0
-4.64302e-08 4.47335e-10 0
-4.71635e-08 2.68589e-10 0
-4.7567e-08 1.45707e-10 0
-4.77623e-08 6.69897e-11 0
-4.78348e-08 2.01683e-11 0
-4.78405e-08 -5.17209e-12 0
-4.78141e-08 -1.69474e-11 0
-4.77756e-08 -2.07393e-11 0
-4.7736e-08 -2.02443e-11 0
-4.77003e-08 -1.77647e-11 0
-4.76704e-08 -1.46375e-11 0
-4.76466e-08 -1.15707e-11 0
-4.76282e-08 -8.8859e-12 0
-4.76143e-08 -6.68395e-12 0
-4.76041e-08 -4.95083e-12 0
-4.75966e-08 -3.62169e-12 0
-4.75912e-08 -2.61684e-12 0
-4.75874e-08 -1.86093e-12 0
-4.75846e-08 -1.28923e-12 0
-4.75828e-08 -8.45866e-13 0
-4.75815e-08 -4.86417e-13 0
-4.75807e-08 -1.62089e-13 0
-4.75806e-08 2.10239e-13 0
-4.75814e-08 9.75925e-13 0
-4.75839e-08 3.26325e-12 0
0.00565668 -3.35101e-08 0
0 -2.12829e-08 0
3.09239e-13 -2.47959e-09 0
4.97439e-09 -1.00319e-08 0
1.66348e-08 -1.60277e-08 0
1.69994e-08 -3.1646e-08 0
3.60994e-08 -2.673e-08 0
3.07376e-08 -1.97943e-09 0
2.62697e-08 6.29586e-10 0
1.87978e-08 -5.31096e-09 0
9.8589e-09 -1.05171e-08 0
1.33107e-09 -1.09495e-08 0
-2.60857e-09 -5.82721e-09 0
-4.87642e-09 1.30388e-09 0
-9.99016e-09 6.34766e-09 0
-1.63194e-08 8.82708e-09 0
-2.05104e-08 1.03356e-08 0
-2.20681e-08 1.15317e-08 0
-2.28272e-08 1.208e-08 0
-2.45369e-08 1.17128e-08 0
-2.7685e-08 1.0519e-08 0
-3.17341e-08 8.78745e-09 0
-3.58326e-08 6.85663e-09 0
-3.93353e-08 5.01647e-09 0
-4.19649e-08 3.45125e-09 0
-4.37364e-08 2.23304e-09 0
-4.48133e-08 1.35142e-09 0
-4.5395e-08 7.52501e-10 0
-4.56572e-08 3.69367e-10 0
-4.57313e-08 1.39531e-10 0
-4.57062e-08 1.22349e-11 0
-4.5637e-08 -5.02821e-11 0
-4.55552e-08 -7.43473e-11 0
-4.5477e-08 -7.73073e-11 0
-4.54093e-08 -6.99771e-11 0
-4.53543e-08 -5.86978e-11 0
-4.53113e-08 -4.69061e-11 0
-4.52786e-08 -3.62518e-11 0
-4.52542e-08 -2.73522e-11 0
-4.52363e-08 -2.02733e-11 0
-4.52233e-08 -1.48221e-11 0
-4.5214e-08 -1.07127e-11 0
-4.52074e-08 -7.65177e-12 0
-4.52028e-08 -5.37897e-12 0
-4.51995e-08 -3.67933e-12 0
-4.51973e-08 -2.37067e-12 0
-4.5196e-08 -1.28379e-12 0
-4.51954e-08 -1.967e-13 0
-4.51956e-08 1.33579e-12 0
-4.51968e-08 3.78371e-12 0
-4.51994e-08 7.36949e-12 0
0.00807984 -7.44796e-08 0
0 -6.30153e-07 0
3.92537e-12 -4.68178e-09 0
7.06263e-09 -1.62296e-08 0
2.09128e-08 -3.01559e-08 0
1.85659e-08 -4.11039e-08 0
2.30696e-08 -2.25058e-08 0
1.79552e-08 -1.22714e-11 0
1.6859e-08 -2.60738e-09 0
2.52758e-09 -1.1934e-08 0
-1.07256e-08 -2.24008e-08 0
-1.66442e-08 -2.77342e-08 0
-1.777e-08 -2.78406e-08 0
-1.90201e-08 -2.06574e-08 0
-2.55254e-08 -7.17798e-09 0
-3.34714e-08 7.59092e-09 0
-3.79475e-08 1.8505e-08 0
-3.74041e-08 2.30672e-08 0
-3.33536e-08 2.23757e-08 0
-2.84558e-08 1.90671e-08 0
-2.4728e-08 1.51176e-08 0
-2.27911e-08 1.13954e-08 0
-2.22286e-08 8.16781e-09 0
-2.23258e-08 5.51738e-09 0
-2.25479e-08 3.46568e-09 0
-2.26484e-08 1.97887e-09 0
-2.25832e-08 9.7472e-10 0
-2.23985e-08 3.4669e-10 0
-2.21578e-08 -1.12978e-11 0
-2.19107e-08 -1.89476e-10 0
-2.16868e-08 -2.56708e-10 0
-2.14988e-08 -2.61333e-10 0
-2.13491e-08 -2.34893e-10 0
-2.12341e-08 -1.9651e-10 0
-2.11482e-08 -1.56817e-10 0
-2.10853e-08 -1.21028e-10 0
-2.10399e-08 -9.11318e-11 0
-2.10075e-08 -6.73586e-11 0
-2.09845e-08 -4.90903e-11 0
-2.09683e-08 -3.53919e-11 0
-2.09569e-08 -2.52969e-11 0
-2.09489e-08 -1.79398e-11 0
-2.09434e-08 -1.26046e-11 0
-2.09396e-08 -8.72335e-12 0
-2.0937e-08 -5.85208e-12 0
-2.09352e-08 -3.63269e-12 0
-2.09342e-08 -1.71695e-12 0
-2.09337e-08 2.65439e-13 0
-2.09336e-08 2.56744e-12 0
-2.09336e-08 5.14671e-12 0
-2.09342e-08 7.54966e-12 0
0.00905496 -7.74594e-08 0
0 -1.23007e-06 0
1.82252e-12 -8.86741e-09 0
2.90302e-09 -2.43174e-08 0
7.72446e-09 -3.17744e-08 0
2.46437e-09 -2.5618e-08 0
-3.18482e-12 -9.30038e-09 0
-1.16827e-10 -1.35535e-10 0
1.25662e-10 -1.34112e-10 0
-7.9592e-09 -1.03288e-08 0
-2.86635e-08 -3.09655e-08 0
-3.57046e-08 -4.5067e-08 0
-3.40809e-08 -4.57504e-08 0
-3.71927e-08 -3.19152e-08 0
-4.43467e-08 -8.82068e-09 0
-5.08413e-08 1.27485e-08 0
-5.36651e-08 2.55354e-08 0
-5.12692e-08 2.79325e-08 0
-4.38097e-08 2.34991e-08 0
-3.36411e-08 1.70069e-08 0
-2.38491e-08 1.12658e-08 0
-1.63194e-08 6.97341e-09 0
-1.13069e-08 3.91601e-09 0
-8.17932e-09 1.78433e-09 0
-6.19839e-09 3.69229e-10 0
-4.85544e-09 -4.82957e-10 0
-3.88001e-09 -9.14337e-10 0
-3.14595e-09 -1.05837e-09 0
-2.59203e-09 -1.02787e-09 0
-2.18048e-09 -9.07284e-10 0
-1.88131e-09 -7.52976e-10 0
-1.66851e-09 -5.98335e-10 0
-1.52003e-09 -4.60355e-10 0
-1.41802e-09 -3.4555e-10 0
-1.34875e-09 -2.54431e-10 0
-1.30207e-09 -1.84533e-10 0
-1.27076e-09 -1.3227e-10 0
-1.24976e-09 -9.39516e-11 0
-1.23564e-09 -6.62769e-11 0
-1.2261e-09 -4.65128e-11 0
-1.21962e-09 -3.25055e-11 0
-1.21519e-09 -2.26147e-11 0
-1.21215e-09 -1.56202e-11 0
-1.21008e-09 -1.06283e-11 0
-1.20866e-09 -6.97583e-12 0
-1.20767e-09 -4.15225e-12 0
-1.20689e-09 -1.79682e-12 0
-1.20609e-09 2.6171e-13 0
-1.20499e-09 1.99285e-12 0
-1.20356e-09 3.30979e-12 0
-1.20281e-09 4.30467e-12 0
0.00939422 -4.33419e-08 0
0 -1.11205e-06 0
-4.7832e-12 -9.76048e-09 0
-2.92765e-09 -2.12111e-08 0
-3.19287e-09 -2.46982e-08 0
-8.83129e-09 -2.49228e-08 0
-7.75485e-09 -1.1677e-08 0
-1.22497e-10 1.18657e-10 0
7.04924e-12 -7.04924e-12 0
1.1996e-10 -1.31382e-10 0
-1.54944e-08 -1.7276e-08 0
-4.33839e-08 -4.71093e-08 0
-4.58945e-08 -5.48485e-08 0
-4.81128e-08 -3.67637e-08 0
-4.9849e-08 -9.33102e-09 0
-5.0424e-08 1.49072e-08 0
-5.09208e-08 2.80992e-08 0
-4.98087e-08 2.85412e-08 0
-4.41906e-08 2.09208e-08 0
-3.40874e-08 1.16451e-08 0
-2.25773e-08 4.43848e-09 0
-1.2708e-08 -3.39637e-11 0
-5.68502e-09 -2.43993e-09 0
-1.22482e-09 -3.53065e-09 0
1.45956e-09 -3.81443e-09 0
3.0616e-09 -3.617e-09 0
4.03255e-09 -3.16379e-09 0
4.63131e-09 -2.61308e-09 0
5.00286e-09 -2.06687e-09 0
5.23167e-09 -1.5811e-09 0
5.36992e-09 -1.17831e-09 0
5.45119e-09 -8.60326e-10 0
5.49731e-09 -6.18128e-10 0
5.52236e-09 -4.38558e-10 0
5.5352e-09 -3.08129e-10 0
5.54128e-09 -2.1488e-10 0
5.5438e-09 -1.49023e-10 0
5.5446e-09 -1.02947e-10 0
5.54468e-09 -7.09354e-11 0
5.54453e-09 -4.88006e-11 0
5.54437e-09 -3.35301e-11 0
5.54428e-09 -2.29868e-11 0
5.54426e-09 -1.56679e-11 0
5.54431e-09 -1.05196e-11 0
5.54446e-09 -6.81869e-12 0
5.54479e-09 -4.10775e-12 0
5.5454e-09 -2.13818e-12 0
5.54639e-09 -7.84715e-13 0
5.5478e-09 2.13644e-14 0
5.54936e-09 2.59033e-13 0
5.55003e-09 1.5976e-13 0
0.00947193 7.92786e-09 0
0 -7.68306e-07 0
-2.14987e-12 -5.99671e-09 0
-3.12137e-09 -1.52584e-08 0
-2.87503e-09 -1.9851e-08 0
-1.33365e-08 -1.93541e-08 0
-1.95983e-08 -1.13259e-08 0
-8.54313e-09 -2.56075e-09 0
-1.19961e-10 1.17347e-10 0
2.64528e-12 -2.64528e-12 0
1.12165e-10 -1.27769e-10 0
-2.00162e-08 -2.77243e-08 0
-3.54816e-08 -5.20917e-08 0
-4.27296e-08 -3.49774e-08 0
-4.30996e-08 -7.26323e-09 0
-3.88538e-08 1.62356e-08 0
-3.5211e-08 2.8312e-08 0
-3.41972e-08 2.7196e-08 0
-3.22968e-08 1.75475e-08 0
-2.65652e-08 6.43929e-09 0
-1.82748e-08 -1.71652e-09 0
-1.04491e-08 -6.12605e-09 0
-4.89242e-09 -7.74848e-09 0
-1.7319e-09 -7.72081e-09 0
-2.9039e-10 -6.85798e-09 0
1.66035e-10 -5.66892e-09 0
1.50143e-10 -4.45249e-09 0
-4.84382e-11 -3.36559e-09 0
-2.8822e-10 -2.47095e-09 0
-5.0933e-10 -1.77445e-09 0
-6.92003e-10 -1.25328e-09 0
-8.34333e-10 -8.74338e-10 0
-9.41318e-10 -6.04493e-10 0
-1.01981e-09 -4.15226e-10 0
-1.07639e-09 -2.83921e-10 0
-1.11661e-09 -1.93546e-10 0
-1.14485e-09 -1.31695e-10 0
-1.16444e-09 -8.95351e-11 0
-1.17788e-09 -6.08711e-11 0
-1.18698e-09 -4.14054e-11 0
-1.19304e-09 -2.81775e-11 0
-1.19702e-09 -1.91598e-11 0
-1.19957e-09 -1.29757e-11 0
-1.20114e-09 -8.70794e-12 0
-1.20198e-09 -5.76232e-12 0
-1.20223e-09 -3.76274e-12 0
-1.20202e-09 -2.47547e-12 0
-1.20143e-09 -1.77003e-12 0
-1.20053e-09 -1.63645e-12 0
-1.19961e-09 -2.28892e-12 0
-1.19949e-09 -3.73053e-12 0
0.00939419 5.61156e-08 0
0 -5.38927e-07 0
2.1203e-12 -4.39783e-09 0
-1.35657e-09 -1.12099e-08 0
-3.297e-09 -1.48718e-08 0
-1.32716e-08 -1.33663e-08 0
-2.48977e-08 -5.8437e-09 0
-2.3697e-08 -3.21566e-10 0
-1.30875e-08 2.15638e-10 0
-1.25054e-10 1.09641e-10 0
1.10108e-10 1.05009e-10 0
2.22227e-12 -1.5302e-08 0
-2.19844e-08 -2.9455e-08 0
-4.02041e-08 -1.7269e-08 0
-4.54792e-08 3.31995e-09 0
-3.6626e-08 1.77521e-08 0
-2.30381e-08 2.26687e-08 0
-1.5601e-08 1.89105e-08 0
-1.50019e-08 1.0051e-08 0
-1.57851e-08 9.51902e-10 0
-1.50619e-08 -5.25197e-09 0
-1.36165e-08 -8.1049e-09 0
-1.28505e-08 -8.56613e-09 0
-1.3182e-08 -7.73382e-09 0
-1.42767e-08 -6.38295e-09 0
-1.56478e-08 -4.96389e-09 0
-1.69569e-08 -3.70059e-09 0
-1.80489e-08 -2.67579e-09 0
-1.88914e-08 -1.89302e-09 0
-1.95109e-08 -1.31904e-09 0
-1.99527e-08 -9.09701e-10 0
-2.0262e-08 -6.23177e-10 0
-2.04758e-08 -4.25053e-10 0
-2.06225e-08 -2.89121e-10 0
-2.07227e-08 -1.9632e-10 0
-2.07908e-08 -1.33169e-10 0
-2.0837e-08 -9.02896e-11 0
-2.08682e-08 -6.12212e-11 0
-2.08891e-08 -4.15359e-11 0
-2.0903e-08 -2.82082e-11 0
-2.09121e-08 -1.91773e-11 0
-2.09181e-08 -1.3048e-11 0
-2.09219e-08 -8.88347e-12 0
-2.09243e-08 -6.05979e-12 0
-2.09257e-08 -4.16643e-12 0
-2.09264e-08 -2.94508e-12 0
-2.09267e-08 -2.25618e-12 0
-2.09267e-08 -2.06612e-12 0
-2.09264e-08 -2.47984e-12 0
-2.09263e-08 -3.89926e-12 0
-2.09271e-08 -6.62272e-12 0
0.00905492 8.16457e-08 0
0 -4.57807e-07 0
2.21088e-12 -2.31597e-09 0
-3.5289e-10 -6.40461e-09 0
-4.81029e-09 -9.4127e-09 0
-1.73132e-08 -9.12787e-09 0
-3.13368e-08 -1.69324e-09 0
-3.36667e-08 4.39381e-09 0
-2.93647e-08 -5.60628e-09 0
-1.84113e-08 -7.88976e-09 0
-1.61654e-08 1.66054e-13 0
-1.81096e-08 -4.92558e-09 0
-3.64195e-08 -5.91058e-09 0
-5.37589e-08 4.95857e-09 0
-5.46989e-08 1.46975e-08 0
-3.73068e-08 1.56272e-08 0
-1.58142e-08 1.00015e-08 0
-6.38432e-09 2.80789e-09 0
-1.05189e-08 -2.70876e-09 0
-1.93815e-08 -5.38333e-09 0
-2.63811e-08 -5.74016e-09 0
-3.0571e-08 -4.9909e-09 0
-3.32954e-08 -4.0264e-09 0
-3.55661e-08 -3.18321e-09 0
-3.76598e-08 -2.49683e-09 0
-3.95178e-08 -1.93351e-09 0
-4.10534e-08 -1.47011e-09 0
-4.22459e-08 -1.09611e-09 0
-4.31304e-08 -8.02868e-10 0
-4.37661e-08 -5.79426e-10 0
-4.42134e-08 -4.13194e-10 0
-4.4524e-08 -2.91818e-10 0
-4.4738e-08 -2.04467e-10 0
-4.48845e-08 -1.42313e-10 0
-4.49846e-08 -9.84985e-11 0
-4.50527e-08 -6.78548e-11 0
-4.50988e-08 -4.65715e-11 0
-4.51299e-08 -3.18797e-11 0
-4.51507e-08 -2.17907e-11 0
-4.51646e-08 -1.48917e-11 0
-4.51736e-08 -1.01884e-11 0
-4.51795e-08 -6.98928e-12 0
-4.51832e-08 -4.81972e-12 0
-4.51856e-08 -3.36005e-12 0
-4.5187e-08 -2.40496e-12 0
-4.51879e-08 -1.83782e-12 0
-4.51884e-08 -1.61363e-12 0
-4.51887e-08 -1.76519e-12 0
-4.51891e-08 -2.41925e-12 0
-4.519e-08 -3.94082e-12 0
-4.51925e-08 -6.74673e-12 0
0.00807983 6.90706e-08 0
0 -4.72681e-07 0
4.70296e-12 -4.41989e-10 0
2.00372e-10 -1.75637e-09 0
-5.94185e-09 -3.22689e-09 0
-1.9725e-08 -3.48302e-09 0
-3.46978e-08 -2.2616e-09 0
-3.82566e-08 2.5337e-10 0
-3.43911e-08 -2.3287e-09 0
-3.95909e-08 -4.08357e-09 0
-3.715e-08 1.55334e-09 0
-3.47108e-08 6.76816e-09 0
-3.74508e-08 9.66416e-09 0
-3.85274e-08 9.64632e-09 0
-3.18284e-08 7.18327e-09 0
-1.71799e-08 3.27767e-09 0
-4.98895e-09 -1.60537e-09 0
-5.04812e-09 -5.54626e-09 0
-1.5387e-08 -6.52427e-09 0
-2.73637e-08 -4.85044e-09 0
-3.55592e-08 -2.45648e-09 0
-3.97466e-08 -7.63151e-10 0
-4.16929e-08 -1.67271e-11 0
-4.28012e-08 1.30616e-10 0
-4.36848e-08 4.67161e-11 0
-4.44917e-08 -6.51287e-11 0
-4.52112e-08 -1.3535e-10 0
-4.58152e-08 -1.59401e-10 0
-4.62952e-08 -1.52687e-10 0
-4.66612e-08 -1.30966e-10 0
-4.6932e-08 -1.04908e-10 0
-4.71281e-08 -8.02663e-11 0
-4.72677e-08 -5.94563e-11 0
-4.7366e-08 -4.30112e-11 0
-4.74345e-08 -3.0569e-11 0
-4.74818e-08 -2.14391e-11 0
-4.75142e-08 -1.48902e-11 0
-4.7536e-08 -1.02738e-11 0
-4.75506e-08 -7.0634e-12 0
-4.75602e-08 -4.85355e-12 0
-4.75664e-08 -3.34357e-12 0
-4.75703e-08 -2.31745e-12 0
-4.75728e-08 -1.62507e-12 0
-4.75743e-08 -1.16617e-12 0
-4.75752e-08 -8.79478e-13 0
-4.75757e-08 -7.35853e-13 0
-4.75761e-08 -7.32295e-13 0
-4.75766e-08 -8.99507e-13 0
-4.75773e-08 -1.27775e-12 0
-4.75788e-08 -1.92182e-12 0
-4.75822e-08 -3.11034e-12 0
0.00565671 2.65667e-08 0
0 0 0
3.29243e-12 0 0
1.68017e-10 0 0
-2.97345e-09 0 0
-9.35209e-09 0 0
-1.64121e-08 0 0
-1.97458e-08 0 0
-1.81124e-08 0 0
-2.11874e-08 0 0
-2.09866e-08 0 0
-1.65989e-08 0 0
-1.09909e-08 0 0
-6.4097e-09 0 0
-3.01034e-09 0 0
-7.90321e-13 0 0
7.35895e-10 0 0
-2.5768e-09 0 0
-8.39805e-09 0 0
-1.36659e-08 0 0
-1.68068e-08 0 0
-1.80974e-08 0 0
-1.84282e-08 0 0
-1.84574e-08 0 0
-1.84763e-08 0 0
-1.85539e-08 0 0
-1.86748e-08 0 0
-1.88085e-08 0 0
-1.89333e-08 0 0
-1.90387e-08 0 0
-1.91223e-08 0 0
-1.91858e-08 0 0
-1.92326e-08 0 0
-1.92662e-08 0 0
-1.92901e-08 0 0
-1.93067e-08 0 0
-1.9318e-08 0 0
-1.93257e-08 0 0
-1.93308e-08 0 0
-1.93341e-08 0 0
-1.93361e-08 0 0
-1.93373e-08 0 0
-1.93381e-08 0 0
-1.93385e-08 0 0
-1.93387e-08 0 0
-1.93389e-08 0 0
-1.9339e-08 0 0
-1.93392e-08 0 0
-1.93396e-08 0 0
-1.93404e-08 0 0
-1.9342e-08 0 0
0.00197357 0 0
0 0 5.27542e-07
8.73697e-13 0 -1.67331e-10
3.74478e-09 0 2.03629e-09
1.1532e-08 0 1.2647e-08
-2.44584e-08 0 9.99491e-09
6.54682e-09 0 -2.9728e-10
1.22351e-08 0 -4.96216e-10
1.14399e-08 0 -1.98477e-09
1.3199e-08 0 -2.32316e-09
1.52773e-08 0 -1.37709e-09
1.83491e-08 0 -6.34849e-10
2.26354e-08 0 -6.17581e-10
2.43349e-08 0 -6.35495e-10
1.94268e-08 0 -2.24669e-10
8.86676e-09 0 1.3513e-10
-2.5488e-09 0 3.27202e-11
-1.14791e-08 0 -2.00223e-10
-1.79862e-08 0 -1.26691e-10
-2.35631e-08 0 2.48552e-10
-2.91029e-08 0 6.53479e-10
-3.45482e-08 0 8.82376e-10
-3.94436e-08 0 8.99308e-10
-4.34298e-08 0 7.72748e-10
-4.64026e-08 0 5.89688e-10
-4.8459e-08 0 4.11423e-10
-4.97884e-08 0 2.6684e-10
-5.0592e-08 0 1.62104e-10
-5.10414e-08 0 9.21057e-11
-5.12662e-08 0 4.82486e-11
-5.13573e-08 0 2.23385e-11
-5.13744e-08 0 7.95664e-12
-5.13545e-08 0 5.86519e-13
-5.13196e-08 0 -2.73733e-12
-5.12816e-08 0 -3.86135e-12
-5.12465e-08 0 -3.88221e-12
-5.12167e-08 0 -3.42017e-12
-5.11927e-08 0 -2.80601e-12
-5.1174e-08 0 -2.20189e-12
-5.11598e-08 0 -1.67641e-12
-5.11492e-08 0 -1.24918e-12
-5.11415e-08 0 -9.15945e-13
-5.11359e-08 0 -6.62214e-13
-5.11319e-08 0 -4.71905e-13
-5.11291e-08 0 -3.3012e-13
-5.11271e-08 0 -2.21051e-13
-5.11258e-08 0 -1.35169e-13
-5.11249e-08 0 -6.98398e-14
-5.11247e-08 0 -5.14914e-14
-5.11253e-08 0 -4.28697e-16
-5.11276e-08 0 9.99918e-13
0.00560274 0 -5.22102e-09
0.0036 -3.04662e-07 -6.25955e-08
0.0035998 -0.00138264 -2.10841e-05
0.00671792 -0.00390607 0.000106614
0.0136039 -0.00592469 -0.000558259
0.0235446 -0.0144153 -0.00431711
0.046261 -0.0132593 -0.00487988
0.0497458 -0.00185922 -0.00164953
0.0494862 0.00269187 -0.000172435
0.0444941 0.00501706 0.000552383
0.0388731 0.00518205 0.000520831
0.0337374 0.00451622 0.000237388
0.0294133 0.00363068 -3.72295e-05
0.0259981 0.00273427 -0.000221984
0.0234304 0.00192627 -0.000307648
0.0215429 0.00128094 -0.000308112
0.0201534 0.000828169 -0.000249096
0.0191236 0.000542253 -0.000165696
0.0183624 0.000369407 -8.92952e-05
0.0178084 0.000260473 -3.5772e-05
0.0174155 0.000185138 -5.89222e-06
0.0171458 0.000129306 6.97397e-06
0.0169675 8.73908e-05 1.02265e-05
0.0168541 5.67354e-05 9.19576e-06
0.016785 3.5232e-05 6.88182e-06
0.0167448 2.08106e-05 4.63876e-06
0.0167229 1.15581e-05 2.90787e-06
0.0167118 5.88173e-06 1.71866e-06
0.016707 2.56578e-06 9.60385e-07
0.0167056 7.42254e-07 5.03332e-07
0.0167058 -1.7723e-07 2.4111e-07
0.0167068 -5.74487e-07 9.81647e-08
0.0167079 -6.87561e-07 2.50439e-08
0.016709 -6.58941e-07 -8.94112e-09
0.01671 -5.70025e-07 -2.20444e-08
0.0167108 -4.64596e-07 -2.47137e-08
0.0167114 -3.64187e-07 -2.26906e-08
0.0167118 -2.77771e-07 -1.89779e-08
0.0167122 -2.07654e-07 -1.50395e-08
0.0167124 -1.52921e-07 -1.1508e-08
0.0167126 -1.1135e-07 -8.58789e-09
0.0167127 -8.04221e-08 -6.27888e-09
0.0167128 -5.78028e-08 -4.50588e-09
0.0167129 -4.15395e-08 -3.18527e-09
0.0167129 -3.00844e-08 -2.22731e-09
0.016713 -2.23001e-08 -1.563e-09
0.016713 -1.73758e-08 -1.06469e-09
0.016713 -1.47841e-08 -3.49029e-10
0.016713 -1.45376e-08 1.89632e-09
0.0167131 -2.10734e-08 5.8114e-09
0.0167131 -6.30365e-08 -6.41148e-09
0.0167133 -9.89819e-08 -2.07883e-08
0.01 -1.37732e-07 -1.43458e-06
0.0100007 -0.00299006 -0.000596913
0.0147922 -0.00993701 -0.000783086
0.0241548 -0.0177046 -0.00127016
0.0384627 -0.0324074 -0.00336972
0.0590615 -0.0246767 -0.000815674
0.0563207 -0.00266929 0.00316068
0.0557643 0.0051524 0.00336743
0.0499847 0.0101642 0.00296165
0.0444973 0.0103488 0.00203294
0.0399832 0.00929434 0.00106457
0.0362655 0.00785795 0.00032026
0.0332911 0.00631745 -0.000189749
0.0310094 0.00487417 -0.000474979
0.0292622 0.00365525 -0.000546386
0.0279153 0.0026885 -0.000463744
0.026889 0.00194436 -0.000315707
0.0261291 0.0013817 -0.000174645
0.0255863 0.000962815 -7.43363e-05
0.0252129 0.000655859 -1.71297e-05
0.0249662 0.00043507 8.72675e-06
0.0248106 0.000279955 1.65132e-05
0.0247175 0.000174044 1.59095e-05
0.0246655 0.000104009 1.24715e-05
0.0246391 5.92556e-05 8.79717e-06
0.0246277 3.16797e-05 5.81385e-06
0.0246245 1.53578e-05 3.67307e-06
0.0246254 6.15007e-06 2.24237e-06
0.024628 1.27841e-06 1.33001e-06
0.0246311 -1.05397e-06 7.67836e-07
0.0246339 -1.96917e-06 4.30992e-07
0.0246364 -2.14347e-06 2.34219e-07
0.0246383 -1.96853e-06 1.2215e-07
0.0246399 -1.66039e-06 6.00753e-08
0.024641 -1.33046e-06 2.68235e-08
0.0246419 -1.03029e-06 9.7825e-09
0.0246425 -7.78791e-07 1.60564e-09
0.0246429 -5.78355e-07 -1.88967e-09
0.0246432 -4.2388e-07 -3.02533e-09
0.0246435 -3.07663e-07 -3.05027e-09
0.0246436 -2.21834e-07 -2.60556e-09
0.0246437 -1.59434e-07 -2.01288e-09
0.0246438 -1.148e-07 -1.45172e-09
0.0246439 -8.3539e-08 -9.83709e-10
0.0246439 -6.24419e-08 -6.0544e-10
0.024644 -4.94869e-08 -1.25721e-10
0.024644 -4.41886e-08 1.24495e-09
0.024644 -5.21113e-08 4.44988e-09
0.0246441 -8.47962e-08 6.93739e-09
0.0246442 -1.63485e-07 -1.96381e-08
0.0246443 -2.18104e-07 -4.65585e-08
0.0148 -9.46994e-07 -1.72023e-06
0.0148023 -0.00528944 -0.00112797
0.0203576 -0.0163854 -0.00243608
0.0274614 -0.0287051 -0.00394391
0.0320704 -0.0459914 -0.0057565
0.030562 -0.0284016 -0.0013966
0.0268113 -1.2099e-05 0.00328987
0.026259 0.00709581 0.00350537
0.0298148 0.0145269 0.00339082
0.0301836 0.01402 0.0023977
0.0293807 0.0122715 0.00141109
0.0285454 0.0104309 0.000562685
0.0278939 0.00850335 -4.04383e-05
0.0275564 0.00664138 -0.000379119
0.0274258 0.00501764 -0.000466033
0.0274081 0.00367476 -0.000388075
0.0274505 0.00261064 -0.000248161
0.0275193 0.00180499 -0.000117725
0.0275924 0.00121862 -2.7172e-05
0.0276593 0.00080329 2.16498e-05
0.0277177 0.000514747 3.97693e-05
0.0277683 0.000318285 4.02771e-05
0.0278122 0.000188031 3.32137e-05
0.0278496 0.000104573 2.45011e-05
0.0278806 5.32632e-05 1.68373e-05
0.0279055 2.32399e-05 1.10163e-05
0.0279247 6.73811e-06 6.95028e-06
0.0279392 -1.55381e-06 4.26013e-06
0.0279499 -5.10906e-06 2.54743e-06
0.0279575 -6.09978e-06 1.48886e-06
0.0279629 -5.82381e-06 8.50586e-07
0.0279667 -5.01794e-06 4.74191e-07
0.0279694 -4.0744e-06 2.5695e-07
0.0279712 -3.18302e-06 1.34324e-07
0.0279724 -2.4207e-06 6.67923e-08
0.0279733 -1.80534e-06 3.06848e-08
0.0279738 -1.32693e-06 1.21114e-08
0.0279743 -9.64622e-07 3.08183e-09
0.0279745 -6.95484e-07 -9.07428e-10
0.0279747 -4.98504e-07 -2.33574e-09
0.0279748 -3.56095e-07 -2.52641e-09
0.0279749 -2.54317e-07 -2.16881e-09
0.027975 -1.82554e-07 -1.64142e-09
0.027975 -1.33053e-07 -1.08923e-09
0.0279751 -1.00469e-07 -4.32518e-10
0.0279751 -8.2299e-08 5.56464e-10
0.0279751 -7.94075e-08 2.57538e-09
0.0279752 -9.63463e-08 4.60827e-09
0.0279752 -1.39025e-07 -1.53598e-09
0.0279752 -1.99576e-07 -4.07136e-08
0.0279752 -2.31716e-07 -7.31264e-08
0.018 -1.91014e-06 -1.67551e-06
0.0180029 -0.00697216 -0.00188164
0.0207448 -0.0188983 -0.0049188
0.0206767 -0.0248246 -0.00632575
0.0160579 -0.0268771 -0.00760764
-1.57352e-06 -0.0139881 -0.00432004
9.60267e-05 2.61508e-05 9.02575e-07
-3.30514e-05 3.43951e-05 0.000646565
0.00662005 0.00415291 0.00141195
0.0135939 0.00946654 0.0013668
0.0170359 0.010359 0.000949067
0.0187797 0.00940054 0.00039789
0.0204487 0.00777394 -9.04271e-05
0.022139 0.00597089 -0.000340827
0.023682 0.00437997 -0.000378132
0.0250018 0.00307667 -0.000299258
0.026087 0.00206882 -0.000183831
0.0269469 0.00133859 -7.76189e-05
0.0276005 0.000838342 -1.20948e-06
0.0280782 0.000507108 4.12575e-05
0.0284174 0.000291569 5.59811e-05
0.0286544 0.00015388 5.3407e-05
0.0288184 6.89492e-05 4.31164e-05
0.0289311 1.9604e-05 3.14064e-05
0.0290077 -6.46895e-06 2.13205e-05
0.0290593 -1.81282e-05 1.37484e-05
0.0290935 -2.15018e-05 8.52041e-06
0.0291159 -2.05792e-05 5.11056e-06
0.0291304 -1.77812e-05 2.97777e-06
0.0291396 -1.44626e-05 1.6874e-06
0.0291455 -1.13046e-05 9.28667e-07
0.0291492 -8.59349e-06 4.94139e-07
0.0291515 -6.40161e-06 2.51779e-07
0.0291529 -4.69737e-06 1.20456e-07
0.0291538 -3.40769e-06 5.17311e-08
0.0291544 -2.45066e-06 1.74059e-08
0.0291547 -1.75072e-06 1.44384e-09
0.029155 -1.24447e-06 -5.06259e-09
0.0291551 -8.81476e-07 -6.93745e-09
0.0291552 -6.23085e-07 -6.71254e-09
0.0291553 -4.40381e-07 -5.6561e-09
0.0291553 -3.12187e-07 -4.37285e-09
0.0291553 -2.23276e-07 -3.14418e-09
0.0291553 -1.63054e-07 -2.02184e-09
0.0291554 -1.24813e-07 -8.88852e-10
0.0291554 -1.04924e-07 1.68672e-10
0.0291554 -1.01439e-07 1.03035e-09
0.0291554 -1.10717e-07 -7.32094e-11
0.0291554 -1.29122e-07 -1.51905e-08
0.0291554 -1.4026e-07 -5.83605e-08
0.0291553 -1.4011e-07 -8.7918e-08
0.0196 -2.75959e-06 -2.5322e-06
0.019601 -0.00586726 -0.00274494
0.0190634 -0.0130896 -0.00646758
0.0159722 -0.0160807 -0.00667181
0.0109466 -0.0150557 -0.00668207
0.00176181 -0.00620002 -0.00503146
7.1584e-05 -6.57384e-05 -0.00129613
3.2687e-05 -3.2687e-05 -3.96518e-08
-3.24415e-05 3.36614e-05 0.000250501
0.00399822 0.00286341 0.000531162
0.00919738 0.00673242 0.000459096
0.0121207 0.00706625 0.000111176
0.0153678 0.00549419 -0.000264241
0.0185226 0.00386635 -0.000411483
0.0212224 0.00256872 -0.000394382
0.0234064 0.00156811 -0.000310298
0.0251281 0.00083901 -0.000209991
0.0264504 0.000363248 -0.00011426
0.0274283 9.17259e-05 -3.62489e-05
0.0281203 -4.3937e-05 1.50255e-05
0.0285913 -0.000102288 3.90986e-05
0.0289025 -0.000120194 4.32091e-05
0.0291037 -0.000117407 3.68097e-05
0.0292315 -0.000104418 2.71873e-05
0.0293112 -8.73163e-05 1.82822e-05
0.0293601 -6.97851e-05 1.14884e-05
0.0293894 -5.38825e-05 6.84703e-06
0.0294066 -4.05166e-05 3.90089e-06
0.0294165 -2.9856e-05 2.12945e-06
0.0294221 -2.16659e-05 1.11013e-06
0.0294251 -1.5543e-05 5.46364e-07
0.0294267 -1.10559e-05 2.46796e-07
0.0294275 -7.81542e-06 9.48295e-08
0.0294278 -5.49991e-06 2.24066e-08
0.029428 -3.85807e-06 -8.79021e-09
0.029428 -2.70037e-06 -1.96308e-08
0.029428 -1.88734e-06 -2.11002e-08
0.0294279 -1.31807e-06 -1.87548e-08
0.0294279 -9.20433e-07 -1.52609e-08
0.0294279 -6.43343e-07 -1.17934e-08
0.0294278 -4.50831e-07 -8.77817e-09
0.0294278 -3.17745e-07 -6.30258e-09
0.0294278 -2.26708e-07 -4.35519e-09
0.0294278 -1.65897e-07 -2.88908e-09
0.0294278 -1.27158e-07 -1.93088e-09
0.0294278 -1.0397e-07 -1.79021e-09
0.0294278 -9.02424e-08 -2.80783e-09
0.0294277 -7.88067e-08 -5.98373e-09
0.0294277 -6.16606e-08 -2.40686e-08
0.0294276 -2.33791e-08 -6.41337e-08
0.0294275 3.95563e-09 -8.84757e-08
0.0196 -1.32412e-06 -3.52098e-06
0.0195999 -0.00366596 -0.00312255
0.0187912 -0.00802632 -0.00650506
0.0175479 -0.00801693 -0.00604902
0.0132508 -0.0041741 -0.00555082
0.00915542 0.00266874 -0.00531261
0.00616779 0.00318759 -0.00307936
7.17391e-05 -5.97377e-05 -0.000654733
2.72962e-05 -2.72962e-05 -1.25116e-07
-3.18936e-05 3.29894e-05 8.8918e-05
0.00282782 0.0021004 0.000349704
0.00722816 0.00334146 0.000261841
0.0125478 0.00170759 -0.000139286
0.0172034 0.000521318 -0.000308112
0.0207991 -0.000131594 -0.000317889
0.0234527 -0.000532814 -0.000274404
0.0253811 -0.000768854 -0.000220015
0.0267571 -0.000842845 -0.000158399
0.0277033 -0.000784573 -9.37943e-05
0.0283209 -0.000656253 -3.93275e-05
0.0287019 -0.000513667 -4.53101e-06
0.0289251 -0.000386605 1.11725e-05
0.0290493 -0.000284021 1.44156e-05
0.0291149 -0.000205066 1.1991e-05
0.0291472 -0.000145957 8.19831e-06
0.0291614 -0.000102629 4.93596e-06
0.0291663 -7.14518e-05 2.68005e-06
0.0291668 -4.93757e-05 1.3089e-06
0.0291655 -3.39476e-05 5.52675e-07
0.0291636 -2.32708e-05 1.7194e-07
0.0291618 -1.59315e-05 2.94896e-10
0.0291602 -1.09065e-05 -6.40008e-08
0.029159 -7.47249e-06 -7.79163e-08
0.029158 -5.12645e-06 -7.1079e-08
0.0291573 -3.52252e-06 -5.77623e-08
0.0291567 -2.42451e-06 -4.41876e-08
0.0291563 -1.67164e-06 -3.26264e-08
0.0291561 -1.15466e-06 -2.35641e-08
0.0291559 -7.9924e-07 -1.67744e-08
0.0291557 -5.54776e-07 -1.18153e-08
0.0291556 -3.86772e-07 -8.23392e-09
0.0291555 -2.71678e-07 -5.66978e-09
0.0291555 -1.93289e-07 -3.93186e-09
0.0291554 -1.40096e-07 -2.94213e-09
0.0291554 -1.03423e-07 -2.73436e-09
0.0291554 -7.6078e-08 -3.42692e-09
0.0291554 -5.15259e-08 -5.03657e-09
0.0291553 -2.24519e-08 -8.02422e-09
0.0291553 2.28518e-08 -2.31794e-08
0.0291552 9.89544e-08 -5.62913e-08
0.0291551 1.46465e-07 -7.62181e-08
0.018 -8.49441e-07 -3.50687e-06
0.0180009 -0.00199281 -0.00304479
0.0183268 -0.0038226 -0.00614835
0.0184003 -0.00257264 -0.00528656
0.0174061 0.000738967 -0.00421566
0.0171452 0.00715955 -0.00396771
0.0178801 0.0126132 -0.00296521
0.0109942 0.00693462 -0.00145852
7.32152e-05 -4.62601e-05 -0.000424625
-2.50638e-05 -5.37968e-05 5.45518e-07
7.7327e-06 -0.000623458 0.000743136
0.00840721 -0.00268113 0.00108807
0.0158366 -0.00429008 0.000481239
0.020888 -0.00409546 0.000194635
0.0240634 -0.00336677 7.94029e-05
0.0260017 -0.00271119 1.57638e-06
0.0271546 -0.00220256 -7.38458e-05
0.0278037 -0.00176172 -0.000122487
0.0281286 -0.00134988 -0.000126337
0.028254 -0.000984306 -9.8313e-05
0.0282688 -0.000689507 -6.27348e-05
0.0282326 -0.000470398 -3.47651e-05
0.0281804 -0.000315953 -1.76121e-05
0.0281296 -0.000210328 -8.61982e-06
0.0280872 -0.000139309 -4.33196e-06
0.0280545 -9.20529e-05 -2.35333e-06
0.0280305 -6.08219e-05 -1.40389e-06
0.0280134 -4.02623e-05 -8.98701e-07
0.0280015 -2.67438e-05 -5.95539e-07
0.0279932 -1.78435e-05 -3.97595e-07
0.0279875 -1.19641e-05 -2.63659e-07
0.0279837 -8.06218e-06 -1.72755e-07
0.027981 -5.45858e-06 -1.11788e-07
0.0279792 -3.71164e-06 -7.15615e-08
0.0279779 -2.53328e-06 -4.54364e-08
0.0279771 -1.73465e-06 -2.8695e-08
0.0279765 -1.19118e-06 -1.80764e-08
0.0279761 -8.20152e-07 -1.13883e-08
0.0279758 -5.66251e-07 -7.19265e-09
0.0279756 -3.9227e-07 -4.56491e-09
0.0279754 -2.72994e-07 -2.92286e-09
0.0279753 -1.91113e-07 -1.93341e-09
0.0279753 -1.34477e-07 -1.46267e-09
0.0279752 -9.42686e-08 -1.43584e-09
0.0279752 -6.3722e-08 -1.8163e-09
0.0279751 -3.70805e-08 -2.58957e-09
0.0279751 -8.61876e-09 -3.63823e-09
0.0279751 2.85524e-08 -5.287e-09
0.0279751 8.77747e-08 -1.40135e-08
0.027975 1.79531e-07 -3.82731e-08
0.027975 2.33818e-07 -5.48907e-08
0.0148 -4.7699e-07 -3.10673e-06
0.0148015 -0.00102271 -0.00282153
0.01624 -0.00160113 -0.00541424
0.0178331 4.91608e-05 -0.00429782
0.0192055 0.00327003 -0.00310016
0.0209882 0.00741697 -0.00287583
0.0248094 0.0129792 -0.00241019
0.0280967 0.0195353 -0.00148995
0.0230858 0.0113311 -0.000323384
0.0235246 2.52847e-11 0.00063016
0.0266714 -0.00667161 0.00155874
0.0302044 -0.0130434 0.00210953
0.0311697 -0.0110378 0.00165446
0.030654 -0.00780592 0.00118926
0.0296158 -0.00522817 0.000761845
0.0285305 -0.00349868 0.000387394
0.027576 -0.00236825 8.98498e-05
0.0267954 -0.00159637 -9.46812e-05
0.0261837 -0.00105112 -0.000160913
0.0257211 -0.000672812 -0.000147771
0.0253827 -0.000422809 -0.000105026
0.0251423 -0.000264743 -6.41134e-05
0.024976 -0.000167031 -3.54912e-05
0.0248634 -0.000106717 -1.84392e-05
0.0247883 -6.90821e-05 -9.19857e-06
0.0247389 -4.52495e-05 -4.46998e-06
0.0247065 -2.99413e-05 -2.13078e-06
0.0246854 -1.99848e-05 -9.95564e-07
0.0246716 -1.3438e-05 -4.50844e-07
0.0246625 -9.09206e-06 -1.9206e-07
0.0246565 -6.18293e-06 -7.10818e-08
0.0246524 -4.22179e-06 -1.63802e-08
0.0246498 -2.89195e-06 6.613e-09
0.0246479 -1.98596e-06 1.46745e-08
0.0246467 -1.36645e-06 1.59698e-08
0.0246459 -9.41665e-07 1.44577e-08
0.0246453 -6.49821e-07 1.20219e-08
0.0246449 -4.49052e-07 9.51801e-09
0.0246446 -3.10828e-07 7.29345e-09
0.0246444 -2.15586e-07 5.44999e-09
0.0246443 -1.49805e-07 3.97892e-09
0.0246442 -1.04007e-07 2.81827e-09
0.0246441 -7.13928e-08 1.87581e-09
0.0246441 -4.68764e-08 1.09969e-09
0.0246441 -2.63189e-08 4.50875e-10
0.024644 -5.89234e-09 -8.33677e-11
0.024644 1.86247e-08 -3.3126e-10
0.024644 5.20345e-08 -6.20232e-10
0.024644 1.02868e-07 -3.62835e-09
0.0246441 1.74853e-07 -2.08668e-08
0.0246442 2.15568e-07 -3.53758e-08
0.01 -9.10105e-07 -2.81139e-06
0.0100007 -0.000627586 -0.00229811
0.0113367 -0.000689678 -0.00414036
0.0132414 0.000590797 -0.00292952
0.0157426 0.00256621 -0.00185486
0.019712 0.00560539 -0.00186388