# vtk DataFile Version 2.0
Tobias Weinzierl: CPU, Manycore and Cluster Computing
ASCII

DATASET STRUCTURED_POINTS
DIMENSIONS  51 11 6

ORIGIN 0 0 0 

SPACING 0.1 0.1 0.1 

POINT_DATA 3366

VECTORS velocity float
0 0 0
1.27529e-12 0 0
4.47096e-10 0 0
1.19087e-09 0 0
-3.22393e-09 0 0
3.68287e-09 0 0
5.18969e-09 0 0
4.82359e-09 0 0
4.66717e-09 0 0
4.64793e-09 0 0
4.22352e-09 0 0
3.48099e-09 0 0
2.61661e-09 0 0
1.33368e-09 0 0
-6.15761e-10 0 0
-2.75249e-09 0 0
-4.34589e-09 0 0
-5.18867e-09 0 0
-5.63964e-09 0 0
-6.14803e-09 0 0
-6.91584e-09 0 0
-7.88957e-09 0 0
-8.90658e-09 0 0
-9.82108e-09 0 0
-1.05547e-08 0 0
-1.10921e-08 0 0
-1.14564e-08 0 0
-1.16858e-08 0 0
-1.1819e-08 0 0
-1.18881e-08 0 0
-1.19175e-08 0 0
-1.19238e-08 0 0
-1.19182e-08 0 0
-1.19074e-08 0 0
-1.18951e-08 0 0
-1.18835e-08 0 0
-1.18735e-08 0 0
-1.18653e-08 0 0
-1.18588e-08 0 0
-1.18538e-08 0 0
-1.185e-08 0 0
-1.18472e-08 0 0
-1.18451e-08 0 0
-1.18436e-08 0 0
-1.18424e-08 0 0
-1.18415e-08 0 0
-1.18409e-08 0 0
-1.18406e-08 0 0
-1.18405e-08 0 0
-1.18406e-08 0 0
0.00193011 0 0
0 3.79919e-07 0
2.07873e-12 -6.86977e-10 0
6.47454e-10 -2.2848e-09 0
3.15888e-09 -7.19363e-10 0
-1.0831e-09 -3.8429e-09 0
1.09639e-08 -5.15676e-09 0
1.30718e-08 2.11818e-10 0
1.25104e-08 6.20074e-10 0
1.30723e-08 -5.87148e-10 0
1.38992e-08 -1.31598e-09 0
1.3621e-08 -1.66389e-09 0
1.21759e-08 -1.47822e-09 0
9.69237e-09 -2.218e-11 0
6.04937e-09 2.28028e-09 0
1.55713e-09 3.81274e-09 0
-2.65752e-09 3.65835e-09 0
-5.67338e-09 2.43029e-09 0
-7.6633e-09 1.27211e-09 0
-9.51605e-09 7.70055e-10 0
-1.19343e-08 8.15148e-10 0
-1.50177e-08 1.03882e-09 0
-1.84162e-08 1.17326e-09 0
-2.16657e-08 1.13869e-09 0
-2.44257e-08 9.74888e-10 0
-2.65515e-08 7.55113e-10 0
-2.8058e-08 5.37936e-10 0
-2.90474e-08 3.54948e-10 0
-2.9649e-08 2.16057e-10 0
-2.99824e-08 1.18704e-10 0
-3.0143e-08 5.5108e-11 0
-3.02e-08 1.65161e-11 0
-3.01999e-08 -4.81616e-12 0
-3.01721e-08 -1.49721e-11 0
-3.0134e-08 -1.83722e-11 0
-3.00953e-08 -1.80326e-11 0
-3.00605e-08 -1.58912e-11 0
-3.00313e-08 -1.31126e-11 0
-3.00079e-08 -1.03397e-11 0
-2.99898e-08 -7.88221e-12 0
-2.99761e-08 -5.85162e-12 0
-2.99658e-08 -4.25021e-12 0
-2.99583e-08 -3.02736e-12 0
-2.99528e-08 -2.11325e-12 0
-2.99487e-08 -1.43791e-12 0
-2.99457e-08 -9.37343e-13 0
-2.99435e-08 -5.55298e-13 0
-2.99422e-08 -2.37863e-13 0
-2.99416e-08 9.12188e-14 0
-2.99418e-08 6.60395e-13 0
-2.99425e-08 2.1284e-12 0
0.00554843 -2.20266e-08 0
0 -1.98636e-08 0
2.40899e-12 -7.92094e-10 0
1.46838e-09 -4.45004e-09 0
7.0969e-09 -8.03485e-09 0
1.03818e-08 -1.45025e-08 0
1.92877e-08 -1.14176e-08 0
1.58262e-08 -9.20648e-10 0
1.54825e-08 -8.21939e-10 0
1.68542e-08 -4.41055e-09 0
1.82855e-08 -8.39004e-09 0
1.63151e-08 -1.15993e-08 0
1.26368e-08 -1.18563e-08 0
9.05467e-09 -7.88513e-09 0
4.94646e-09 -1.8346e-09 0
3.01764e-10 3.30205e-09 0
-3.89552e-09 6.51644e-09 0
-6.87001e-09 8.23794e-09 0
-8.82625e-09 8.96184e-09 0
-1.05644e-08 8.95166e-09 0
-1.27527e-08 8.38825e-09 0
-1.55625e-08 7.42815e-09 0
-1.87247e-08 6.21752e-09 0
-2.1796e-08 4.90892e-09 0
-2.44094e-08 3.65013e-09 0
-2.63892e-08 2.55314e-09 0
-2.77372e-08 1.6751e-09 0
-2.85601e-08 1.02237e-09 0
-2.89989e-08 5.68345e-10 0
-2.91846e-08 2.7217e-10 0
-2.92195e-08 9.18871e-11 0
-2.91748e-08 -8.70136e-12 0
-2.9096e-08 -5.77505e-11 0
-2.90093e-08 -7.55972e-11 0
-2.89284e-08 -7.60523e-11 0
-2.88591e-08 -6.79623e-11 0
-2.8803e-08 -5.66443e-11 0
-2.87592e-08 -4.50477e-11 0
-2.87259e-08 -3.46201e-11 0
-2.87011e-08 -2.59151e-11 0
-2.86829e-08 -1.89934e-11 0
-2.86696e-08 -1.36752e-11 0
-2.86601e-08 -9.68797e-12 0
-2.86533e-08 -6.74635e-12 0
-2.86484e-08 -4.592e-12 0
-2.86448e-08 -3.00353e-12 0
-2.86424e-08 -1.78456e-12 0
-2.86409e-08 -7.22305e-13 0
-2.86405e-08 5.23649e-13 0
-2.86408e-08 2.35052e-12 0
-2.86417e-08 5.06848e-12 0
0.00797666 -5.17163e-08 0
0 -6.2915e-07 0
4.10592e-12 -2.28824e-09 0
2.87129e-09 -8.14406e-09 0
9.8645e-09 -1.55379e-08 0
1.19159e-08 -2.1666e-08 0
1.20067e-08 -1.19881e-08 0
7.94256e-09 -8.70668e-12 0
7.79579e-09 -1.37933e-09 0
5.96875e-09 -7.22573e-09 0
4.21517e-09 -1.52974e-08 0
2.25507e-09 -2.09747e-08 0
-4.56019e-10 -2.27957e-08 0
-2.4827e-09 -1.94259e-08 0
-6.05604e-09 -1.15156e-08 0
-1.11957e-08 -1.38867e-09 0
-1.62241e-08 8.33734e-09 0
-1.94204e-08 1.50445e-08 0
-2.01002e-08 1.75519e-08 0
-1.8764e-08 1.6662e-08 0
-1.65928e-08 1.40459e-08 0
-1.46787e-08 1.10182e-08 0
-1.35248e-08 8.20967e-09 0
-1.30657e-08 5.8184e-09 0
-1.29837e-08 3.88196e-09 0
-1.29888e-08 2.39116e-09 0
-1.29268e-08 1.31004e-09 0
-1.27631e-08 5.78526e-10 0
-1.25255e-08 1.22485e-10 0
-1.2258e-08 -1.32846e-10 0
-1.19971e-08 -2.52746e-10 0
-1.17652e-08 -2.88398e-10 0
-1.15719e-08 -2.76635e-10 0
-1.1418e-08 -2.42e-10 0
-1.12996e-08 -1.99615e-10 0
-1.1211e-08 -1.57959e-10 0
-1.1146e-08 -1.21155e-10 0
-1.10991e-08 -9.06839e-11 0
-1.10655e-08 -6.65521e-11 0
-1.10418e-08 -4.80539e-11 0
-1.1025e-08 -3.42213e-11 0
-1.10133e-08 -2.40724e-11 0
-1.10051e-08 -1.67297e-11 0
-1.09993e-08 -1.14616e-11 0
-1.09952e-08 -7.68126e-12 0
-1.09923e-08 -4.92064e-12 0
-1.09903e-08 -2.77752e-12 0
-1.09891e-08 -8.70952e-13 0
-1.09886e-08 1.13506e-12 0
-1.09884e-08 3.38942e-12 0
-1.0988e-08 5.59988e-12 0
0.00901097 -5.58405e-08 0
0 -1.23274e-06 0
2.69632e-12 -4.4778e-09 0
1.05244e-09 -1.24892e-08 0
3.72433e-09 -1.65295e-08 0
2.78995e-09 -1.33968e-08 0
-1.50076e-12 -4.88245e-09 0
-1.05513e-10 -1.10739e-10 0
1.04899e-10 -1.08406e-10 0
-2.48027e-09 -5.24481e-09 0
-1.22858e-08 -1.74824e-08 0
-1.72538e-08 -2.87446e-08 0
-1.64923e-08 -3.35843e-08 0
-1.71902e-08 -2.93647e-08 0
-2.05934e-08 -1.68264e-08 0
-2.51434e-08 -1.005e-09 0
-2.90666e-08 1.28601e-08 0
-3.09427e-08 2.07569e-08 0
-2.97675e-08 2.18695e-08 0
-2.55028e-08 1.84109e-08 0
-1.936e-08 1.33814e-08 0
-1.30602e-08 8.74202e-09 0
-7.82729e-09 5.16417e-09 0
-4.02912e-09 2.61875e-09 0
-1.45172e-09 8.93803e-10 0
2.90323e-10 -2.04498e-10 0
1.51468e-09 -8.30323e-10 0
2.41626e-09 -1.11457e-09 0
3.09848e-09 -1.17049e-09 0
3.61639e-09 -1.09048e-09 0
4.0046e-09 -9.43196e-10 0
4.28992e-09 -7.74616e-10 0
4.49526e-09 -6.12078e-10 0
4.64018e-09 -4.69363e-10 0
4.74076e-09 -3.51416e-10 0
4.80963e-09 -2.58038e-10 0
4.85633e-09 -1.86454e-10 0
4.88777e-09 -1.32936e-10 0
4.90887e-09 -9.37119e-11 0
4.92303e-09 -6.5422e-11 0
4.93257e-09 -4.52798e-11 0
4.93903e-09 -3.10818e-11 0
4.94346e-09 -2.11419e-11 0
4.94655e-09 -1.41977e-11 0
4.94878e-09 -9.31361e-12 0
4.95045e-09 -5.78807e-12 0
4.95173e-09 -3.09853e-12 0
4.95272e-09 -8.99294e-13 0
4.9536e-09 9.47221e-13 0
4.95484e-09 2.43183e-12 0
4.95629e-09 3.46862e-12 0
0.00940096 -3.10748e-08 0
0 -1.1166e-06 0
-5.7432e-13 -4.71958e-09 0
-1.9202e-09 -1.06146e-08 0
-2.13275e-09 -1.27992e-08 0
-4.18163e-09 -1.26418e-08 0
-3.20162e-09 -5.73787e-09 0
-1.04793e-10 1.03448e-10 0
1.53144e-12 -1.53144e-12 0
1.03298e-10 -1.06526e-10 0
-7.46669e-09 -9.37274e-09 0
-2.3409e-08 -2.85736e-08 0
-2.67351e-08 -3.87874e-08 0
-2.89354e-08 -3.30591e-08 0
-3.09503e-08 -1.79368e-08 0
-3.18143e-08 -6.10777e-11 0
-3.17111e-08 1.46891e-08 0
-3.09297e-08 2.21001e-08 0
-2.8669e-08 2.16279e-08 0
-2.3906e-08 1.61716e-08 0
-1.69509e-08 9.47306e-09 0
-9.37455e-09 3.89643e-09 0
-2.74712e-09 1.20225e-10 0
2.19813e-09 -2.08533e-09 0
5.5116e-09 -3.16445e-09 0
7.59598e-09 -3.49846e-09 0
8.8719e-09 -3.37038e-09 0
9.64935e-09 -2.98738e-09 0
1.01244e-08 -2.49712e-09 0
1.04144e-08 -1.99683e-09 0
1.05892e-08 -1.54231e-09 0
1.06922e-08 -1.15875e-09 0
1.07508e-08 -8.51413e-10 0
1.07824e-08 -6.14414e-10 0
1.07982e-08 -4.36928e-10 0
1.08052e-08 -3.07006e-10 0
1.08075e-08 -2.13595e-10 0
1.08076e-08 -1.47387e-10 0
1.08068e-08 -1.00994e-10 0
1.08058e-08 -6.87828e-11 0
1.08049e-08 -4.65788e-11 0
1.08043e-08 -3.13528e-11 0
1.08039e-08 -2.09403e-11 0
1.08038e-08 -1.3808e-11 0
1.08039e-08 -8.8784e-12 0
1.08042e-08 -5.41594e-12 0
1.08049e-08 -2.96004e-12 0
1.08057e-08 -1.25939e-12 0
1.08068e-08 -1.89506e-13 0
1.08083e-08 2.66309e-13 0
1.08099e-08 2.20405e-13 0
0.00949667 8.25878e-09 0
0 -7.69793e-07 0
5.23947e-13 -2.78438e-09 0
-1.97585e-09 -7.08687e-09 0
-1.77558e-09 -9.3208e-09 0
-5.65115e-09 -9.61979e-09 0
-7.90036e-09 -6.59817e-09 0
-3.63505e-09 -1.99683e-09 0
-1.04903e-10 1.01754e-10 0
1.49198e-12 -1.49198e-12 0
1.01181e-10 -1.05412e-10 0
-1.08176e-08 -1.65427e-08 0
-2.31393e-08 -3.50968e-08 0
-3.01886e-08 -3.06891e-08 0
-3.27552e-08 -1.53218e-08 0
-3.14536e-08 1.69955e-09 0
-2.75287e-08 1.46447e-08 0
-2.32154e-08 2.02012e-08 0
-1.93849e-08 1.83075e-08 0
-1.51439e-08 1.19134e-08 0
-9.85628e-09 4.75109e-09 0
-4.19202e-09 -8.20455e-10 0
6.67832e-10 -4.19079e-09 0
4.03187e-09 -5.72133e-09 0
5.90783e-09 -6.00764e-09 0
6.688e-09 -5.56348e-09 0
6.81595e-09 -4.76235e-09 0
6.62724e-09 -3.85387e-09 0
6.32648e-09 -2.98846e-09 0
6.01941e-09 -2.24173e-09 0
5.75135e-09 -1.63844e-09 0
5.53545e-09 -1.17339e-09 0
5.36985e-09 -8.2709e-10 0
5.24686e-09 -5.75824e-10 0
5.1576e-09 -3.97033e-10 0
5.09393e-09 -2.71677e-10 0
5.04912e-09 -1.84762e-10 0
5.01794e-09 -1.25013e-10 0
4.99647e-09 -8.42089e-11 0
4.98185e-09 -5.64849e-11 0
4.972e-09 -3.77219e-11 0
4.96546e-09 -2.50563e-11 0
4.96124e-09 -1.6514e-11 0
4.95863e-09 -1.07492e-11 0
4.95721e-09 -6.86317e-12 0
4.95668e-09 -4.27403e-12 0
4.95682e-09 -2.61625e-12 0
4.95733e-09 -1.67278e-12 0
4.95806e-09 -1.34814e-12 0
4.95912e-09 -1.74822e-12 0
4.96026e-09 -2.88946e-12 0
0.00940094 4.44928e-08 0
0 -5.39559e-07 0
2.56367e-12 -1.84224e-09 0
-7.32491e-10 -4.9204e-09 0
-1.17067e-09 -7.05504e-09 0
-4.73345e-09 -6.9719e-09 0
-9.89302e-09 -3.70804e-09 0
-1.04687e-08 -3.83992e-10 0
-6.2578e-09 3.29407e-10 0
-1.07105e-10 9.64796e-11 0
9.98837e-11 9.05051e-11 0
3.97148e-12 -9.17819e-09 0
-1.41042e-08 -2.153e-08 0
-2.80475e-08 -1.89917e-08 0
-3.51361e-08 -5.72706e-09 0
-3.3747e-08 6.96502e-09 0
-2.56251e-08 1.39592e-08 0
-1.60227e-08 1.47331e-08 0
-9.2474e-09 1.08216e-08 0
-5.7544e-09 4.86807e-09 0
-3.95001e-09 -5.68378e-10 0
-2.78176e-09 -4.15997e-09 0
-2.19325e-09 -5.84448e-09 0
-2.36428e-09 -6.15363e-09 0
-3.22535e-09 -5.66573e-09 0
-4.49183e-09 -4.80908e-09 0
-5.85764e-09 -3.85633e-09 0
-7.11176e-09 -2.96292e-09 0
-8.15463e-09 -2.20273e-09 0
-8.96686e-09 -1.59659e-09 0
-9.57177e-09 -1.13514e-09 0
-1.00085e-08 -7.95443e-10 0
-1.0317e-08 -5.51402e-10 0
-1.05317e-08 -3.79131e-10 0
-1.06794e-08 -2.59045e-10 0
-1.07803e-08 -1.7609e-10 0
-1.08488e-08 -1.19167e-10 0
-1.08951e-08 -8.03061e-11 0
-1.09261e-08 -5.38886e-11 0
-1.09469e-08 -3.59962e-11 0
-1.09607e-08 -2.39178e-11 0
-1.09697e-08 -1.57903e-11 0
-1.09755e-08 -1.03436e-11 0
-1.09791e-08 -6.72134e-12 0
-1.09811e-08 -4.35099e-12 0
-1.0982e-08 -2.85656e-12 0
-1.09823e-08 -2.00612e-12 0
-1.09822e-08 -1.68733e-12 0
-1.0982e-08 -1.91855e-12 0
-1.09816e-08 -2.94303e-12 0
-1.09813e-08 -4.92234e-12 0
0.00901095 6.12618e-08 0
0 -4.5748e-07 0
2.56786e-12 -9.60857e-10 0
5.6558e-11 -2.726e-09 0
-1.24253e-09 -4.19955e-09 0
-6.11346e-09 -4.44717e-09 0
-1.28808e-08 -1.18043e-09 0
-1.55405e-08 2.51692e-09 0
-1.44038e-08 -1.8329e-09 0
-9.33954e-09 -3.51781e-09 0
-7.58696e-09 5.14747e-13 0
-6.92067e-09 -4.79941e-09 0
-1.84373e-08 -9.22545e-09 0
-3.39293e-08 -4.46837e-09 0
-4.07292e-08 4.33234e-09 0
-3.49639e-08 1.02427e-08 0
-2.13888e-08 1.04638e-08 0
-8.87975e-09 6.55033e-09 0
-3.27687e-09 1.34392e-09 0
-4.17474e-09 -2.7628e-09 0
-7.98874e-09 -4.71925e-09 0
-1.19542e-08 -4.87183e-09 0
-1.51873e-08 -4.14361e-09 0
-1.77994e-08 -3.2492e-09 0
-2.00291e-08 -2.48971e-09 0
-2.19693e-08 -1.90774e-09 0
-2.36155e-08 -1.46336e-09 0
-2.49524e-08 -1.11623e-09 0
-2.59915e-08 -8.41841e-10 0
-2.677e-08 -6.26106e-10 0
-2.73367e-08 -4.59097e-10 0
-2.77407e-08 -3.32202e-10 0
-2.80242e-08 -2.37514e-10 0
-2.82209e-08 -1.6799e-10 0
-2.83562e-08 -1.17653e-10 0
-2.84488e-08 -8.16498e-11 0
-2.85117e-08 -5.61744e-11 0
-2.85543e-08 -3.83233e-11 0
-2.85829e-08 -2.59268e-11 0
-2.8602e-08 -1.73916e-11 0
-2.86146e-08 -1.1565e-11 0
-2.86228e-08 -7.62414e-12 0
-2.8628e-08 -4.9897e-12 0
-2.86312e-08 -3.2594e-12 0
-2.8633e-08 -2.16016e-12 0
-2.86339e-08 -1.51815e-12 0
-2.86342e-08 -1.2409e-12 0
-2.86344e-08 -1.30917e-12 0
-2.86347e-08 -1.78114e-12 0
-2.86352e-08 -2.84578e-12 0
-2.86361e-08 -4.66639e-12 0
0.00797666 4.90542e-08 0
0 -4.71626e-07 0
3.59565e-12 -1.27156e-10 0
4.93059e-10 -5.5973e-10 0
-1.40452e-09 -1.11657e-09 0
-7.11464e-09 -1.3163e-09 0
-1.48058e-08 -9.27831e-10 0
-1.83545e-08 6.63031e-10 0
-1.73176e-08 -1.77687e-10 0
-2.01162e-08 -1.75887e-09 0
-1.85972e-08 -5.97242e-10 0
-1.65923e-08 7.28519e-10 0
-2.08512e-08 2.84873e-09 0
-2.60784e-08 4.78892e-09 0
-2.60773e-08 4.98707e-09 0
-1.87683e-08 3.80412e-09 0
-8.49023e-09 1.5967e-09 0
-1.92144e-09 -1.00012e-09 0
-2.22072e-09 -2.88703e-09 0
-7.42835e-09 -3.35582e-09 0
-1.37384e-08 -2.67778e-09 0
-1.87627e-08 -1.63436e-09 0
-2.20539e-08 -8.03527e-10 0
-2.4098e-08 -3.43446e-10 0
-2.54532e-08 -1.63219e-10 0
-2.64584e-08 -1.24101e-10 0
-2.72619e-08 -1.30416e-10 0
-2.79157e-08 -1.37757e-10 0
-2.84395e-08 -1.33659e-10 0
-2.88481e-08 -1.19466e-10 0
-2.91583e-08 -1.0008e-10 0
-2.93884e-08 -7.97802e-11 0
-2.95557e-08 -6.12073e-11 0
-2.96754e-08 -4.556e-11 0
-2.97599e-08 -3.30926e-11 0
-2.98187e-08 -2.355e-11 0
-2.98594e-08 -1.64653e-11 0
-2.98871e-08 -1.1331e-11 0
-2.99058e-08 -7.68422e-12 0
-2.99183e-08 -5.13927e-12 0
-2.99264e-08 -3.39221e-12 0
-2.99316e-08 -2.21294e-12 0
-2.99349e-08 -1.43326e-12 0
-2.99367e-08 -9.3444e-13 0
-2.99377e-08 -6.36604e-13 0
-2.99381e-08 -4.92745e-13 0
-2.99381e-08 -4.81945e-13 0
-2.99382e-08 -6.07344e-13 0
-2.99387e-08 -8.79348e-13 0
-2.99396e-08 -1.29697e-12 0
-2.99411e-08 -1.96885e-12 0
0.00554846 1.7813e-08 0
0 0 0
2.29724e-12 0 0
3.10492e-10 0 0
-6.78557e-10 0 0
-3.38019e-09 0 0
-7.11779e-09 0 0
-9.64851e-09 0 0
-9.17005e-09 0 0
-1.0782e-08 0 0
-1.10115e-08 0 0
-9.66765e-09 0 0
-8.01953e-09 0 0
-6.21479e-09 0 0
-4.37286e-09 0 0
-2.09337e-09 0 0
-7.60334e-11 0 0
2.86091e-10 0 0
-1.45652e-09 0 0
-4.34337e-09 0 0
-7.06067e-09 0 0
-8.93062e-09 0 0
-9.97413e-09 0 0
-1.04963e-08 0 0
-1.07729e-08 0 0
-1.09596e-08 0 0
-1.11183e-08 0 0
-1.12634e-08 0 0
-1.1393e-08 0 0
-1.15032e-08 0 0
-1.15926e-08 0 0
-1.16623e-08 0 0
-1.17148e-08 0 0
-1.17534e-08 0 0
-1.17811e-08 0 0
-1.18007e-08 0 0
-1.18143e-08 0 0
-1.18236e-08 0 0
-1.18298e-08 0 0
-1.18339e-08 0 0
-1.18366e-08 0 0
-1.18382e-08 0 0
-1.18392e-08 0 0
-1.18397e-08 0 0
-1.18399e-08 0 0
-1.18399e-08 0 0
-1.18398e-08 0 0
-1.18398e-08 0 0
-1.184e-08 0 0
-1.18405e-08 0 0
-1.18411e-08 0 0
0.00193013 0 0
0 0 5.27291e-07
2.0783e-12 0 2.43142e-10
-1.12057e-10 0 1.09885e-09
2.74499e-09 0 4.39573e-09
-1.14966e-08 0 1.35795e-09
5.91399e-09 0 -3.25034e-09
1.12908e-08 0 -1.34814e-09
1.16944e-08 0 -9.48085e-11
1.15516e-08 0 7.64623e-10
1.21828e-08 0 1.76061e-09
1.39322e-08 0 2.83118e-09
1.67008e-08 0 3.08551e-09
1.93244e-08 0 2.17049e-09
1.96992e-08 0 9.53687e-10
1.63925e-08 0 2.75171e-10
1.03285e-08 0 7.32967e-11
3.75815e-09 0 7.11422e-12
-1.87825e-09 0 2.26946e-11
-6.5882e-09 0 1.90289e-10
-1.09662e-08 0 4.62056e-10
-1.53349e-08 0 7.03844e-10
-1.95772e-08 0 8.18796e-10
-2.33853e-08 0 7.94344e-10
-2.65143e-08 0 6.74858e-10
-2.88821e-08 0 5.17556e-10
-3.05461e-08 0 3.65363e-10
-3.16382e-08 0 2.40243e-10
-3.23066e-08 0 1.47856e-10
-3.26835e-08 0 8.48728e-11
-3.28724e-08 0 4.46703e-11
-3.29474e-08 0 2.05264e-11
-3.29584e-08 0 6.94499e-12
-3.29374e-08 0 -7.47146e-14
-3.29032e-08 0 -3.23695e-12
-3.28664e-08 0 -4.26879e-12
-3.28325e-08 0 -4.21937e-12
-3.28036e-08 0 -3.69417e-12
-3.27802e-08 0 -3.02194e-12
-3.27619e-08 0 -2.3664e-12
-3.2748e-08 0 -1.79773e-12
-3.27375e-08 0 -1.33611e-12
-3.27298e-08 0 -9.76634e-13
-3.27241e-08 0 -7.0384e-13
-3.272e-08 0 -5.01016e-13
-3.27169e-08 0 -3.52403e-13
-3.27146e-08 0 -2.45477e-13
-3.27132e-08 0 -1.76562e-13
-3.27126e-08 0 -1.64006e-13
-3.27126e-08 0 -1.83493e-13
-3.27132e-08 0 2.3979e-13
0.00548551 0 -1.732e-09
0.0036 -3.02543e-07 -6.14871e-08
0.0035998 -0.00138949 -2.30233e-05
0.00670768 -0.00393051 0.000108897
0.0136118 -0.00588987 -0.000512529
0.0235115 -0.014456 -0.00427935
0.0463468 -0.0133881 -0.0048826
0.049866 -0.00191651 -0.00164381
0.049604 0.0026478 -0.000162797
0.0446155 0.00497363 0.000570156
0.0390094 0.00514078 0.000555929
0.0339068 0.00447294 0.00028399
0.0296164 0.00358907 6.58286e-06
0.0262095 0.00271461 -0.000188464
0.0236245 0.00194559 -0.000284368
0.0217092 0.00133239 -0.000296573
0.0202886 0.000888642 -0.000252227
0.0192215 0.000594006 -0.000180811
0.0184132 0.000408789 -0.000108095
0.017804 0.000291818 -5.06061e-05
0.0173531 0.000212705 -1.36997e-05
0.0170285 0.000154401 5.31076e-06
0.0168026 0.000109373 1.22595e-05
0.0166513 7.47013e-05 1.26622e-05
0.0165541 4.8877e-05 1.03523e-05
0.0164946 3.04867e-05 7.4691e-06
0.0164599 1.79944e-05 4.95648e-06
0.0164412 9.89757e-06 3.08338e-06
0.0164321 4.8964e-06 1.81168e-06
0.0164285 1.96905e-06 1.00359e-06
0.0164278 3.68566e-07 5.16899e-07
0.0164286 -4.21197e-07 2.38114e-07
0.01643 -7.40531e-07 8.70205e-08
0.0164314 -8.04445e-07 1.09191e-08
0.0164327 -7.43005e-07 -2.31018e-08
0.0164338 -6.31029e-07 -3.4754e-08
0.0164347 -5.08811e-07 -3.53861e-08
0.0164354 -3.95957e-07 -3.12545e-08
0.0164359 -3.00288e-07 -2.56247e-08
0.0164363 -2.23337e-07 -2.00675e-08
0.0164366 -1.63617e-07 -1.5234e-08
0.0164368 -1.1846e-07 -1.13e-08
0.0164369 -8.49922e-08 -8.22059e-09
0.016437 -6.06049e-08 -5.87883e-09
0.0164371 -4.31288e-08 -4.14324e-09
0.0164372 -3.08606e-08 -2.88058e-09
0.0164372 -2.2519e-08 -1.92488e-09
0.0164372 -1.71845e-08 -9.44252e-10
0.0164373 -1.44389e-08 1.08969e-09
0.0164373 -1.65652e-08 4.75887e-09
0.0164373 -4.20059e-08 -6.87676e-10
0.0164374 -6.45881e-08 -8.32485e-09
0.01 -1.35828e-07 -1.43302e-06
0.0100007 -0.00298763 -0.00059991
0.0147856 -0.00995933 -0.0007936
0.0241747 -0.0177349 -0.00124186
0.0385652 -0.0325513 -0.00334679
0.0592475 -0.0248614 -0.000819723
0.0564845 -0.00273788 0.00317684
0.0559201 0.00509171 0.00338786
0.0501372 0.0100708 0.00300734
0.0446644 0.0102193 0.00211487
0.0401654 0.00914164 0.00116371
0.0364585 0.00772707 0.000414549
0.0334902 0.0062527 -0.000105343
0.0312153 0.00488639 -0.000406894
0.0294762 0.00372951 -0.000511306
0.0281232 0.00280389 -0.000470498
0.0270632 0.00208188 -0.000352968
0.0262453 0.001525 -0.000220454
0.0256334 0.00109942 -0.000111443
0.0251925 0.0007777 -3.9065e-05
0.0248872 0.000537733 3.0399e-07
0.0246846 0.000361823 1.67589e-05
0.0245566 0.000235794 2.02108e-05
0.0244805 0.000148051 1.776e-05
0.0244389 8.89542e-05 1.35308e-05
0.0244188 5.05756e-05 9.47398e-06
0.0244114 2.66245e-05 6.26748e-06
0.0244109 1.23353e-05 3.97699e-06
0.0244136 4.26783e-06 2.44077e-06
0.0244175 4.76512e-08 1.45448e-06
0.0244215 -1.89758e-06 8.41994e-07
0.0244251 -2.56928e-06 4.72236e-07
0.024428 -2.58042e-06 2.54879e-07
0.0244304 -2.28995e-06 1.30613e-07
0.0244322 -1.89687e-06 6.17994e-08
0.0244335 -1.50332e-06 2.51948e-08
0.0244345 -1.15532e-06 6.78903e-09
0.0244352 -8.68081e-07 -1.66596e-09
0.0244357 -6.41221e-07 -4.90561e-09
0.0244361 -4.67471e-07 -5.57204e-09
0.0244363 -3.37389e-07 -5.08341e-09
0.0244365 -2.41715e-07 -4.16196e-09
0.0244367 -1.72415e-07 -3.1759e-09
0.0244367 -1.22993e-07 -2.30341e-09
0.0244368 -8.84401e-08 -1.58301e-09
0.0244369 -6.51597e-08 -8.78028e-10
0.0244369 -5.10358e-08 3.79852e-10
0.0244369 -4.83444e-08 3.07725e-09
0.024437 -6.40034e-08 6.23405e-09
0.024437 -1.14316e-07 -8.02891e-09
0.0244371 -1.51226e-07 -2.36314e-08
0.0148 -9.45648e-07 -1.72145e-06
0.0148023 -0.00529596 -0.00112704
0.0203887 -0.0164315 -0.00244712
0.027562 -0.0288459 -0.00394046
0.0322167 -0.046233 -0.00577052
0.0306824 -0.0285421 -0.00141965
0.0268916 -1.2147e-05 0.00329848
0.0263319 0.0070623 0.00352339
0.0298337 0.0144141 0.00343752
0.0301809 0.0138429 0.00247085
0.0293791 0.012068 0.00150096
0.0285495 0.0102287 0.000659138
0.027925 0.00834929 5.46797e-05
0.0276126 0.0065871 -0.000302497
0.0274873 0.00508809 -0.000430541
0.0274486 0.00385327 -0.000399048
0.0274537 0.00284808 -0.000289744
0.027487 0.00204855 -0.000166875
0.0275384 0.00143445 -6.67583e-05
0.0275981 0.000979014 -1.40107e-06
0.027659 0.000650542 3.21385e-05
0.027717 0.000418863 4.3046e-05
0.0277704 0.00025912 4.10078e-05
0.027818 0.000152036 3.34252e-05
0.0278592 8.27866e-05 2.47933e-05
0.0278936 3.99639e-05 1.72492e-05
0.0279214 1.49302e-05 1.14547e-05
0.0279431 1.36308e-06 7.33901e-06
0.0279596 -5.16805e-06 4.56602e-06
0.0279718 -7.62556e-06 2.76819e-06
0.0279806 -7.89719e-06 1.63745e-06
0.0279869 -7.12645e-06 9.44458e-07
0.0279914 -5.96675e-06 5.29755e-07
0.0279944 -4.76405e-06 2.87388e-07
0.0279966 -3.68097e-06 1.49251e-07
0.027998 -2.7769e-06 7.27345e-08
0.027999 -2.0574e-06 3.18121e-08
0.0279997 -1.50327e-06 1.0937e-08
0.0280002 -1.08654e-06 1.02798e-09
0.0280005 -7.78755e-07 -3.09687e-09
0.0280007 -5.54635e-07 -4.31352e-09
0.0280009 -3.93365e-07 -4.16099e-09
0.028001 -2.78594e-07 -3.45715e-09
0.028001 -1.97966e-07 -2.62132e-09
0.0280011 -1.42474e-07 -1.74573e-09
0.0280011 -1.0637e-07 -7.05849e-10
0.0280012 -8.71116e-08 1.09348e-09
0.0280012 -8.61102e-08 3.32402e-09
0.0280012 -1.07702e-07 8.13011e-10
0.0280012 -1.46664e-07 -2.27476e-08
0.0280012 -1.68597e-07 -4.27866e-08
0.018 -1.90552e-06 -1.67107e-06
0.0180029 -0.00700208 -0.00187648
0.020782 -0.0190093 -0.0049241
0.0207372 -0.0250099 -0.00633995
0.0160981 -0.0270345 -0.00762678
-1.58021e-06 -0.0140413 -0.00433544
9.57459e-05 2.57862e-05 9.09628e-07
-3.27249e-05 3.40514e-05 0.000654889
0.00657224 0.00408103 0.00144135
0.0134335 0.00926094 0.0014105
0.0168472 0.0100719 0.00100033
0.0186242 0.00910352 0.000460287
0.0203203 0.00755508 -2.76284e-05
0.0220126 0.00591579 -0.000296683
0.0235368 0.00450512 -0.000363369
0.0248287 0.00333262 -0.000311504
0.025894 0.00237141 -0.000213766
0.026758 0.00161428 -0.00011425
0.0274446 0.00105141 -3.40838e-05
0.0279759 0.000655532 1.94807e-05
0.0283755 0.000388447 4.73712e-05
0.0286694 0.000213591 5.53594e-05
0.0288821 0.000102557 5.10339e-05
0.0290342 3.51685e-05 4.11738e-05
0.0291418 -2.81102e-06 3.03755e-05
0.029217 -2.16236e-05 2.09979e-05
0.0292688 -2.86323e-05 1.38106e-05
0.029304 -2.89565e-05 8.72717e-06
0.0293275 -2.59593e-05 5.32984e-06
0.029343 -2.16959e-05 3.15505e-06
0.0293531 -1.73123e-05 1.81094e-06
0.0293596 -1.33688e-05 1.00548e-06
0.0293637 -1.00762e-05 5.367e-07
0.0293663 -7.45596e-06 2.71938e-07
0.0293679 -5.43905e-06 1.27329e-07
0.029369 -3.9238e-06 5.15274e-08
0.0293696 -2.80599e-06 1.39794e-08
0.02937 -1.99285e-06 -3.01501e-09
0.0293703 -1.40778e-06 -9.43262e-09
0.0293704 -9.90478e-07 -1.07321e-08
0.0293705 -6.95012e-07 -9.78878e-09
0.0293706 -4.87203e-07 -8.03563e-09
0.0293706 -3.42116e-07 -6.15412e-09
0.0293707 -2.41944e-07 -4.43859e-09
0.0293707 -1.74436e-07 -2.86987e-09
0.0293707 -1.31734e-07 -1.43845e-09
0.0293707 -1.09158e-07 -6.02126e-11
0.0293707 -1.02216e-07 3.30343e-10
0.0293707 -1.07652e-07 -8.91978e-09
0.0293707 -1.09049e-07 -3.60977e-08
0.0293706 -1.04759e-07 -5.43572e-08
0.0196 -2.76633e-06 -2.52095e-06
0.019601 -0.00591277 -0.00274442
0.0190571 -0.0131936 -0.00648033
0.0159428 -0.0162221 -0.00668807
0.0108886 -0.015204 -0.00668924
0.0017255 -0.00626546 -0.00504357
7.12843e-05 -6.54519e-05 -0.00130407
3.27269e-05 -3.27269e-05 -4.07794e-08
-3.213e-05 3.33198e-05 0.000260731
0.00391066 0.0027542 0.000556808
0.00895238 0.00644181 0.000487405
0.0118678 0.00672819 0.000136785
0.015115 0.00526685 -0.000246245
0.0182679 0.00383054 -0.000408321
0.0209681 0.00272675 -0.000400555
0.0231539 0.00185556 -0.000318275
0.024884 0.00115526 -0.00022051
0.0262354 0.000622425 -0.000131648
0.0272707 0.00025763 -5.91087e-05
0.0280409 3.72978e-05 -6.07294e-06
0.0285949 -7.87489e-05 2.61346e-05
0.0289808 -0.00012935 3.97265e-05
0.0292426 -0.000142569 4.01444e-05
0.0294162 -0.000135803 3.36216e-05
0.0295291 -0.000119326 2.50165e-05
0.029601 -9.92699e-05 1.71032e-05
0.0296459 -7.9268e-05 1.09534e-05
0.0296733 -6.1298e-05 6.64549e-06
0.0296896 -4.6211e-05 3.84028e-06
0.029699 -3.41415e-05 2.1139e-06
0.0297043 -2.48261e-05 1.10111e-06
0.0297072 -1.7829e-05 5.33055e-07
0.0297086 -1.26808e-05 2.29191e-07
0.0297093 -8.95232e-06 7.5705e-08
0.0297096 -6.28439e-06 4.25043e-09
0.0297097 -4.39269e-06 -2.45392e-08
0.0297097 -3.06063e-06 -3.24625e-08
0.0297096 -2.12756e-06 -3.10962e-08
0.0297096 -1.47661e-06 -2.629e-08
0.0297095 -1.02395e-06 -2.08049e-08
0.0297095 -7.10107e-07 -1.57954e-08
0.0297094 -4.93221e-07 -1.16151e-08
0.0297094 -3.44081e-07 -8.28471e-09
0.0297094 -2.42512e-07 -5.73664e-09
0.0297094 -1.74692e-07 -3.866e-09
0.0297093 -1.30658e-07 -2.7529e-09
0.0297093 -1.02479e-07 -2.62374e-09
0.0297093 -8.18025e-08 -3.86027e-09
0.0297093 -6.06303e-08 -1.58873e-08
0.0297092 -2.24246e-08 -4.04926e-08
0.0297091 4.26517e-09 -5.41101e-08
0.0196 -1.33226e-06 -3.51725e-06
0.0195999 -0.00369064 -0.00312677
0.018765 -0.00810207 -0.00652056
0.0175143 -0.00813224 -0.00605272
0.0131896 -0.0043013 -0.00554419
0.00909145 0.00257391 -0.00533176
0.00614761 0.00315573 -0.00311477
7.14526e-05 -5.94512e-05 -0.000671958
2.73211e-05 -2.73211e-05 -1.24976e-07
-3.16043e-05 3.26558e-05 9.48091e-05
0.0027112 0.00193861 0.000360478
0.00701362 0.00303121 0.000261726
0.0122852 0.00149487 -0.000161933
0.0169215 0.000493448 -0.000347635
0.0205229 2.47032e-05 -0.000352659
0.0232041 -0.000255742 -0.000286127
0.0251761 -0.000474068 -0.000211479
0.0266115 -0.000622888 -0.000147764
0.027632 -0.0006775 -9.39707e-05
0.0283296 -0.000646115 -4.91295e-05
0.0287836 -0.000562004 -1.6009e-05
0.0290636 -0.000459278 3.65472e-06
0.029227 -0.000359914 1.17965e-05
0.0293168 -0.000273839 1.25958e-05
0.0293624 -0.000203675 1.00669e-05
0.0293829 -0.000148676 6.82712e-06
0.02939 -0.000106822 4.09409e-06
0.0293905 -7.57427e-05 2.18878e-06
0.0293881 -5.31395e-05 1.01815e-06
0.0293849 -3.698e-05 3.70972e-07
0.0293818 -2.5583e-05 5.0986e-08
0.029379 -1.76272e-05 -8.402e-08
0.0293769 -1.21146e-05 -1.24047e-07
0.0293752 -8.31405e-06 -1.20772e-07
0.0293739 -5.7022e-06 -1.01403e-07
0.029373 -3.91048e-06 -7.89436e-08
0.0293723 -2.68243e-06 -5.87845e-08
0.0293718 -1.84094e-06 -4.25646e-08
0.0293715 -1.26435e-06 -3.02629e-08
0.0293713 -8.69289e-07 -2.12544e-08
0.0293711 -5.98714e-07 -1.47896e-08
0.029371 -4.13642e-07 -1.01885e-08
0.0293709 -2.87396e-07 -6.958e-09
0.0293708 -2.01515e-07 -4.81585e-09
0.0293708 -1.42808e-07 -3.6146e-09
0.0293708 -1.01183e-07 -3.32759e-09
0.0293707 -6.82939e-08 -4.01994e-09
0.0293707 -3.59026e-08 -5.46853e-09
0.0293706 6.35805e-09 -1.54e-08
0.0293706 7.15944e-08 -3.38547e-08
0.0293705 1.11748e-07 -4.32293e-08
0.018 -8.49078e-07 -3.50949e-06
0.0180009 -0.00201112 -0.00304944
0.0183167 -0.00388292 -0.00616062
0.0183729 -0.0026749 -0.00528724
0.017356 0.00062351 -0.0041964
0.0170783 0.00707529 -0.00396596
0.017814 0.0125805 -0.00300116
0.0109418 0.00693097 -0.00149485
7.29029e-05 -4.59994e-05 -0.000435553
-2.47758e-05 -5.3566e-05 5.4677e-07
7.75509e-06 -0.000708414 0.000746026
0.00827974 -0.00286235 0.00108373
0.0155922 -0.00441639 0.000451455
0.0205754 -0.00407777 0.000139048
0.0237432 -0.00321731 2.05256e-05
0.0257338 -0.00249227 -2.65883e-05
0.0269789 -0.00199521 -5.83166e-05
0.0277323 -0.00163307 -8.36402e-05
0.0281493 -0.00132122 -9.3305e-05
0.0283398 -0.00103249 -8.40044e-05
0.0283893 -0.00077556 -6.32663e-05
0.0283624 -0.000563456 -4.13665e-05
0.0283032 -0.00039957 -2.44105e-05
0.0282374 -0.000278696 -1.35677e-05
0.028178 -0.000192167 -7.44588e-06
0.0281295 -0.000131418 -4.21893e-06
0.0280923 -8.93475e-05 -2.53523e-06
0.028065 -6.05136e-05 -1.61409e-06
0.0280454 -4.09034e-05 -1.06671e-06
0.0280317 -2.76363e-05 -7.14998e-07
0.0280221 -1.86866e-05 -4.78186e-07
0.0280155 -1.26547e-05 -3.16364e-07
0.028011 -8.58657e-06 -2.06386e-07
0.0280079 -5.83826e-06 -1.32739e-07
0.0280058 -3.9774e-06 -8.42815e-08
0.0280044 -2.71441e-06 -5.29399e-08
0.0280034 -1.85528e-06 -3.29743e-08
0.0280027 -1.26974e-06 -2.04158e-08
0.0280022 -8.70086e-07 -1.2594e-08
0.0280019 -5.97078e-07 -7.75726e-09
0.0280017 -4.10531e-07 -4.77923e-09
0.0280015 -2.83034e-07 -2.95374e-09
0.0280014 -1.95647e-07 -1.89438e-09
0.0280013 -1.3499e-07 -1.41894e-09
0.0280013 -9.1276e-08 -1.41246e-09
0.0280012 -5.68913e-08 -1.78307e-09
0.0280012 -2.5249e-08 -2.46098e-09
0.0280012 1.02864e-08 -3.12743e-09
0.0280011 6.00806e-08 -8.13642e-09
0.0280011 1.30943e-07 -1.97691e-08
0.0280011 1.71628e-07 -2.66543e-08
0.0148 -4.76593e-07 -3.10924e-06
0.0148015 -0.0010366 -0.00282894
0.0162308 -0.00164715 -0.00542545
0.0177959 -3.09231e-05 -0.00429159
0.0191222 0.00317506 -0.00307021
0.020863 0.00735548 -0.00284875
0.0246788 0.0129792 -0.00241184
0.0279717 0.0195138 -0.00151474
0.0229995 0.0112952 -0.000343116
0.0234509 2.61446e-11 0.000625088
0.0265952 -0.00670536 0.00155882
0.0300207 -0.0130971 0.002109
0.0308549 -0.0110315 0.00163962
0.0302901 -0.00771598 0.00114747
0.0292976 -0.00509524 0.000703957
0.0283084 -0.00338194 0.000353936
0.0274548 -0.00230886 0.000107935
0.0267515 -0.00160476 -4.2008e-05
0.0261809 -0.00110862 -0.000110083
0.0257248 -0.000748817 -0.000119222
0.0253681 -0.000493999 -9.74134e-05
0.0250969 -0.000321485 -6.75227e-05
0.0248966 -0.000209022 -4.1875e-05
0.0247526 -0.000137024 -2.40152e-05
0.0246514 -9.08961e-05 -1.30302e-05
0.0245816 -6.09839e-05 -6.79234e-06
0.0245341 -4.12863e-05 -3.43059e-06
0.0245021 -2.81348e-05 -1.68021e-06
0.0244807 -1.92603e-05 -7.90609e-07
0.0244664 -1.32259e-05 -3.47821e-07
0.0244568 -9.10037e-06 -1.32922e-07
0.0244504 -6.26924e-06 -3.27443e-08
0.0244461 -4.32139e-06 1.05241e-08
0.0244432 -2.97907e-06 2.62218e-08
0.0244412 -2.05325e-06 2.91338e-08
0.0244398 -1.41451e-06 2.66192e-08
0.0244389 -9.73936e-07 2.22509e-08
0.0244383 -6.70229e-07 1.76804e-08
0.0244379 -4.61061e-07 1.35955e-08
0.0244376 -3.17141e-07 1.02121e-08
0.0244374 -2.18135e-07 7.53021e-09
0.0244372 -1.49838e-07 5.46161e-09
0.0244371 -1.02192e-07 3.87381e-09
0.0244371 -6.79205e-08 2.64292e-09
0.024437 -4.15206e-08 1.70273e-09
0.024437 -1.84849e-08 1.03085e-09
0.024437 5.40152e-09 7.2215e-10
0.024437 3.41004e-08 8.8098e-10
0.024437 7.31832e-08 -7.46253e-11
0.024437 1.23241e-07 -7.58486e-09
0.0244371 1.50238e-07 -1.39442e-08
0.01 -9.10508e-07 -2.81676e-06
0.0100007 -0.000635139 -0.00230371
0.0113226 -0.000713359 -0.00414344
0.013189 0.000552346 -0.00291133
0.0156295 0.00252218 -0.00181592
0.0195366 0.00556903 -0.00182602
0.0254584 0.0083655 -0.00237206
0.0345689 0.0101212 -0.00209652
0.0461898 0.00482575 -0.000512636