# vtk DataFile Version 2.0
Tobias Weinzierl: CPU, Manycore and Cluster Computing
ASCII

DATASET STRUCTURED_POINTS
DIMENSIONS  51 11 6

ORIGIN 0 0 0 

SPACING 0.1 0.1 0.1 

POINT_DATA 3366

VECTORS velocity float
0 0 0
-8.34593e-13 0 0
5.36258e-10 0 0
1.34968e-09 0 0
-3.39659e-09 0 0
3.83396e-09 0 0
5.36438e-09 0 0
4.9165e-09 0 0
4.71744e-09 0 0
4.62048e-09 0 0
4.08525e-09 0 0
3.27914e-09 0 0
2.39553e-09 0 0
1.06205e-09 0 0
-9.78776e-10 0 0
-3.18209e-09 0 0
-4.78098e-09 0 0
-5.59664e-09 0 0
-6.03042e-09 0 0
-6.54661e-09 0 0
-7.33746e-09 0 0
-8.33441e-09 0 0
-9.36632e-09 0 0
-1.02864e-08 0 0
-1.1019e-08 0 0
-1.15522e-08 0 0
-1.19117e-08 0 0
-1.21369e-08 0 0
-1.2267e-08 0 0
-1.23341e-08 0 0
-1.23624e-08 0 0
-1.23685e-08 0 0
-1.23632e-08 0 0
-1.2353e-08 0 0
-1.23416e-08 0 0
-1.2331e-08 0 0
-1.2322e-08 0 0
-1.23147e-08 0 0
-1.23092e-08 0 0
-1.2305e-08 0 0
-1.2302e-08 0 0
-1.23e-08 0 0
-1.22987e-08 0 0
-1.22979e-08 0 0
-1.22974e-08 0 0
-1.22971e-08 0 0
-1.22971e-08 0 0
-1.22973e-08 0 0
-1.22977e-08 0 0
-1.22986e-08 0 0
0.00193262 0 0
0 3.79902e-07 0
-2.32415e-12 -7.68983e-10 0
7.81215e-10 -2.48077e-09 0
3.47496e-09 -7.8432e-10 0
-1.20054e-09 -4.14994e-09 0
1.1447e-08 -5.59333e-09 0
1.36243e-08 1.52814e-10 0
1.28818e-08 6.77887e-10 0
1.32888e-08 -4.58833e-10 0
1.39285e-08 -1.10906e-09 0
1.34201e-08 -1.45724e-09 0
1.17902e-08 -1.29284e-09 0
9.1837e-09 2.04984e-10 0
5.40716e-09 2.54997e-09 0
7.68723e-10 4.02879e-09 0
-3.52411e-09 3.74862e-09 0
-6.5285e-09 2.42042e-09 0
-8.4855e-09 1.23628e-09 0
-1.03507e-08 7.58106e-10 0
-1.28347e-08 8.32991e-10 0
-1.60043e-08 1.06964e-09 0
-1.94747e-08 1.20061e-09 0
-2.2766e-08 1.1553e-09 0
-2.55394e-08 9.81034e-10 0
-2.76601e-08 7.54234e-10 0
-2.91533e-08 5.33602e-10 0
-3.01283e-08 3.49667e-10 0
-3.07177e-08 2.11207e-10 0
-3.10424e-08 1.14852e-10 0
-3.11976e-08 5.23459e-11 0
-3.12519e-08 1.47041e-11 0
-3.1251e-08 -5.9007e-12 0
-3.12239e-08 -1.5554e-11 0
-3.11874e-08 -1.86404e-11 0
-3.11506e-08 -1.81271e-11 0
-3.1118e-08 -1.59046e-11 0
-3.1091e-08 -1.30992e-11 0
-3.10698e-08 -1.03258e-11 0
-3.10536e-08 -7.87675e-12 0
-3.10417e-08 -5.8539e-12 0
-3.10331e-08 -4.25581e-12 0
-3.10272e-08 -3.03143e-12 0
-3.10232e-08 -2.11231e-12 0
-3.10207e-08 -1.43037e-12 0
-3.10192e-08 -9.23159e-13 0
-3.10183e-08 -5.35548e-13 0
-3.1018e-08 -2.14021e-13 0
-3.10184e-08 1.1859e-13 0
-3.10197e-08 6.9839e-13 0
-3.1022e-08 2.21264e-12 0
0.00555477 -2.27066e-08 0
0 -1.99519e-08 0
-2.24552e-12 -8.663e-10 0
1.58916e-09 -4.72633e-09 0
7.55024e-09 -8.41975e-09 0
1.07901e-08 -1.52727e-08 0
2.01693e-08 -1.21329e-08 0
1.66559e-08 -1.03543e-09 0
1.63198e-08 -8.04779e-10 0
1.74433e-08 -4.47289e-09 0
1.83719e-08 -8.59759e-09 0
1.5832e-08 -1.18186e-08 0
1.18546e-08 -1.18148e-08 0
8.22604e-09 -7.49232e-09 0
4.08872e-09 -1.28832e-09 0
-6.31518e-10 3.77376e-09 0
-4.86224e-09 6.84869e-09 0
-7.78793e-09 8.47666e-09 0
-9.66847e-09 9.15753e-09 0
-1.13728e-08 9.12377e-09 0
-1.35906e-08 8.53356e-09 0
-1.64687e-08 7.53648e-09 0
-1.96999e-08 6.28384e-09 0
-2.28165e-08 4.93764e-09 0
-2.5447e-08 3.65215e-09 0
-2.74239e-08 2.5405e-09 0
-2.87597e-08 1.65726e-09 0
-2.9569e-08 1.00512e-09 0
-2.9997e-08 5.54391e-10 0
-3.01757e-08 2.6219e-10 0
-3.02071e-08 8.55023e-11 0
-3.01617e-08 -1.22884e-11 0
-3.00839e-08 -5.93917e-11 0
-2.99994e-08 -7.60252e-11 0
-2.99213e-08 -7.58208e-11 0
-2.9855e-08 -6.74468e-11 0
-2.98018e-08 -5.60721e-11 0
-2.97606e-08 -4.45364e-11 0
-2.97298e-08 -3.42147e-11 0
-2.97071e-08 -2.56176e-11 0
-2.96908e-08 -1.87852e-11 0
-2.96794e-08 -1.35313e-11 0
-2.96715e-08 -9.58476e-12 0
-2.96663e-08 -6.66548e-12 0
-2.9663e-08 -4.52123e-12 0
-2.9661e-08 -2.93574e-12 0
-2.96598e-08 -1.71578e-12 0
-2.96594e-08 -6.48574e-13 0
-2.966e-08 6.12307e-13 0
-2.96615e-08 2.4699e-12 0
-2.96639e-08 5.23324e-12 0
0.00798273 -5.31264e-08 0
0 -6.29204e-07 0
-3.39544e-13 -2.40504e-09 0
3.03966e-09 -8.54613e-09 0
1.04176e-08 -1.62845e-08 0
1.2383e-08 -2.26796e-08 0
1.25562e-08 -1.25415e-08 0
8.39729e-09 -6.99851e-12 0
8.35448e-09 -1.42882e-09 0
6.15106e-09 -7.51411e-09 0
3.79714e-09 -1.5809e-08 0
1.35494e-09 -2.14697e-08 0
-1.50914e-09 -2.31363e-08 0
-3.4984e-09 -1.95229e-08 0
-7.14783e-09 -1.1305e-08 0
-1.24445e-08 -8.87605e-10 0
-1.75317e-08 8.98176e-09 0
-2.06046e-08 1.5623e-08 0
-2.10351e-08 1.79405e-08 0
-1.94453e-08 1.68687e-08 0
-1.71098e-08 1.41394e-08 0
-1.51387e-08 1.10549e-08 0
-1.39963e-08 8.21686e-09 0
-1.35696e-08 5.80751e-09 0
-1.35135e-08 3.8608e-09 0
-1.35316e-08 2.36694e-09 0
-1.3474e-08 1.28828e-09 0
-1.33114e-08 5.62183e-10 0
-1.3075e-08 1.12236e-10 0
-1.28101e-08 -1.37764e-10 0
-1.25532e-08 -2.53706e-10 0
-1.2326e-08 -2.86836e-10 0
-1.21375e-08 -2.73756e-10 0
-1.19884e-08 -2.38684e-10 0
-1.18745e-08 -1.96423e-10 0
-1.17898e-08 -1.55193e-10 0
-1.17283e-08 -1.1893e-10 0
-1.16844e-08 -8.89959e-11 0
-1.16534e-08 -6.53314e-11 0
-1.16319e-08 -4.72046e-11 0
-1.16171e-08 -3.36463e-11 0
-1.16071e-08 -2.36868e-11 0
-1.16006e-08 -1.64663e-11 0
-1.15964e-08 -1.12718e-11 0
-1.15939e-08 -7.53222e-12 0
-1.15925e-08 -4.79139e-12 0
-1.15918e-08 -2.65398e-12 0
-1.15917e-08 -7.41162e-13 0
-1.15922e-08 1.27971e-12 0
-1.1593e-08 3.54782e-12 0
-1.15942e-08 5.75772e-12 0
0.00901332 -5.72333e-08 0
0 -1.23259e-06 0
-1.33765e-12 -4.70637e-09 0
1.12877e-09 -1.31119e-08 0
3.93999e-09 -1.73456e-08 0
2.8609e-09 -1.40534e-08 0
-5.24973e-13 -5.11581e-09 0
-5.3733e-12 -1.23036e-11 0
9.50319e-12 -1.08322e-11 0
-2.72084e-09 -5.52734e-09 0
-1.31883e-08 -1.82736e-08 0
-1.83771e-08 -2.9775e-08 0
-1.75524e-08 -3.44579e-08 0
-1.83037e-08 -2.97252e-08 0
-2.18875e-08 -1.65213e-08 0
-2.65934e-08 -2.12182e-10 0
-3.05414e-08 1.37598e-08 0
-3.22666e-08 2.14078e-08 0
-3.07784e-08 2.21424e-08 0
-2.61397e-08 1.83999e-08 0
-1.96955e-08 1.32498e-08 0
-1.32355e-08 8.60106e-09 0
-7.96257e-09 5.05446e-09 0
-4.18595e-09 2.54294e-09 0
-1.64477e-09 8.4485e-10 0
6.71553e-11 -2.32794e-10 0
1.27074e-09 -8.42621e-10 0
2.15796e-09 -1.11504e-09 0
2.82922e-09 -1.16312e-09 0
3.3379e-09 -1.07878e-09 0
3.71802e-09 -9.2991e-10 0
3.99625e-09 -7.61626e-10 0
4.19545e-09 -6.00486e-10 0
4.33515e-09 -4.59672e-10 0
4.43131e-09 -3.4372e-10 0
4.49646e-09 -2.52187e-10 0
4.54e-09 -1.82175e-10 0
4.56877e-09 -1.29914e-10 0
4.58759e-09 -9.16473e-11 0
4.59979e-09 -6.40513e-11 0
4.60759e-09 -4.43894e-11 0
4.61244e-09 -3.05086e-11 0
4.61533e-09 -2.07674e-11 0
4.61687e-09 -1.39405e-11 0
4.61756e-09 -9.1206e-12 0
4.61777e-09 -5.62572e-12 0
4.61778e-09 -2.94746e-12 0
4.61772e-09 -7.52359e-13 0
4.61767e-09 1.08558e-12 0
4.61781e-09 2.54994e-12 0
4.61775e-09 3.56227e-12 0
0.00939997 -3.18856e-08 0
0 -1.11637e-06 0
-4.34954e-12 -4.98364e-09 0
-1.99423e-09 -1.11823e-08 0
-2.2042e-09 -1.34361e-08 0
-4.39893e-09 -1.32591e-08 0
-3.39505e-09 -6.02247e-09 0
-6.60202e-12 6.3739e-12 0
2.91471e-12 -2.91471e-12 0
8.74397e-12 -1.02812e-11 0
-7.9215e-09 -9.83987e-09 0
-2.46037e-08 -2.97463e-08 0
-2.78986e-08 -3.99453e-08 0
-3.00894e-08 -3.3542e-08 0
-3.2092e-08 -1.76334e-08 0
-3.29049e-08 7.74874e-10 0
-3.27758e-08 1.56221e-08 0
-3.19803e-08 2.27283e-08 0
-2.96005e-08 2.17964e-08 0
-2.45785e-08 1.59931e-08 0
-1.73332e-08 9.15839e-09 0
-9.55664e-09 3.59873e-09 0
-2.85021e-09 -1.00695e-10 0
2.09276e-09 -2.22643e-09 0
5.37324e-09 -3.24175e-09 0
7.42398e-09 -3.52985e-09 0
8.67534e-09 -3.37132e-09 0
9.43705e-09 -2.97033e-09 0
9.90234e-09 -2.47149e-09 0
1.01859e-08 -1.96907e-09 0
1.03564e-08 -1.5163e-09 0
1.0456e-08 -1.13642e-09 0
1.05119e-08 -8.33363e-10 0
1.05411e-08 -6.00488e-10 0
1.05549e-08 -4.26589e-10 0
1.05599e-08 -2.99586e-10 0
1.05604e-08 -2.08434e-10 0
1.05588e-08 -1.43905e-10 0
1.05564e-08 -9.8714e-11 0
1.0554e-08 -6.73312e-11 0
1.05517e-08 -4.56758e-11 0
1.05497e-08 -3.07975e-11 0
1.05479e-08 -2.05939e-11 0
1.05463e-08 -1.35788e-11 0
1.0545e-08 -8.70947e-12 0
1.05439e-08 -5.27594e-12 0
1.05433e-08 -2.83673e-12 0
1.05431e-08 -1.15264e-12 0
1.05433e-08 -1.04095e-13 0
1.05437e-08 3.23553e-13 0
1.05438e-08 2.5054e-13 0
0.00949445 8.23529e-09 0
0 -7.69716e-07 0
-3.03454e-12 -2.94425e-09 0
-2.05742e-09 -7.49465e-09 0
-1.84153e-09 -9.85756e-09 0
-5.99808e-09 -1.01334e-08 0
-8.4155e-09 -6.86969e-09 0
-3.8667e-09 -2.04373e-09 0
-5.96949e-12 6.74571e-12 0
1.758e-12 -1.758e-12 0
8.06295e-12 -9.54155e-12 0
-1.13688e-08 -1.72556e-08 0
-2.39507e-08 -3.62848e-08 0
-3.1034e-08 -3.11959e-08 0
-3.35062e-08 -1.50552e-08 0
-3.20019e-08 2.44879e-09 0
-2.79306e-08 1.54891e-08 0
-2.36585e-08 2.07835e-08 0
-1.99405e-08 1.84574e-08 0
-1.57063e-08 1.17063e-08 0
-1.03085e-08 4.38463e-09 0
-4.52234e-09 -1.18106e-09 0
3.98396e-10 -4.46797e-09 0
3.7635e-09 -5.90129e-09 0
5.61385e-09 -6.10488e-09 0
6.36825e-09 -5.6004e-09 0
6.48067e-09 -4.76075e-09 0
6.28655e-09 -3.83153e-09 0
5.98684e-09 -2.958e-09 0
5.68373e-09 -2.2109e-09 0
5.42021e-09 -1.61121e-09 0
5.20823e-09 -1.15123e-09 0
5.04546e-09 -8.10039e-10 0
4.92421e-09 -5.63247e-10 0
4.83575e-09 -3.88074e-10 0
4.77215e-09 -2.65491e-10 0
4.72693e-09 -1.8062e-10 0
4.69501e-09 -1.22327e-10 0
4.67261e-09 -8.25247e-11 0
4.65695e-09 -5.54665e-11 0
4.64599e-09 -3.71271e-11 0
4.63827e-09 -2.47172e-11 0
4.63276e-09 -1.63186e-11 0
4.62878e-09 -1.06273e-11 0
4.62591e-09 -6.77478e-12 0
4.62399e-09 -4.20016e-12 0
4.62288e-09 -2.55074e-12 0
4.62234e-09 -1.61679e-12 0
4.62213e-09 -1.3078e-12 0
4.62207e-09 -1.73598e-12 0
4.62166e-09 -2.91753e-12 0
0.00939995 4.52513e-08 0
0 -5.39536e-07 0
-1.02611e-12 -1.96689e-09 0
-7.70384e-10 -5.23527e-09 0
-1.26433e-09 -7.46266e-09 0
-5.10856e-09 -7.32351e-09 0
-1.05835e-08 -3.84398e-09 0
-1.11215e-08 -3.84303e-10 0
-6.61723e-09 3.30238e-10 0
-9.35562e-12 4.01373e-12 0
8.0153e-12 6.36015e-13 0
3.08587e-12 -9.5652e-09 0
-1.46472e-08 -2.21436e-08 0
-2.88567e-08 -1.9083e-08 0
-3.589e-08 -5.28566e-09 0
-3.41438e-08 7.57656e-09 0
-2.56024e-08 1.44684e-08 0
-1.58784e-08 1.50053e-08 0
-9.31505e-09 1.08272e-08 0
-6.10585e-09 4.6798e-09 0
-4.46597e-09 -8.30875e-10 0
-3.34995e-09 -4.40405e-09 0
-2.77776e-09 -6.0291e-09 0
-2.96871e-09 -6.27346e-09 0
-3.85275e-09 -5.73103e-09 0
-5.13486e-09 -4.83473e-09 0
-6.50469e-09 -3.85689e-09 0
-7.75341e-09 -2.95028e-09 0
-8.78598e-09 -2.18515e-09 0
-9.58686e-09 -1.57897e-09 0
-1.01817e-08 -1.11983e-09 0
-1.06106e-08 -7.83205e-10 0
-1.09136e-08 -5.42144e-10 0
-1.11248e-08 -3.72413e-10 0
-1.12706e-08 -2.54341e-10 0
-1.13707e-08 -1.7291e-10 0
-1.14392e-08 -1.17097e-10 0
-1.14859e-08 -7.90196e-11 0
-1.15178e-08 -5.31338e-11 0
-1.15395e-08 -3.55856e-11 0
-1.15543e-08 -2.37167e-11 0
-1.15644e-08 -1.57055e-11 0
-1.15715e-08 -1.03145e-11 0
-1.15764e-08 -6.71171e-12 0
-1.15799e-08 -4.34163e-12 0
-1.15823e-08 -2.84009e-12 0
-1.15838e-08 -1.98332e-12 0
-1.15847e-08 -1.66491e-12 0
-1.15855e-08 -1.90881e-12 0
-1.15863e-08 -2.96752e-12 0
-1.15875e-08 -5.01028e-12 0
0.0090133 6.25532e-08 0
0 -4.57498e-07 0
-1.23754e-12 -1.02674e-09 0
3.82986e-11 -2.90505e-09 0
-1.39304e-09 -4.46029e-09 0
-6.62004e-09 -4.69723e-09 0
-1.37708e-08 -1.22503e-09 0
-1.6473e-08 2.61906e-09 0
-1.52127e-08 -2.02296e-09 0
-9.84501e-09 -3.7523e-09 0
-8.03611e-09 -6.4558e-13 0
-7.50432e-09 -4.83754e-09 0
-1.95363e-08 -9.1718e-09 0
-3.52264e-08 -4.08532e-09 0
-4.17066e-08 4.93174e-09 0
-3.52995e-08 1.06973e-08 0
-2.11665e-08 1.05731e-08 0
-8.59228e-09 6.3657e-09 0
-3.40136e-09 1.04132e-09 0
-4.81024e-09 -3.01823e-09 0
-8.9454e-09 -4.85604e-09 0
-1.30233e-08 -4.90983e-09 0
-1.62659e-08 -4.13507e-09 0
-1.88654e-08 -3.23198e-09 0
-2.10866e-08 -2.4779e-09 0
-2.30222e-08 -1.90184e-09 0
-2.46629e-08 -1.46035e-09 0
-2.59921e-08 -1.11388e-09 0
-2.70225e-08 -8.39322e-10 0
-2.77926e-08 -6.23382e-10 0
-2.83525e-08 -4.56397e-10 0
-2.87514e-08 -3.29751e-10 0
-2.90316e-08 -2.35449e-10 0
-2.92265e-08 -1.6636e-10 0
-2.93611e-08 -1.16445e-10 0
-2.94536e-08 -8.08152e-11 0
-2.9517e-08 -5.56456e-11 0
-2.95604e-08 -3.80276e-11 0
-2.959e-08 -2.57952e-11 0
-2.96101e-08 -1.73647e-11 0
-2.96239e-08 -1.15955e-11 0
-2.96333e-08 -7.67777e-12 0
-2.96398e-08 -5.04385e-12 0
-2.96444e-08 -3.30134e-12 0
-2.96477e-08 -2.18496e-12 0
-2.96501e-08 -1.52688e-12 0
-2.96517e-08 -1.23902e-12 0
-2.96529e-08 -1.30587e-12 0
-2.96542e-08 -1.78987e-12 0
-2.96558e-08 -2.88938e-12 0
-2.96583e-08 -4.78041e-12 0
0.00798273 5.02719e-08 0
0 -4.71679e-07 0
-3.42685e-13 -1.40102e-10 0
4.88845e-10 -6.10531e-10 0
-1.59165e-09 -1.2122e-09 0
-7.69675e-09 -1.42301e-09 0
-1.5794e-08 -1.00109e-09 0
-1.9407e-08 6.4735e-10 0
-1.82565e-08 -2.77293e-10 0
-2.12047e-08 -1.89134e-09 0
-1.962e-08 -5.25636e-10 0
-1.76097e-08 1.02209e-09 0
-2.18929e-08 3.24389e-09 0
-2.69597e-08 5.10778e-09 0
-2.65516e-08 5.14703e-09 0
-1.87636e-08 3.80902e-09 0
-8.24187e-09 1.46349e-09 0
-1.88002e-09 -1.22559e-09 0
-2.69906e-09 -3.1087e-09 0
-8.39148e-09 -3.48862e-09 0
-1.49477e-08 -2.70826e-09 0
-2.00103e-08 -1.6042e-09 0
-2.32501e-08 -7.58927e-10 0
-2.52356e-08 -3.08824e-10 0
-2.65521e-08 -1.43496e-10 0
-2.75374e-08 -1.15536e-10 0
-2.83315e-08 -1.28016e-10 0
-2.89805e-08 -1.37975e-10 0
-2.95013e-08 -1.34592e-10 0
-2.99078e-08 -1.20312e-10 0
-3.02167e-08 -1.00615e-10 0
-3.04461e-08 -8.00288e-11 0
-3.06134e-08 -6.12666e-11 0
-3.07335e-08 -4.55264e-11 0
-3.08188e-08 -3.30356e-11 0
-3.08788e-08 -2.35099e-11 0
-3.09206e-08 -1.64584e-11 0
-3.09496e-08 -1.13577e-11 0
-3.09696e-08 -7.73621e-12 0
-3.09833e-08 -5.2048e-12 0
-3.09927e-08 -3.45998e-12 0
-3.09992e-08 -2.27412e-12 0
-3.10038e-08 -1.4823e-12 0
-3.10071e-08 -9.68978e-13 0
-3.10096e-08 -6.57029e-13 0
-3.10114e-08 -5.01685e-13 0
-3.10128e-08 -4.83748e-13 0
-3.1014e-08 -6.08146e-13 0
-3.10155e-08 -8.87127e-13 0
-3.10176e-08 -1.32246e-12 0
-3.10207e-08 -2.03271e-12 0
0.0055548 1.83215e-08 0
0 0 0
3.07802e-13 0 0
3.10036e-10 0 0
-7.72932e-10 0 0
-3.65801e-09 0 0
-7.58578e-09 0 0
-1.01886e-08 0 0
-9.66159e-09 0 0
-1.1362e-08 0 0
-1.15839e-08 0 0
-1.01023e-08 0 0
-8.25183e-09 0 0
-6.27803e-09 0 0
-4.3247e-09 0 0
-1.98288e-09 0 0
6.99952e-12 0 0
2.14477e-10 0 0
-1.74977e-09 0 0
-4.81243e-09 0 0
-7.60484e-09 0 0
-9.47274e-09 0 0
-1.04847e-08 0 0
-1.09765e-08 0 0
-1.12337e-08 0 0
-1.14104e-08 0 0
-1.15647e-08 0 0
-1.17082e-08 0 0
-1.18374e-08 0 0
-1.19476e-08 0 0
-1.20373e-08 0 0
-1.21074e-08 0 0
-1.21605e-08 0 0
-1.21997e-08 0 0
-1.22282e-08 0 0
-1.22485e-08 0 0
-1.22629e-08 0 0
-1.22729e-08 0 0
-1.22799e-08 0 0
-1.22846e-08 0 0
-1.22879e-08 0 0
-1.22902e-08 0 0
-1.22919e-08 0 0
-1.22931e-08 0 0
-1.22941e-08 0 0
-1.22948e-08 0 0
-1.22954e-08 0 0
-1.22959e-08 0 0
-1.22967e-08 0 0
-1.22977e-08 0 0
-1.22992e-08 0 0
0.00193264 0 0
0 0 5.2729e-07
-2.19655e-12 0 2.30137e-10
1.78069e-12 0 1.12668e-09
3.12841e-09 0 4.71359e-09
-1.20696e-08 0 1.66325e-09
6.14065e-09 0 -3.16876e-09
1.16706e-08 0 -1.23585e-09
1.19066e-08 0 -3.15488e-11
1.17156e-08 0 7.53956e-10
1.23981e-08 0 1.7405e-09
1.42109e-08 0 2.79881e-09
1.70328e-08 0 2.98442e-09
1.96405e-08 0 2.01549e-09
1.98172e-08 0 8.28434e-10
1.61501e-08 0 2.19168e-10
9.74162e-09 0 5.64197e-11
2.97137e-09 0 -4.20366e-12
-2.748e-09 0 1.38401e-11
-7.51365e-09 0 1.91992e-10
-1.19652e-08 0 4.74068e-10
-1.64153e-08 0 7.18395e-10
-2.07216e-08 0 8.28729e-10
-2.45634e-08 0 7.97176e-10
-2.76988e-08 0 6.71952e-10
-3.00562e-08 0 5.11671e-10
-3.17032e-08 0 3.58886e-10
-3.27783e-08 0 2.34572e-10
-3.34328e-08 0 1.43514e-10
-3.37999e-08 0 8.18511e-11
-3.39826e-08 0 4.27248e-11
-3.40543e-08 0 1.93637e-11
-3.40643e-08 0 6.30722e-12
-3.40436e-08 0 -3.83726e-13
-3.40107e-08 0 -3.35373e-12
-3.39758e-08 0 -4.28212e-12
-3.39441e-08 0 -4.1836e-12
-3.39173e-08 0 -3.64048e-12
-3.3896e-08 0 -2.9668e-12
-3.38797e-08 0 -2.31745e-12
-3.38675e-08 0 -1.75766e-12
-3.38587e-08 0 -1.305e-12
-3.38526e-08 0 -9.53341e-13
-3.38485e-08 0 -6.86858e-13
-3.38459e-08 0 -4.88906e-13
-3.38443e-08 0 -3.43738e-13
-3.38433e-08 0 -2.38908e-13
-3.38429e-08 0 -1.70894e-13
-3.38432e-08 0 -1.58382e-13
-3.38444e-08 0 -1.7376e-13
-3.38465e-08 0 2.83071e-13
0.00549244 0 -1.87938e-09
0.0036 -3.02652e-07 -6.15431e-08
0.0035998 -0.00138932 -2.30476e-05
0.00670832 -0.00392951 0.000108632
0.0136116 -0.00589133 -0.000514626
0.0235127 -0.0144534 -0.0042808
0.0463418 -0.0133812 -0.00488203
0.0498591 -0.00191345 -0.0016437
0.0495967 0.00265006 -0.000163001
0.0446078 0.00497607 0.000569485
0.0390013 0.00514347 0.000554233
0.0338974 0.00447585 0.000281153
0.0296047 0.00359199 3.27057e-06
0.0261961 0.00271662 -0.000191366
0.0236111 0.00194555 -0.000286416
0.021697 0.00133014 -0.000297672
0.0202782 0.000885224 -0.000252349
0.0192132 0.000590646 -0.00018011
0.0184077 0.000406055 -0.000107008
0.0178018 0.000289644 -4.96229e-05
0.0173546 0.000210839 -1.31002e-05
0.0170336 0.000152704 5.50216e-06
0.0168109 0.000107847 1.21647e-05
0.0166623 7.3407e-05 1.24301e-05
0.0165672 4.78546e-05 1.00942e-05
0.0165091 2.97341e-05 7.24485e-06
0.0164755 1.74757e-05 4.78649e-06
0.0164574 9.56232e-06 2.96585e-06
0.0164487 4.69404e-06 1.73596e-06
0.0164453 1.85687e-06 9.57696e-07
0.0164447 3.13982e-07 4.90739e-07
0.0164455 -4.41264e-07 2.24254e-07
0.0164469 -7.41498e-07 8.04315e-08
0.0164483 -7.96054e-07 8.39153e-09
0.0164496 -7.31053e-07 -2.35189e-08
0.0164506 -6.18712e-07 -3.41911e-08
0.0164515 -4.97694e-07 -3.44633e-08
0.0164522 -3.86646e-07 -3.02883e-08
0.0164527 -2.92861e-07 -2.47581e-08
0.016453 -2.17618e-07 -1.93502e-08
0.0164533 -1.5933e-07 -1.46685e-08
0.0164535 -1.15315e-07 -1.08684e-08
0.0164536 -8.27287e-08 -7.89856e-09
0.0164537 -5.90067e-08 -5.64329e-09
0.0164538 -4.20258e-08 -3.97396e-09
0.0164539 -3.01252e-08 -2.7611e-09
0.0164539 -2.20608e-08 -1.84182e-09
0.0164539 -1.6944e-08 -8.8152e-10
0.016454 -1.43892e-08 1.1658e-09
0.016454 -1.68053e-08 4.86355e-09
0.016454 -4.32205e-08 -9.16194e-10
0.0164541 -6.65807e-08 -8.89658e-09
0.01 -1.35951e-07 -1.43307e-06
0.0100007 -0.00298785 -0.00059993
0.0147857 -0.00995823 -0.000793318
0.0241733 -0.0177325 -0.00124313
0.0385592 -0.032543 -0.00334799
0.0592375 -0.0248516 -0.000819981
0.0564758 -0.00273422 0.003176
0.0559115 0.00509497 0.00338762
0.0501282 0.0100755 0.00300642
0.0446541 0.010226 0.00211167
0.0401538 0.00915075 0.00115836
0.0364456 0.00773682 0.000408513
0.0334764 0.00625976 -0.000111021
0.0312011 0.00488857 -0.000411601
0.0294618 0.00372687 -0.00051421
0.028109 0.00279771 -0.000470959
0.0270506 0.00207365 -0.000351297
0.0262359 0.00151601 -0.000217782
0.0256284 0.0010906 -0.000108931
0.0251919 0.000769638 -3.73549e-05
0.0248906 0.000530756 1.12377e-06
0.0246913 0.000356083 1.69116e-05
0.0245659 0.000231315 1.9992e-05
0.0244917 0.000144742 1.74045e-05
0.0244512 8.66443e-05 1.31776e-05
0.0244319 4.90549e-05 9.18356e-06
0.0244248 2.56851e-05 6.05267e-06
0.0244244 1.17979e-05 3.82869e-06
0.0244272 3.99238e-06 2.34332e-06
0.024431 -6.73958e-08 1.39288e-06
0.0244349 -1.92137e-06 8.04351e-07
0.0244384 -2.54627e-06 4.49981e-07
0.0244413 -2.53756e-06 2.42189e-07
0.0244436 -2.24243e-06 1.23688e-07
0.0244453 -1.85247e-06 5.82404e-08
0.0244466 -1.46536e-06 2.35311e-08
0.0244475 -1.1246e-06 6.14463e-09
0.0244482 -8.44152e-07 -1.79631e-09
0.0244487 -6.23106e-07 -4.80254e-09
0.0244491 -4.54058e-07 -5.38385e-09
0.0244493 -3.27635e-07 -4.88272e-09
0.0244495 -2.34736e-07 -3.98058e-09
0.0244496 -1.67502e-07 -3.02596e-09
0.0244497 -1.19603e-07 -2.18624e-09
0.0244498 -8.61725e-08 -1.49377e-09
0.0244498 -6.37376e-08 -8.07242e-10
0.0244499 -5.0303e-08 4.55699e-10
0.0244499 -4.83556e-08 3.18945e-09
0.02445 -6.51095e-08 6.3293e-09
0.02445 -1.17237e-07 -8.57966e-09
0.0244501 -1.55291e-07 -2.4786e-08
0.0148 -9.4575e-07 -1.72138e-06
0.0148023 -0.00529558 -0.00112721
0.020387 -0.016429 -0.00244673
0.0275566 -0.028838 -0.00394036
0.032209 -0.0462198 -0.00576983
0.0306761 -0.0285346 -0.00141907
0.0268876 -1.21443e-05 0.00329781
0.0263282 0.00706387 0.00352312
0.0298321 0.0144201 0.00343648
0.0301797 0.0138534 0.00246802
0.029377 0.0120813 0.00149627
0.028547 0.0102427 0.000653526
0.0279214 0.00836096 4.8965e-05
0.0276079 0.00659319 -0.000307478
0.0274821 0.00508666 -0.000433542
0.0274444 0.00384446 -0.000399375
0.0274518 0.00283421 -0.000287866
0.0274878 0.00203294 -0.000163994
0.0275414 0.0014198 -6.40369e-05
0.0276023 0.000966671 4.81594e-07
0.0276635 0.000640803 3.30288e-05
0.0277213 0.000411518 4.31395e-05
0.0277741 0.000253815 4.06268e-05
0.027821 0.000148399 3.28582e-05
0.0278615 8.04526e-05 2.42277e-05
0.0278952 3.85912e-05 1.67746e-05
0.0279223 1.42219e-05 1.10948e-05
0.0279435 1.08145e-06 7.08392e-06
0.0279595 -5.19865e-06 4.3938e-06
0.0279713 -7.52531e-06 2.65629e-06
0.0279798 -7.74231e-06 1.56709e-06
0.0279859 -6.96136e-06 9.0153e-07
0.0279902 -5.81453e-06 5.04353e-07
0.0279932 -4.63453e-06 2.72846e-07
0.0279952 -3.57633e-06 1.41245e-07
0.0279966 -2.69541e-06 6.85441e-08
0.0279976 -1.99565e-06 2.97754e-08
0.0279982 -1.45747e-06 1.00677e-08
0.0279987 -1.05314e-06 7.58457e-10
0.027999 -7.54738e-07 -3.08212e-09
0.0279992 -5.37577e-07 -4.18192e-09
0.0279994 -3.81389e-07 -3.99647e-09
0.0279994 -2.70293e-07 -3.29987e-09
0.0279995 -1.92316e-07 -2.48642e-09
0.0279996 -1.38753e-07 -1.63136e-09
0.0279996 -1.04114e-07 -6.00105e-10
0.0279996 -8.61035e-08 1.21316e-09
0.0279997 -8.63767e-08 3.44616e-09
0.0279997 -1.09434e-07 7.40163e-10
0.0279997 -1.49924e-07 -2.36929e-08
0.0279997 -1.72594e-07 -4.44216e-08
0.018 -1.90574e-06 -1.67131e-06
0.0180029 -0.0070005 -0.00187677
0.0207801 -0.0190035 -0.00492383
0.0207342 -0.025 -0.00633901
0.0160961 -0.0270259 -0.00762566
-1.57987e-06 -0.0140383 -0.0043347
9.5759e-05 2.58027e-05 9.09222e-07
-3.27397e-05 3.40667e-05 0.000654639
0.00657438 0.00408492 0.00144023
0.0134417 0.00927265 0.00140857
0.0168576 0.0100893 0.000997789
0.018633 0.00912296 0.00045689
0.0203274 0.00757152 -3.13818e-05
0.0220191 0.00592348 -0.000299698
0.0235441 0.00450154 -0.000364841
0.0248378 0.00331918 -0.000311347
0.0259048 0.00235257 -0.000212392
0.0267696 0.00159516 -0.000112222
0.0274553 0.00103548 -3.19912e-05
0.027984 0.000643904 2.11232e-05
0.0283802 0.000380684 4.82749e-05
0.0286705 0.000208754 5.55336e-05
0.0288798 9.979e-05 5.06964e-05
0.0290291 3.38275e-05 4.05936e-05
0.0291344 -3.20166e-06 2.97611e-05
0.0292078 -2.14256e-05 2.04647e-05
0.0292582 -2.81167e-05 1.33989e-05
0.0292924 -2.83139e-05 8.43324e-06
0.0293151 -2.53111e-05 5.13192e-06
0.0293301 -2.11093e-05 3.02788e-06
0.0293398 -1.68166e-05 1.73251e-06
0.0293461 -1.29694e-05 9.58947e-07
0.02935 -9.76563e-06 5.10192e-07
0.0293525 -7.22083e-06 2.57524e-07
0.0293541 -5.2648e-06 1.19949e-07
0.0293551 -3.79683e-06 4.80778e-08
0.0293557 -2.71474e-06 1.26223e-08
0.0293561 -1.928e-06 -3.32766e-09
0.0293563 -1.36212e-06 -9.27454e-09
0.0293565 -9.5859e-07 -1.04016e-08
0.0293566 -6.7291e-07 -9.42986e-09
0.0293566 -4.72007e-07 -7.70965e-09
0.0293567 -3.31777e-07 -5.88248e-09
0.0293567 -2.35035e-07 -4.22124e-09
0.0293567 -1.69995e-07 -2.69426e-09
0.0293567 -1.29154e-07 -1.29378e-09
0.0293567 -1.08085e-07 5.45629e-11
0.0293567 -1.02408e-07 3.6897e-10
0.0293567 -1.08883e-07 -9.23116e-09
0.0293567 -1.11047e-07 -3.73331e-08
0.0293567 -1.07063e-07 -5.62271e-08
0.0196 -2.76598e-06 -2.5215e-06
0.019601 -0.0059105 -0.00274447
0.0190575 -0.0131883 -0.00647963
0.0159444 -0.0162146 -0.00668703
0.010892 -0.0151959 -0.00668868
0.00172764 -0.00626186 -0.00504304
7.12979e-05 -6.54648e-05 -0.00130381
3.27251e-05 -3.27251e-05 -4.07024e-08
-3.21444e-05 3.3335e-05 0.000260251
0.00391538 0.00276034 0.000555533
0.00896629 0.00645912 0.000485894
0.0118828 0.00675021 0.000135292
0.0151302 0.00528424 -0.00024741
0.0182834 0.00383736 -0.000408605
0.0209838 0.00272117 -0.000400148
0.0231697 0.00183987 -0.000317722
0.0248994 0.00113489 -0.000219986
0.0262494 0.000603369 -0.000130902
0.0272816 0.000243684 -5.79868e-05
0.0280475 2.92345e-05 -4.81928e-06
0.0285964 -8.21176e-05 2.71062e-05
0.0289774 -0.000129705 4.01784e-05
0.029235 -0.000141272 4.0113e-05
0.0294053 -0.00013374 3.32968e-05
0.0295157 -0.000117029 2.45935e-05
0.0295859 -9.70475e-05 1.67094e-05
0.0296295 -7.72887e-05 1.06436e-05
0.0296561 -5.96348e-05 6.42689e-06
0.0296718 -4.48744e-05 3.69808e-06
0.0296809 -3.31045e-05 2.02747e-06
0.029686 -2.4044e-05 1.05186e-06
0.0296888 -1.72522e-05 5.06912e-07
0.0296902 -1.22631e-05 2.16556e-07
0.0296908 -8.65414e-06 7.04912e-08
0.0296911 -6.07398e-06 2.82697e-09
0.0296912 -4.24557e-06 -2.42181e-08
0.0296912 -2.95852e-06 -3.14805e-08
0.0296911 -2.05711e-06 -2.99844e-08
0.0296911 -1.42825e-06 -2.52789e-08
0.029691 -9.90903e-07 -1.99716e-08
0.029691 -6.87632e-07 -1.51441e-08
0.0296909 -4.78028e-07 -1.11212e-08
0.0296909 -3.3391e-07 -7.91815e-09
0.0296909 -2.35832e-07 -5.46947e-09
0.0296909 -1.70476e-07 -3.67693e-09
0.0296909 -1.282e-07 -2.63596e-09
0.0296909 -1.01255e-07 -2.58311e-09
0.0296908 -8.13929e-08 -3.93291e-09
0.0296908 -6.06334e-08 -1.63355e-08
0.0296907 -2.2488e-08 -4.18301e-08
0.0296907 4.24143e-09 -5.60354e-08
0.0196 -1.33185e-06 -3.51742e-06
0.0195999 -0.00368942 -0.00312657
0.0187664 -0.00809831 -0.00651973
0.0175161 -0.00812649 -0.0060523
0.013193 -0.00429464 -0.0055443
0.00909502 0.0025794 -0.00533089
0.00614873 0.00315777 -0.00311316
7.14654e-05 -5.94642e-05 -0.000671109
2.73197e-05 -2.73197e-05 -1.24974e-07
-3.16182e-05 3.26707e-05 9.44991e-05
0.00271778 0.00194819 0.000359697
0.00702674 0.00305093 0.000261311
0.0123017 0.00151094 -0.000160961
0.0169397 0.000499277 -0.000345314
0.0205413 1.87879e-05 -0.000350097
0.0232214 -0.000270879 -0.000284597
0.0251909 -0.000492923 -0.00021137
0.0266224 -0.000639389 -0.000148363
0.027638 -0.000687839 -9.4331e-05
0.0283303 -0.000649825 -4.89115e-05
0.0287793 -0.000560834 -1.54716e-05
0.0290553 -0.000455451 4.13463e-06
0.0292159 -0.00035513 1.20398e-05
0.0293038 -0.0002691 1.26238e-05
0.0293483 -0.000199467 9.9793e-06
0.0293684 -0.00014518 6.71099e-06
0.0293753 -0.00010405 3.99614e-06
0.0293758 -7.36239e-05 2.12296e-06
0.0293735 -5.15659e-05 9.81317e-07
0.0293704 -3.58378e-05 3.54509e-07
0.0293674 -2.47689e-05 4.66251e-08
0.0293648 -1.70551e-05 -8.22857e-08
0.0293627 -1.17169e-05 -1.1992e-07
0.029361 -8.03984e-06 -1.16237e-07
0.0293598 -5.51426e-06 -9.7359e-08
0.0293589 -3.78226e-06 -7.56851e-08
0.0293583 -2.59525e-06 -5.63114e-08
0.0293578 -1.78184e-06 -4.0758e-08
0.0293575 -1.22438e-06 -2.89762e-08
0.0293573 -8.42329e-07 -2.03533e-08
0.0293571 -5.80595e-07 -1.41644e-08
0.029357 -4.01532e-07 -9.75698e-09
0.0293569 -2.79379e-07 -6.66462e-09
0.0293569 -1.96287e-07 -4.62546e-09
0.0293568 -1.39466e-07 -3.50644e-09
0.0293568 -9.90772e-08 -3.2941e-09
0.0293567 -6.69358e-08 -4.05263e-09
0.0293567 -3.48938e-08 -5.59023e-09
0.0293567 7.47616e-09 -1.58366e-08
0.0293566 7.33758e-08 -3.51082e-08
0.0293565 1.14001e-07 -4.50449e-08
0.018 -8.491e-07 -3.50935e-06
0.0180009 -0.0020103 -0.00304921
0.0183172 -0.00388006 -0.00615995
0.0183742 -0.00266978 -0.00528701
0.0173584 0.000629618 -0.00419717
0.0170816 0.00708015 -0.00396604
0.0178174 0.0125827 -0.00299942
0.0109446 0.0069313 -0.001493
7.29171e-05 -4.60112e-05 -0.000434971
-2.47897e-05 -5.35758e-05 5.46715e-07
7.75335e-06 -0.000703526 0.000745548
0.00828704 -0.00285063 0.00108332
0.015607 -0.00440593 0.000452604
0.020595 -0.00407557 0.000142027
0.0237643 -0.00322421 2.43309e-05
0.0257528 -0.00250504 -2.37902e-05
0.026993 -0.00200893 -5.78367e-05
0.0277399 -0.0016432 -8.51305e-05
0.0281505 -0.00132551 -9.53079e-05
0.0283358 -0.00103142 -8.53557e-05
0.028382 -0.000771183 -6.37181e-05
0.0283538 -0.00055783 -4.12445e-05
0.0282945 -0.000394046 -2.40953e-05
0.0282296 -0.00027391 -1.32713e-05
0.0281713 -0.000188307 -7.23079e-06
0.0281239 -0.000128444 -4.07765e-06
0.0280878 -8.71322e-05 -2.44431e-06
0.0280613 -5.89049e-05 -1.55442e-06
0.0280423 -3.97583e-05 -1.02641e-06
0.0280291 -2.68332e-05 -6.87303e-07
0.0280198 -1.81295e-05 -4.59122e-07
0.0280135 -1.22713e-05 -3.03374e-07
0.0280091 -8.32418e-06 -1.9768e-07
0.0280062 -5.65935e-06 -1.27015e-07
0.0280041 -3.85575e-06 -8.05899e-08
0.0280027 -2.63188e-06 -5.06016e-08
0.0280018 -1.79938e-06 -3.15174e-08
0.0280011 -1.23196e-06 -1.95212e-08
0.0280007 -8.44615e-07 -1.20518e-08
0.0280003 -5.79956e-07 -7.4324e-09
0.0280001 -3.99071e-07 -4.58679e-09
0.028 -2.75406e-07 -2.84257e-09
0.0279999 -1.906e-07 -1.83734e-09
0.0279998 -1.3166e-07 -1.40176e-09
0.0279997 -8.90589e-08 -1.42654e-09
0.0279997 -5.53458e-08 -1.82587e-09
0.0279997 -2.40205e-08 -2.52659e-09
0.0279996 1.15464e-08 -3.23992e-09
0.0279996 6.189e-08 -8.45675e-09
0.0279996 1.3403e-07 -2.07613e-08
0.0279996 1.75551e-07 -2.81493e-08
0.0148 -4.76643e-07 -3.10913e-06
0.0148015 -0.00103595 -0.00282856
0.0162311 -0.00164495 -0.00542479
0.0177975 -2.69323e-05 -0.00429166
0.0191262 0.00318007 -0.0030715
0.0208692 0.0073591 -0.00285017
0.0246855 0.0129795 -0.00241193
0.0279783 0.0195151 -0.00151352
0.0230041 0.0112971 -0.00034204
0.0234547 6.59139e-12 0.000625465
0.0265987 -0.00670295 0.00155862
0.0300298 -0.0130925 0.00210848
0.0308726 -0.0110295 0.00163998
0.0303128 -0.00771926 0.00114955
0.0293192 -0.00510275 0.000707383
0.0283245 -0.00339025 0.000356789
0.0274644 -0.00231456 0.000108344
0.0267556 -0.00160616 -4.39988e-05
0.0261816 -0.00110618 -0.000112855
0.0257242 -0.000744316 -0.000121301
0.0253681 -0.000489218 -9.83705e-05
0.0250985 -0.000317413 -6.76666e-05
0.0249002 -0.000205908 -4.16557e-05
0.0247583 -0.000134746 -2.3728e-05
0.0246589 -8.92481e-05 -1.27973e-05
0.0245906 -5.97891e-05 -6.63641e-06
0.0245443 -4.0418e-05 -3.3371e-06
0.0245131 -2.7505e-05 -1.62838e-06
0.0244923 -1.88056e-05 -7.63829e-07
0.0244784 -1.28999e-05 -3.35125e-07
0.0244692 -8.86829e-06 -1.27716e-07
0.0244629 -6.10519e-06 -3.12913e-08
0.0244588 -4.20621e-06 1.02506e-08
0.0244559 -2.89871e-06 2.52733e-08
0.024454 -1.9975e-06 2.80263e-08
0.0244527 -1.37607e-06 2.55842e-08
0.0244518 -9.47568e-07 2.13744e-08
0.0244512 -6.52244e-07 1.6978e-08
0.0244508 -4.48862e-07 1.30519e-08
0.0244505 -3.08916e-07 9.80115e-09
0.0244503 -2.12623e-07 7.22421e-09
0.0244502 -1.46162e-07 5.23533e-09
0.0244501 -9.97431e-08 3.70498e-09
0.0244501 -6.62707e-08 2.51461e-09
0.02445 -4.03593e-08 1.60276e-09
0.02445 -1.75649e-08 9.48584e-10
0.0244499 6.31337e-09 6.53375e-10
0.0244499 3.5278e-08 8.01972e-10
0.0244499 7.50598e-08 -2.53161e-10
0.02445 1.26402e-07 -8.25748e-09
0.02445 1.54193e-07 -1.5029e-08
0.01 -9.10479e-07 -2.81652e-06
0.0100007 -0.000634782 -0.0023034
0.0113232 -0.000712221 -0.00414316
0.0131914 0.000554259 -0.00291207
0.0156349 0.00252452 -0.00181784
0.0195455 0.00557117 -0.00182815
0.0254687 0.00836591 -0.00237311
0.0345781 0.0101214 -0.00209649
0.0462002 0.00482687 -0.000512155