# vtk DataFile Version 2.0
Tobias Weinzierl: CPU, Manycore and Cluster Computing
ASCII

DATASET STRUCTURED_POINTS
DIMENSIONS  51 11 6

ORIGIN 0 0 0 

SPACING 0.1 0.1 0.1 

POINT_DATA 3366

VECTORS velocity float
0 0 0
3.83731e-12 0 0
-6.44285e-08 0 0
-1.89728e-07 0 0
-2.81442e-07 0 0
-1.01907e-07 0 0
-2.94522e-08 0 0
5.7415e-09 0 0
4.10909e-09 0 0
-4.09131e-08 0 0
-9.52193e-08 0 0
-1.29863e-07 0 0
-1.40589e-07 0 0
-1.37679e-07 0 0
-1.31726e-07 0 0
-1.28009e-07 0 0
-1.27217e-07 0 0
-1.28204e-07 0 0
-1.29794e-07 0 0
-1.31302e-07 0 0
-1.32469e-07 0 0
-1.33267e-07 0 0
-1.33765e-07 0 0
-1.34048e-07 0 0
-1.34192e-07 0 0
-1.34251e-07 0 0
-1.34264e-07 0 0
-1.34253e-07 0 0
-1.34233e-07 0 0
-1.34211e-07 0 0
-1.3419e-07 0 0
-1.34172e-07 0 0
-1.34157e-07 0 0
-1.34145e-07 0 0
-1.34136e-07 0 0
-1.34129e-07 0 0
-1.34123e-07 0 0
-1.34119e-07 0 0
-1.34116e-07 0 0
-1.34113e-07 0 0
-1.34111e-07 0 0
-1.34109e-07 0 0
-1.34108e-07 0 0
-1.34106e-07 0 0
-1.34104e-07 0 0
-1.34103e-07 0 0
-1.34103e-07 0 0
-1.34105e-07 0 0
-1.34107e-07 0 0
-1.34116e-07 0 0
0.00246412 0 0
0 4.33907e-07 0
4.58962e-11 2.40557e-08 0
-1.09834e-07 6.11175e-08 0
-3.47717e-07 7.4007e-08 0
-4.81792e-07 5.10891e-08 0
-1.92199e-07 6.83255e-08 0
-1.04245e-07 1.11337e-07 0
-6.0302e-08 9.42512e-08 0
-2.93736e-08 7.70871e-08 0
-7.06915e-08 7.94698e-08 0
-1.49736e-07 6.78425e-08 0
-2.10611e-07 4.17631e-08 0
-2.3527e-07 1.60857e-08 0
-2.37628e-07 1.12014e-09 0
-2.36282e-07 -3.03615e-09 0
-2.39619e-07 -1.69453e-09 0
-2.47151e-07 5.09728e-10 0
-2.55864e-07 1.76051e-09 0
-2.63588e-07 2.01693e-09 0
-2.69487e-07 1.72708e-09 0
-2.73571e-07 1.26334e-09 0
-2.76196e-07 8.24096e-10 0
-2.77776e-07 4.82616e-10 0
-2.78665e-07 2.46873e-10 0
-2.79126e-07 9.86182e-11 0
-2.79336e-07 1.36445e-11 0
-2.79408e-07 -2.95887e-11 0
-2.79409e-07 -4.73755e-11 0
-2.79378e-07 -5.08806e-11 0
-2.79337e-07 -4.71984e-11 0
-2.79296e-07 -4.05359e-11 0
-2.7926e-07 -3.32059e-11 0
-2.7923e-07 -2.63552e-11 0
-2.79205e-07 -2.04568e-11 0
-2.79186e-07 -1.56206e-11 0
-2.79172e-07 -1.17794e-11 0
-2.79161e-07 -8.79376e-12 0
-2.79152e-07 -6.50774e-12 0
-2.79146e-07 -4.77484e-12 0
-2.7914e-07 -3.46862e-12 0
-2.79136e-07 -2.48463e-12 0
-2.79132e-07 -1.73805e-12 0
-2.79129e-07 -1.15998e-12 0
-2.79125e-07 -6.93166e-13 0
-2.79122e-07 -2.69791e-13 0
-2.79121e-07 2.30082e-13 0
-2.79122e-07 9.05511e-13 0
-2.79126e-07 2.06566e-12 0
-2.79135e-07 7.32906e-12 0
-2.79157e-07 2.63184e-11 0
0.00675698 -1.66914e-07 0
0 7.96594e-09 0
1.04929e-10 2.67799e-08 0
-3.62874e-08 1.63239e-08 0
-2.18081e-07 -8.61086e-08 0
-2.47839e-07 -1.29866e-07 0
-4.21504e-08 1.64229e-08 0
-1.11943e-07 1.61565e-07 0
-1.36236e-07 1.18e-07 0
-1.03474e-07 3.26192e-08 0
-9.2439e-08 6.67045e-09 0
-1.36613e-07 8.88019e-09 0
-1.80002e-07 2.82788e-08 0
-1.98912e-07 4.80375e-08 0
-1.98248e-07 5.40124e-08 0
-1.95124e-07 4.85442e-08 0
-1.98723e-07 3.90513e-08 0
-2.07943e-07 2.94655e-08 0
-2.1861e-07 2.11336e-08 0
-2.27854e-07 1.44648e-08 0
-2.34682e-07 9.46606e-09 0
-2.39221e-07 5.92343e-09 0
-2.42007e-07 3.53321e-09 0
-2.43597e-07 1.99193e-09 0
-2.44437e-07 1.04133e-09 0
-2.44835e-07 4.82155e-10 0
-2.44989e-07 1.71055e-10 0
-2.45019e-07 1.04355e-11 0
-2.44991e-07 -6.30575e-11 0
-2.44942e-07 -8.8804e-11 0
-2.4489e-07 -9.02624e-11 0
-2.44842e-07 -8.07857e-11 0
-2.44803e-07 -6.75726e-11 0
-2.44771e-07 -5.42244e-11 0
-2.44746e-07 -4.23296e-11 0
-2.44727e-07 -3.24098e-11 0
-2.44712e-07 -2.44626e-11 0
-2.44701e-07 -1.82594e-11 0
-2.44693e-07 -1.35007e-11 0
-2.44687e-07 -9.88996e-12 0
-2.44682e-07 -7.16419e-12 0
-2.44678e-07 -5.10141e-12 0
-2.44674e-07 -3.51542e-12 0
-2.44671e-07 -2.24026e-12 0
-2.44667e-07 -1.1117e-12 0
-2.44665e-07 5.38412e-14 0
-2.44664e-07 1.63923e-12 0
-2.44665e-07 4.82161e-12 0
-2.4467e-07 1.1646e-11 0
-2.44675e-07 2.2355e-11 0
-2.4469e-07 3.64057e-11 0
0.0090881 -2.56603e-07 0
0 -6.08007e-07 0
1.25632e-10 -5.71933e-09 0
2.91762e-08 -8.26802e-08 0
-1.21746e-07 -2.46754e-07 0
-1.59914e-07 -3.16699e-07 0
4.81419e-08 -1.46983e-07 0
-3.71477e-08 -7.64812e-11 0
-7.01946e-08 -4.45024e-08 0
-1.55161e-07 -1.22554e-07 0
-1.72615e-07 -1.40779e-07 0
-2.07648e-07 -8.91221e-08 0
-2.4165e-07 -8.51476e-09 0
-2.4965e-07 5.75778e-08 0
-2.31382e-07 7.99835e-08 0
-2.04511e-07 7.35461e-08 0
-1.84927e-07 5.84922e-08 0
-1.76109e-07 4.33005e-08 0
-1.74358e-07 3.02792e-08 0
-1.75443e-07 2.00441e-08 0
-1.76955e-07 1.2574e-08 0
-1.78032e-07 7.46613e-09 0
-1.78577e-07 4.16694e-09 0
-1.7874e-07 2.14482e-09 0
-1.78689e-07 9.69208e-10 0
-1.78547e-07 3.25672e-10 0
-1.78382e-07 5.71024e-13 0
-1.7823e-07 -1.43314e-10 0
-1.78103e-07 -1.8996e-10 0
-1.78002e-07 -1.88467e-10 0
-1.77925e-07 -1.66198e-10 0
-1.77868e-07 -1.37543e-10 0
-1.77825e-07 -1.09474e-10 0
-1.77794e-07 -8.49111e-11 0
-1.77771e-07 -6.46852e-11 0
-1.77755e-07 -4.86387e-11 0
-1.77742e-07 -3.62136e-11 0
-1.77733e-07 -2.67486e-11 0
-1.77727e-07 -1.96164e-11 0
-1.77722e-07 -1.42758e-11 0
-1.77718e-07 -1.02807e-11 0
-1.77714e-07 -7.26993e-12 0
-1.77711e-07 -4.94762e-12 0
-1.77708e-07 -3.05517e-12 0
-1.77705e-07 -1.30728e-12 0
-1.77702e-07 6.97692e-13 0
-1.777e-07 3.37527e-12 0
-1.77699e-07 6.75662e-12 0
-1.77699e-07 1.07078e-11 0
-1.77695e-07 1.59412e-11 0
-1.77697e-07 2.38519e-11 0
0.00969471 -2.12623e-07 0
0 -1.16766e-06 0
5.90969e-11 -5.13853e-08 0
8.15925e-09 -1.53654e-07 0
-1.514e-07 -2.20927e-07 0
-2.53414e-07 -1.82835e-07 0
-4.66066e-11 -6.4231e-08 0
-4.29886e-10 -5.06061e-10 0
4.55208e-10 -4.81851e-10 0
-8.51703e-08 -8.98741e-08 0
-2.22962e-07 -1.76843e-07 0
-2.58932e-07 -1.21234e-07 0
-2.83079e-07 -1.64895e-08 0
-2.96245e-07 5.58218e-08 0
-2.8186e-07 7.2249e-08 0
-2.46494e-07 6.00129e-08 0
-2.10291e-07 4.47655e-08 0
-1.85032e-07 3.22924e-08 0
-1.70669e-07 2.20866e-08 0
-1.63046e-07 1.39636e-08 0
-1.58809e-07 8.03358e-09 0
-1.56198e-07 4.10616e-09 0
-1.54444e-07 1.73436e-09 0
-1.53221e-07 4.29712e-10 0
-1.52366e-07 -2.09761e-10 0
-1.51775e-07 -4.67586e-10 0
-1.51373e-07 -5.24475e-10 0
-1.51104e-07 -4.86944e-10 0
-1.50926e-07 -4.13435e-10 0
-1.50808e-07 -3.33528e-10 0
-1.5073e-07 -2.60546e-10 0
-1.50678e-07 -1.99226e-10 0
-1.50643e-07 -1.50108e-10 0
-1.5062e-07 -1.11927e-10 0
-1.50604e-07 -8.28284e-11 0
-1.50593e-07 -6.09479e-11 0
-1.50586e-07 -4.46456e-11 0
-1.5058e-07 -3.25745e-11 0
-1.50576e-07 -2.36699e-11 0
-1.50573e-07 -1.71094e-11 0
-1.5057e-07 -1.22647e-11 0
-1.50568e-07 -8.65469e-12 0
-1.50565e-07 -5.90124e-12 0
-1.50563e-07 -3.69906e-12 0
-1.50559e-07 -1.8344e-12 0
-1.50556e-07 -2.20882e-13 0
-1.50553e-07 1.16858e-12 0
-1.5055e-07 2.45836e-12 0
-1.50548e-07 3.96609e-12 0
-1.50543e-07 6.474e-12 0
-1.50544e-07 1.08951e-11 0
0.00981577 -1.11737e-07 0
0 -1.04204e-06 0
1.23782e-11 -5.86928e-08 0
-2.42659e-08 -1.32311e-07 0
-1.76523e-07 -1.79052e-07 0
-3.12355e-07 -2.01198e-07 0
-1.28207e-07 -9.57848e-08 0
-4.37951e-10 4.27535e-10 0
2.99742e-11 -2.99742e-11 0
4.19663e-10 -4.92035e-10 0
-1.13008e-07 -8.16536e-08 0
-2.23091e-07 -1.20833e-07 0
-2.37401e-07 -1.03133e-08 0
-2.81679e-07 7.66508e-08 0
-3.09012e-07 8.07169e-08 0
-2.89218e-07 5.01831e-08 0
-2.44458e-07 2.59015e-08 0
-2.04818e-07 1.29348e-08 0
-1.79372e-07 5.78773e-09 0
-1.64918e-07 1.42229e-09 0
-1.56806e-07 -1.07678e-09 0
-1.52099e-07 -2.20754e-09 0
-1.4928e-07 -2.46636e-09 0
-1.47567e-07 -2.2703e-09 0
-1.46527e-07 -1.89676e-09 0
-1.45901e-07 -1.49815e-09 0
-1.45529e-07 -1.14311e-09 0
-1.4531e-07 -8.53458e-10 0
-1.45183e-07 -6.2854e-10 0
-1.4511e-07 -4.58994e-10 0
-1.45069e-07 -3.33489e-10 0
-1.45045e-07 -2.41611e-10 0
-1.45032e-07 -1.7479e-10 0
-1.45024e-07 -1.26371e-10 0
-1.4502e-07 -9.13475e-11 0
-1.45018e-07 -6.60273e-11 0
-1.45016e-07 -4.77176e-11 0
-1.45015e-07 -3.44665e-11 0
-1.45014e-07 -2.48639e-11 0
-1.45013e-07 -1.78909e-11 0
-1.45012e-07 -1.28105e-11 0
-1.45011e-07 -9.09083e-12 0
-1.45009e-07 -6.35716e-12 0
-1.45007e-07 -4.35663e-12 0
-1.45004e-07 -2.91121e-12 0
-1.45e-07 -1.88066e-12 0
-1.44997e-07 -1.18553e-12 0
-1.44995e-07 -8.57189e-13 0
-1.44994e-07 -9.23307e-13 0
-1.4499e-07 -8.90496e-13 0
-1.44992e-07 6.83562e-14 0
0.00983259 3.10885e-09 0
0 -7.34125e-07 0
2.71139e-11 -5.2992e-08 0
-2.87371e-08 -1.25407e-07 0
-1.7548e-07 -1.35814e-07 0
-3.33006e-07 -1.10672e-07 0
-2.86401e-07 -6.80766e-08 0
-8.27156e-08 -2.07856e-08 0
-4.28824e-10 4.27478e-10 0
-5.53932e-12 5.53932e-12 0
3.49646e-10 -4.91761e-10 0
-8.97114e-08 -3.47423e-08 0
-1.08302e-07 2.8447e-08 0
-1.93403e-07 1.43006e-07 0
-2.95888e-07 1.20996e-07 0
-3.19937e-07 4.9521e-08 0
-2.7583e-07 3.86544e-09 0
-2.22553e-07 -1.20546e-08 0
-1.86916e-07 -1.48241e-08 0
-1.67931e-07 -1.35455e-08 0
-1.58656e-07 -1.11521e-08 0
-1.54223e-07 -8.60682e-09 0
-1.52113e-07 -6.33941e-09 0
-1.51123e-07 -4.52084e-09 0
-1.50675e-07 -3.15917e-09 0
-1.50491e-07 -2.18356e-09 0
-1.5043e-07 -1.50293e-09 0
-1.50424e-07 -1.0349e-09 0
-1.50441e-07 -7.14999e-10 0
-1.50464e-07 -4.96429e-10 0
-1.50486e-07 -3.46625e-10 0
-1.50506e-07 -2.43419e-10 0
-1.50521e-07 -1.71874e-10 0
-1.50533e-07 -1.21952e-10 0
-1.50542e-07 -8.68959e-11 0
-1.50549e-07 -6.2131e-11 0
-1.50554e-07 -4.45417e-11 0
-1.50557e-07 -3.19891e-11 0
-1.5056e-07 -2.29943e-11 0
-1.50561e-07 -1.65281e-11 0
-1.50562e-07 -1.18718e-11 0
-1.50561e-07 -8.52296e-12 0
-1.50561e-07 -6.12838e-12 0
-1.50559e-07 -4.44124e-12 0
-1.50556e-07 -3.30205e-12 0
-1.50554e-07 -2.63441e-12 0
-1.50551e-07 -2.46007e-12 0
-1.5055e-07 -2.98133e-12 0
-1.5055e-07 -4.60901e-12 0
-1.50547e-07 -7.43543e-12 0
-1.50549e-07 -1.06567e-11 0
0.00981574 1.16712e-07 0
0 -5.20435e-07 0
3.12959e-11 -4.81062e-08 0
-4.0119e-08 -1.08595e-07 0
-1.85913e-07 -1.05973e-07 0
-3.22184e-07 -5.87006e-08 0
-3.09593e-07 -2.10002e-08 0
-1.96594e-07 -4.03961e-08 0
-9.54815e-08 -3.26253e-08 0
-4.55917e-10 3.99818e-10 0
3.30898e-10 4.27993e-10 0
-4.64906e-11 -1.2962e-08 0
-3.32588e-08 9.31131e-08 0
-6.31193e-08 2.2967e-07 0
-1.72545e-07 1.77878e-07 0
-2.61188e-07 5.42976e-08 0
-2.64897e-07 -1.7241e-08 0
-2.28894e-07 -3.47136e-08 0
-1.98186e-07 -3.12343e-08 0
-1.82285e-07 -2.36457e-08 0
-1.76212e-07 -1.66941e-08 0
-1.74694e-07 -1.13194e-08 0
-1.74851e-07 -7.48622e-09 0
-1.75451e-07 -4.88861e-09 0
-1.76052e-07 -3.18275e-09 0
-1.76532e-07 -2.0803e-09 0
-1.76885e-07 -1.37104e-09 0
-1.77135e-07 -9.13233e-10 0
-1.77309e-07 -6.15282e-10 0
-1.7743e-07 -4.19239e-10 0
-1.77514e-07 -2.88685e-10 0
-1.77573e-07 -2.0068e-10 0
-1.77613e-07 -1.40666e-10 0
-1.77642e-07 -9.93007e-11 0
-1.77662e-07 -7.0514e-11 0
-1.77676e-07 -5.03113e-11 0
-1.77685e-07 -3.60296e-11 0
-1.77692e-07 -2.58722e-11 0
-1.77697e-07 -1.8614e-11 0
-1.777e-07 -1.34113e-11 0
-1.77702e-07 -9.67863e-12 0
-1.77703e-07 -7.00846e-12 0
-1.77702e-07 -5.12098e-12 0
-1.77701e-07 -3.83516e-12 0
-1.77699e-07 -3.05695e-12 0
-1.77697e-07 -2.78138e-12 0
-1.77695e-07 -3.09971e-12 0
-1.77695e-07 -4.29712e-12 0
-1.77696e-07 -7.21631e-12 0
-1.77695e-07 -1.32961e-11 0
-1.77698e-07 -2.26642e-11 0
0.00969462 2.11756e-07 0
0 -4.60909e-07 0
4.00519e-11 -3.80456e-08 0
-6.51946e-08 -8.78381e-08 0
-2.17193e-07 -8.41548e-08 0
-3.36575e-07 -4.16001e-08 0
-3.31409e-07 1.25961e-09 0
-2.44379e-07 -1.29517e-08 0
-1.91782e-07 -9.47455e-08 0
-1.0064e-07 -7.32873e-08 0
-1.27971e-07 2.21824e-12 0
-2.54778e-07 3.85328e-08 0
-2.89332e-07 1.25444e-07 0
-1.25981e-07 1.89866e-07 0
-7.21778e-08 1.58064e-07 0
-1.68814e-07 6.22853e-08 0
-2.40757e-07 -5.67011e-09 0
-2.49138e-07 -2.75798e-08 0
-2.39667e-07 -2.57868e-08 0
-2.34672e-07 -1.83273e-08 0
-2.34777e-07 -1.18615e-08 0
-2.36844e-07 -7.45521e-09 0
-2.3906e-07 -4.67727e-09 0
-2.40827e-07 -2.9666e-09 0
-2.42087e-07 -1.91239e-09 0
-2.42941e-07 -1.2544e-09 0
-2.4351e-07 -8.36356e-10 0
-2.43886e-07 -5.65753e-10 0
-2.44136e-07 -3.87509e-10 0
-2.44304e-07 -2.68271e-10 0
-2.44417e-07 -1.87423e-10 0
-2.44494e-07 -1.31959e-10 0
-2.44547e-07 -9.352e-11 0
-2.44584e-07 -6.66424e-11 0
-2.44609e-07 -4.77031e-11 0
-2.44627e-07 -3.42682e-11 0
-2.44639e-07 -2.46842e-11 0
-2.44648e-07 -1.78156e-11 0
-2.44654e-07 -1.28764e-11 0
-2.44658e-07 -9.31825e-12 0
-2.44661e-07 -6.75757e-12 0
-2.44662e-07 -4.92804e-12 0
-2.44663e-07 -3.65079e-12 0
-2.44662e-07 -2.818e-12 0
-2.4466e-07 -2.38957e-12 0
-2.44659e-07 -2.41184e-12 0
-2.44657e-07 -3.03883e-12 0
-2.44658e-07 -4.5686e-12 0
-2.44661e-07 -8.03432e-12 0
-2.44663e-07 -1.668e-11 0
-2.44673e-07 -3.35087e-11 0
0.00908799 2.42195e-07 0
0 -4.8809e-07 0
4.37838e-11 -2.0063e-08 0
-8.74927e-08 -4.7785e-08 0
-2.30459e-07 -4.47389e-08 0
-3.26057e-07 -2.35752e-08 0
-3.40574e-07 -1.85904e-08 0
-2.8742e-07 -4.04176e-08 0
-2.52351e-07 -8.89419e-08 0
-2.77289e-07 -5.22486e-08 0
-2.67057e-07 9.97587e-08 0
-3.13218e-07 1.82534e-07 0
-2.70739e-07 9.66731e-08 0
-1.37033e-07 -4.32225e-08 0
-1.04548e-07 -9.55039e-08 0
-2.03539e-07 -6.45084e-08 0
-2.80924e-07 -1.44002e-08 0
-2.93774e-07 1.18364e-08 0
-2.84093e-07 1.44637e-08 0
-2.76479e-07 9.06065e-09 0
-2.73876e-07 4.14505e-09 0
-2.73979e-07 1.36127e-09 0
-2.74978e-07 1.20201e-10 0
-2.76051e-07 -3.15766e-10 0
-2.76934e-07 -4.01848e-10 0
-2.77589e-07 -3.6113e-10 0
-2.78055e-07 -2.88393e-10 0
-2.7838e-07 -2.18521e-10 0
-2.78606e-07 -1.61442e-10 0
-2.78762e-07 -1.17824e-10 0
-2.7887e-07 -8.5515e-11 0
-2.78946e-07 -6.1935e-11 0
-2.78999e-07 -4.48404e-11 0
-2.79037e-07 -3.24777e-11 0
-2.79063e-07 -2.35396e-11 0
-2.79082e-07 -1.70723e-11 0
-2.79095e-07 -1.23869e-11 0
-2.79104e-07 -8.98841e-12 0
-2.79111e-07 -6.5215e-12 0
-2.79115e-07 -4.73183e-12 0
-2.79118e-07 -3.4383e-12 0
-2.7912e-07 -2.51419e-12 0
-2.7912e-07 -1.87511e-12 0
-2.7912e-07 -1.47364e-12 0
-2.79118e-07 -1.30051e-12 0
-2.79117e-07 -1.39942e-12 0
-2.79116e-07 -1.902e-12 0
-2.79118e-07 -3.05032e-12 0
-2.79122e-07 -5.53688e-12 0
-2.79129e-07 -1.22455e-11 0
-2.7915e-07 -2.80417e-11 0
0.00675698 1.4343e-07 0
0 0 0
2.39573e-11 0 0
-4.60465e-08 0 0
-1.10476e-07 0 0
-1.50026e-07 0 0
-1.60516e-07 0 0
-1.56926e-07 0 0
-1.56049e-07 0 0
-1.76678e-07 0 0
-1.39105e-07 0 0
-5.84874e-08 0 0
-3.08295e-09 0 0
-1.16216e-08 0 0
-6.92618e-08 0 0
-1.32643e-07 0 0
-1.61216e-07 0 0
-1.58864e-07 0 0
-1.47807e-07 0 0
-1.39416e-07 0 0
-1.3511e-07 0 0
-1.33421e-07 0 0
-1.3299e-07 0 0
-1.33051e-07 0 0
-1.33253e-07 0 0
-1.33462e-07 0 0
-1.33634e-07 0 0
-1.33766e-07 0 0
-1.33863e-07 0 0
-1.33933e-07 0 0
-1.33983e-07 0 0
-1.34018e-07 0 0
-1.34044e-07 0 0
-1.34062e-07 0 0
-1.34075e-07 0 0
-1.34084e-07 0 0
-1.34091e-07 0 0
-1.34095e-07 0 0
-1.34099e-07 0 0
-1.34101e-07 0 0
-1.34102e-07 0 0
-1.34103e-07 0 0
-1.34103e-07 0 0
-1.34103e-07 0 0
-1.34102e-07 0 0
-1.34102e-07 0 0
-1.34102e-07 0 0
-1.34103e-07 0 0
-1.34105e-07 0 0
-1.3411e-07 0 0
-1.34123e-07 0 0
0.00246417 0 0
0 0 5.43582e-07
7.16554e-11 0 4.03528e-08
-1.03148e-07 0 1.28604e-07
-3.81542e-07 0 1.43008e-07
-7.67106e-07 0 -1.389e-07
-2.57629e-07 0 -3.20302e-07
-1.84122e-08 0 -2.18971e-07
1.12717e-07 0 -1.278e-07
1.49359e-07 0 -3.04184e-08
8.9416e-08 0 1.98744e-08
-1.4247e-08 0 2.11227e-08
-1.0832e-07 0 3.61936e-09
-1.70611e-07 0 -8.26173e-09
-2.04895e-07 0 -9.9814e-09
-2.23468e-07 0 -6.63723e-09
-2.36506e-07 0 -2.82026e-09
-2.48102e-07 0 -3.19008e-10
-2.58456e-07 0 8.14082e-10
-2.669e-07 0 1.08123e-09
-2.73179e-07 0 9.51169e-10
-2.77501e-07 0 7.07089e-10
-2.80291e-07 0 4.77688e-10
-2.8199e-07 0 3.03079e-10
-2.82963e-07 0 1.83834e-10
-2.83482e-07 0 1.07715e-10
-2.8373e-07 0 6.13486e-11
-2.83826e-07 0 3.40815e-11
-2.83841e-07 0 1.84957e-11
-2.83819e-07 0 9.80346e-12
-2.83782e-07 0 5.0655e-12
-2.83743e-07 0 2.5417e-12
-2.83708e-07 0 1.23036e-12
-2.83678e-07 0 5.68358e-13
-2.83653e-07 0 2.45972e-13
-2.83634e-07 0 9.65268e-14
-2.83619e-07 0 3.24174e-14
-2.83608e-07 0 8.96031e-15
-2.83599e-07 0 4.44148e-15
-2.83592e-07 0 9.43289e-15
-2.83587e-07 0 2.1332e-14
-2.83582e-07 0 4.1972e-14
-2.83578e-07 0 7.74479e-14
-2.83575e-07 0 1.38591e-13
-2.83571e-07 0 2.40703e-13
-2.83568e-07 0 4.17749e-13
-2.83566e-07 0 7.37024e-13
-2.83567e-07 0 1.12705e-12
-2.83571e-07 0 1.43742e-12
-2.83579e-07 0 4.60839e-12
-2.83601e-07 0 2.04447e-11
0.00674216 0 -1.01539e-07
0.0036 -1.0919e-07 6.7017e-08
0.00359978 -0.0013357 -6.53078e-05
0.00698501 -0.00425103 -0.000554474
0.0143914 -0.00765681 -0.00226125
0.0257291 -0.0139201 -0.00515849
0.0463036 -0.0107269 -0.00444671
0.0491297 -0.000822171 -0.0011922
0.0486013 0.00324696 0.000325028
0.0433514 0.005325 0.000860969
0.0376996 0.00522772 0.000522217
0.0326755 0.00427706 2.98575e-08
0.0285107 0.00315439 -0.000326396
0.0253035 0.00215948 -0.000391272
0.0230198 0.00140889 -0.000299913
0.0214853 0.000902328 -0.000176965
0.020489 0.000576804 -8.53661e-05
0.0198577 0.00036731 -3.36935e-05
0.0194667 0.000231091 -9.68166e-06
0.01923 0.000142788 -4.50687e-07
0.0190899 8.64198e-05 2.15561e-06
0.019009 5.11802e-05 2.2738e-06
0.0189635 2.9631e-05 1.70005e-06
0.0189386 1.67395e-05 1.09566e-06
0.0189254 9.19427e-06 6.42136e-07
0.0189189 4.87731e-06 3.47262e-07
0.0189158 2.46803e-06 1.71722e-07
0.0189146 1.16206e-06 7.42656e-08
0.0189142 4.79867e-07 2.38179e-08
0.0189143 1.41524e-07 -4.97682e-11
0.0189146 -1.29693e-08 -9.73839e-09
0.0189148 -7.29973e-08 -1.2352e-08
0.0189151 -8.72177e-08 -1.17613e-08
0.0189153 -8.12815e-08 -9.96618e-09
0.0189154 -6.81399e-08 -7.931e-09
0.0189155 -5.39203e-08 -6.07239e-09
0.0189156 -4.12079e-08 -4.53229e-09
0.0189157 -3.08358e-08 -3.3253e-09
0.0189157 -2.28359e-08 -2.41526e-09
0.0189158 -1.69263e-08 -1.75404e-09
0.0189158 -1.27502e-08 -1.30204e-09
0.0189158 -9.98594e-09 -1.04117e-09
0.0189158 -8.39519e-09 -9.86567e-10
0.0189158 -7.85334e-09 -1.20644e-09
0.0189159 -8.37194e-09 -1.83308e-09
0.0189159 -1.00739e-08 -2.98186e-09
0.0189159 -1.36019e-08 -4.94094e-09
0.0189159 -2.05733e-08 -7.66455e-09
0.018916 -3.10688e-08 -4.72287e-09
0.0189162 -8.0315e-08 -1.51574e-08
0.0189165 -3.13428e-07 -1.66058e-07
0.0189169 -5.03239e-07 -3.02149e-07
0.01 -6.6974e-08 -1.19781e-06
0.010001 -0.0031799 -0.000528778
0.0150101 -0.0104007 -0.00127394
0.0240341 -0.0183457 -0.00284022
0.0372343 -0.0301217 -0.0042545
0.0567688 -0.0211709 -0.0011955
0.0548452 -0.00150745 0.00211539
0.0549526 0.00576919 0.0024661
0.0494309 0.0106619 0.0022772
0.0438827 0.0106388 0.00130538
0.0391539 0.00938685 0.000229203
0.0350743 0.00766166 -0.00041899
0.0318517 0.00574443 -0.000592965
0.0295984 0.00398491 -0.000479925
0.0281266 0.00261841 -0.000291494
0.0271988 0.00166438 -0.000143852
0.0266301 0.00103339 -5.83693e-05
0.0262915 0.000628455 -1.76993e-05
0.0260964 0.000374473 -1.52189e-06
0.0259878 0.000218501 3.41181e-06
0.0259298 0.000124666 3.9524e-06
0.0259002 6.93553e-05 3.14882e-06
0.0258861 3.74315e-05 2.17499e-06
0.0258802 1.9419e-05 1.39098e-06
0.0258784 9.51593e-06 8.47085e-07
0.0258783 4.24193e-06 4.98336e-07
0.0258791 1.55033e-06 2.85503e-07
0.02588 2.61296e-07 1.60023e-07
0.0258808 -2.91196e-07 8.79533e-08
0.0258816 -4.74428e-07 4.74363e-08
0.0258822 -4.854e-07 2.50818e-08
0.0258826 -4.26051e-07 1.29667e-08
0.0258829 -3.46501e-07 6.52142e-09
0.0258832 -2.69443e-07 3.16378e-09
0.0258834 -2.036e-07 1.4596e-09
0.0258835 -1.50977e-07 6.24618e-10
0.0258836 -1.10654e-07 2.3609e-10
0.0258836 -8.0688e-08 6.86906e-11
0.0258837 -5.90113e-08 1.62791e-12
0.0258837 -4.38165e-08 -3.54638e-11
0.0258837 -3.36974e-08 -9.66048e-11
0.0258838 -2.76877e-08 -2.40811e-10
0.0258838 -2.52904e-08 -5.5231e-10
0.0258838 -2.66512e-08 -1.17404e-09
0.0258838 -3.2779e-08 -2.10003e-09
0.0258839 -4.57294e-08 -2.82593e-09
0.0258839 -7.6117e-08 -3.45746e-09
0.025884 -1.59266e-07 -1.00496e-10
0.0258842 -3.27285e-07 -2.3795e-08
0.0258845 -5.95992e-07 -2.4766e-07
0.0258847 -7.58012e-07 -4.44111e-07
0.0148 -9.50983e-07 -1.5182e-06
0.0148024 -0.00536941 -0.00106537
0.0199121 -0.0162674 -0.00274093
0.0261232 -0.0275158 -0.0047649
0.0305116 -0.0428734 -0.00527523
0.0290322 -0.0262742 -0.000855624
0.0262048 -1.1054e-05 0.00240431
0.0262194 0.00749182 0.00246712
0.0306646 0.0155747 0.00239423
0.0309628 0.0152921 0.00146724
0.0297538 0.0133404 0.000474013
0.0285705 0.0108802 -0.000189129
0.0277689 0.00801688 -0.000408144
0.0274782 0.00539136 -0.000354888
0.0274386 0.00344112 -0.000210785
0.0274744 0.00213444 -9.00201e-05
0.0275223 0.00129498 -2.10248e-05
0.0275679 0.000767773 8.20177e-06
0.0276085 0.000443873 1.59069e-05
0.0276428 0.000249645 1.46923e-05
0.0276704 0.000136092 1.09925e-05
0.0276915 7.14098e-05 7.40897e-06
0.0277069 3.55728e-05 4.68813e-06
0.0277179 1.63377e-05 2.84259e-06
0.0277256 6.41855e-06 1.67069e-06
0.0277308 1.58578e-06 9.58305e-07
0.0277344 -5.58581e-07 5.38593e-07
0.0277368 -1.34119e-06 2.97178e-07
0.0277384 -1.47624e-06 1.6102e-07
0.0277395 -1.33551e-06 8.55443e-08
0.0277402 -1.10382e-06 4.43915e-08
0.0277407 -8.66706e-07 2.23376e-08
0.0277411 -6.58829e-07 1.07523e-08
0.0277413 -4.90048e-07 4.81876e-09
0.0277415 -3.5911e-07 1.88599e-09
0.0277416 -2.60548e-07 5.15039e-10
0.0277417 -1.87977e-07 -6.39126e-11
0.0277417 -1.35528e-07 -2.56129e-10
0.0277417 -9.83532e-08 -2.71979e-10
0.0277418 -7.27188e-08 -2.21901e-10
0.0277418 -5.5943e-08 -1.71472e-10
0.0277418 -4.63245e-08 -1.73455e-10
0.0277418 -4.31286e-08 -2.6838e-10
0.0277418 -4.67328e-08 -4.44415e-10
0.0277419 -6.01434e-08 -6.36004e-10
0.0277419 -9.22305e-08 -1.05515e-09
0.0277419 -1.53189e-07 -3.84282e-09
0.027742 -2.46063e-07 -1.00848e-08
0.0277421 -3.73725e-07 -5.63426e-08
0.0277421 -5.36272e-07 -2.99737e-07
0.0277421 -6.25413e-07 -5.00718e-07
0.018 -1.98768e-06 -1.68785e-06
0.0180026 -0.00663553 -0.00190013
0.0202575 -0.0177167 -0.00511988
0.0200227 -0.0231605 -0.00672464
0.0158461 -0.0252319 -0.00698538
-1.29634e-06 -0.0131615 -0.00348167
0.000100162 3.1542e-05 7.10168e-07
-3.74784e-05 3.93739e-05 0.000469963
0.00724836 0.00495672 0.00097231
0.015175 0.0112216 0.00084774
0.0185838 0.0118898 0.000435747
0.0201987 0.00994104 -1.70187e-05
0.0219243 0.0071242 -0.00026113
0.023691 0.0045149 -0.00026207
0.0251657 0.00272691 -0.000155723
0.0262303 0.0016193 -5.25765e-05
0.0269361 0.00094439 7.71403e-06
0.0273857 0.000534107 2.98097e-05
0.0276677 0.000289338 3.08385e-05
0.027843 0.000148221 2.41612e-05
0.0279511 7.02216e-05 1.65849e-05
0.0280173 2.91427e-05 1.05276e-05
0.0280573 8.76249e-06 6.34457e-06
0.0280813 -5.05419e-07 3.68291e-06
0.0280957 -4.08942e-06 2.07598e-06
0.0281042 -4.94364e-06 1.14098e-06
0.0281093 -4.61147e-06 6.12018e-07
0.0281123 -3.86107e-06 3.19664e-07
0.0281141 -3.0494e-06 1.61521e-07
0.0281151 -2.32364e-06 7.78676e-08
0.0281158 -1.72925e-06 3.47695e-08
0.0281162 -1.26604e-06 1.33321e-08
0.0281164 -9.16207e-07 3.21849e-09
0.0281165 -6.57547e-07 -1.13293e-09
0.0281166 -4.69202e-07 -2.66114e-09
0.0281167 -3.33662e-07 -2.88599e-09
0.0281167 -2.37108e-07 -2.571e-09
0.0281168 -1.69053e-07 -2.084e-09
0.0281168 -1.21769e-07 -1.59159e-09
0.0281168 -8.97338e-08 -1.16425e-09
0.0281168 -6.91778e-08 -8.32426e-10
0.0281168 -5.77818e-08 -6.17569e-10
0.0281168 -5.4691e-08 -5.81176e-10
0.0281168 -6.07785e-08 -8.99667e-10
0.0281168 -7.77003e-08 -1.9494e-09
0.0281168 -1.05579e-07 -5.15358e-09
0.0281168 -1.42837e-07 -1.38829e-08
0.0281168 -1.85984e-07 -2.73127e-08
0.0281168 -2.35861e-07 -8.20301e-08
0.0281167 -2.97614e-07 -3.23421e-07
0.0281166 -3.31916e-07 -5.17288e-07
0.0196 -2.57541e-06 -2.63456e-06
0.0196008 -0.00531756 -0.00273336
0.0191047 -0.0120136 -0.00658269
0.0162039 -0.0145776 -0.00708692
0.0114066 -0.0132329 -0.0066021
0.00224031 -0.00535396 -0.00430127
7.57417e-05 -6.97311e-05 -0.000934211
3.22527e-05 -3.22527e-05 -4.55003e-08
-3.65099e-05 3.84469e-05 0.000139061
0.00491206 0.00373828 0.000286539
0.011151 0.00828881 0.000228642
0.0139319 0.00765747 -2.84185e-05
0.0172452 0.00470559 -0.000286148
0.0205624 0.00230185 -0.000326634
0.0232966 0.000987049 -0.000231939
0.0252211 0.000391829 -0.000105029
0.0264387 0.000135066 -1.61043e-05
0.0271685 2.03317e-05 2.24614e-05
0.0275963 -2.94203e-05 2.94189e-05
0.0278445 -4.60705e-05 2.39139e-05
0.0279871 -4.63177e-05 1.6222e-05
0.0280682 -3.97375e-05 9.98325e-06
0.0281138 -3.14219e-05 5.77662e-06
0.0281393 -2.36894e-05 3.19744e-06
0.0281533 -1.73412e-05 1.70597e-06
0.0281609 -1.24597e-05 8.78086e-07
0.028165 -8.84652e-06 4.33268e-07
0.0281672 -6.23375e-06 2.01374e-07
0.0281683 -4.37166e-06 8.44352e-08
0.0281689 -3.05663e-06 2.79798e-08
0.0281691 -2.13324e-06 2.50602e-09
0.0281693 -1.4872e-06 -7.61294e-09
0.0281693 -1.03626e-06 -1.04734e-08
0.0281693 -7.22e-07 -1.01635e-08
0.0281693 -5.03308e-07 -8.67723e-09
0.0281693 -3.51376e-07 -6.93633e-09
0.0281693 -2.4611e-07 -5.32852e-09
0.0281693 -1.73547e-07 -3.98612e-09
0.0281693 -1.24041e-07 -2.9292e-09
0.0281693 -9.10032e-08 -2.14092e-09
0.0281693 -7.00503e-08 -1.61471e-09
0.0281693 -5.84195e-08 -1.39525e-09
0.0281692 -5.43457e-08 -1.65078e-09
0.0281692 -5.62562e-08 -2.81147e-09
0.0281692 -6.22792e-08 -5.48719e-09
0.0281692 -6.99098e-08 -1.07119e-08
0.0281692 -7.54132e-08 -2.12712e-08
0.0281691 -7.18135e-08 -3.55767e-08
0.0281691 -5.19861e-08 -9.02896e-08
0.028169 -1.80516e-08 -3.28332e-07
0.0281688 1.31107e-09 -5.18898e-07
0.0196 -1.2708e-06 -3.52653e-06
0.0196001 -0.00325061 -0.00307496
0.019017 -0.00687243 -0.00664493
0.0177353 -0.00650393 -0.0066291
0.013971 -0.00281535 -0.00572564
0.0101166 0.00340608 -0.0044426
0.0064867 0.0033406 -0.00217804
7.57998e-05 -6.36623e-05 -0.000405626
2.71524e-05 -2.71524e-05 -1.30248e-07
-3.54107e-05 3.76091e-05 3.89774e-05
0.00372609 0.00283668 0.00033947
0.00834708 0.00391965 0.00037943
0.0138182 0.000685406 -4.42052e-05
0.0187721 -0.00133317 -0.00033141
0.0225943 -0.00178912 -0.000371854
0.0251019 -0.00145588 -0.000242708
0.0265407 -0.000988515 -0.000101791
0.0273079 -0.000632358 -2.21691e-05
0.0277066 -0.000400545 6.35835e-06
0.0279122 -0.000254132 1.10863e-05
0.0280174 -0.000161343 8.6062e-06
0.0280706 -0.00010238 5.34946e-06
0.0280969 -6.49937e-05 2.96676e-06
0.0281095 -4.13648e-05 1.51773e-06
0.0281153 -2.64515e-05 7.17697e-07
0.0281177 -1.70248e-05 3.04706e-07
0.0281184 -1.10407e-05 1.04294e-07
0.0281185 -7.2177e-06 1.42e-08
0.0281183 -4.75629e-06 -2.1434e-08
0.028118 -3.15812e-06 -3.16784e-08
0.0281178 -2.11157e-06 -3.10518e-08
0.0281175 -1.42063e-06 -2.64907e-08
0.0281173 -9.61053e-07 -2.11147e-08
0.0281172 -6.5337e-07 -1.61881e-08
0.0281171 -4.46277e-07 -1.21137e-08
0.028117 -3.06352e-07 -8.92132e-09
0.0281169 -2.11639e-07 -6.50142e-09
0.0281169 -1.47614e-07 -4.71147e-09
0.0281169 -1.0462e-07 -3.42429e-09
0.0281168 -7.62065e-08 -2.55292e-09
0.0281168 -5.79969e-08 -2.07314e-09
0.0281168 -4.686e-08 -2.05264e-09
0.0281168 -4.02918e-08 -2.6797e-09
0.0281168 -3.59111e-08 -4.27919e-09
0.0281168 -3.09065e-08 -7.2353e-09
0.0281167 -2.14298e-08 -1.24174e-08
0.0281167 -1.64196e-09 -2.27404e-08
0.0281167 4.00341e-08 -3.61872e-08
0.0281166 1.23239e-07 -8.68214e-08
0.0281166 2.55984e-07 -3.20574e-07
0.0281164 3.33851e-07 -5.10195e-07
0.018 -7.96065e-07 -3.45953e-06
0.018001 -0.00160407 -0.00301701
0.0184944 -0.00275314 -0.00630774
0.0188639 -0.00117442 -0.00586647
0.0182988 0.00189314 -0.00465951
0.0182571 0.00765077 -0.0035818
0.0187979 0.0127006 -0.00214226
0.0115878 0.00696756 -0.000959308
7.75424e-05 -4.97823e-05 -0.000311399
-2.8493e-05 -5.72362e-05 5.38199e-07
7.83439e-06 -0.000200045 0.000853688
0.00938878 -0.0025511 0.00136396
0.0170971 -0.00559434 0.000672113
0.0219785 -0.00620713 4.79529e-05
0.0248899 -0.00508553 -0.000301816
0.0265134 -0.00339313 -0.000319954
0.027308 -0.00200128 -0.000195988
0.0276428 -0.00112727 -8.98432e-05
0.0277622 -0.000634701 -3.4616e-05
0.0277931 -0.000361995 -1.20543e-05
0.0277922 -0.000209004 -4.03952e-06
0.0277825 -0.000121913 -1.42678e-06
0.0277721 -7.18218e-05 -6.10638e-07
0.0277635 -4.27702e-05 -3.45494e-07
0.0277571 -2.57728e-05 -2.38899e-07
0.0277525 -1.57275e-05 -1.77847e-07
0.0277492 -9.72249e-06 -1.3323e-07
0.027747 -6.08796e-06 -9.83627e-08
0.0277454 -3.8595e-06 -7.14168e-08
0.0277443 -2.47525e-06 -5.11616e-08
0.0277436 -1.60442e-06 -3.63132e-08
0.027743 -1.04995e-06 -2.56285e-08
0.0277427 -6.92992e-07 -1.80347e-08
0.0277424 -4.60922e-07 -1.26788e-08
0.0277422 -3.08784e-07 -8.91747e-09
0.0277421 -2.08397e-07 -6.28342e-09
0.027742 -1.41881e-07 -4.44572e-09
0.027742 -9.77548e-08 -3.17691e-09
0.0277419 -6.85488e-08 -2.32949e-09
0.0277419 -4.92977e-08 -1.8236e-09
0.0277419 -3.65627e-08 -1.64334e-09
0.0277418 -2.77549e-08 -1.83841e-09
0.0277418 -2.06027e-08 -2.54587e-09
0.0277418 -1.26573e-08 -4.02762e-09
0.0277418 -6.98637e-10 -6.57848e-09
0.0277418 2.00638e-08 -1.09082e-08
0.0277418 5.69014e-08 -1.98685e-08
0.0277417 1.2436e-07 -3.08237e-08
0.0277417 2.58366e-07 -7.19502e-08
0.0277418 4.86457e-07 -2.94784e-07
0.0277417 6.24508e-07 -4.81301e-07
0.0148 -4.73595e-07 -3.00626e-06
0.0148015 -0.00069896 -0.00281198
0.0165106 -0.000688814 -0.00564724
0.0186651 0.0012327 -0.004908
0.0206927 0.00417458 -0.00363059
0.0228071 0.00761221 -0.00284555
0.0263875 0.0127335 -0.00198684
0.0294848 0.019851 -0.00108699
0.0240052 0.0117782 -0.00014192
0.0244005 5.07869e-11 0.000568606
0.0280101 -0.00696957 0.00151365
0.0326976 -0.0137983 0.00235963
0.0338359 -0.0121058 0.00201016
0.0324039 -0.00899215 0.00106803
0.0302328 -0.00605128 6.88643e-05
0.0284786 -0.00364125 -0.000372778
0.0273692 -0.00198439 -0.000346512
0.0267299 -0.00102749 -0.000200011
0.0263696 -0.000529059 -9.40976e-05
0.0261658 -0.000277266 -4.02405e-05
0.0260497 -0.000148845 -1.64948e-05
0.0259827 -8.18179e-05 -6.66561e-06
0.0259436 -4.59542e-05 -2.70164e-06
0.0259205 -2.63158e-05 -1.11147e-06
0.0259067 -1.53354e-05 -4.67603e-07
0.0258982 -9.07982e-06 -2.01379e-07
0.025893 -5.45526e-06 -8.80413e-08
0.0258898 -3.32233e-06 -3.825e-08
0.0258877 -2.04897e-06 -1.58205e-08
0.0258864 -1.27843e-06 -5.63159e-09
0.0258855 -8.06212e-07 -1.10114e-09
0.025885 -5.13374e-07 7.65019e-10
0.0258846 -3.29799e-07 1.38247e-09
0.0258843 -2.13608e-07 1.43731e-09
0.0258842 -1.39466e-07 1.26284e-09
0.025884 -9.18573e-08 1.01622e-09
0.025884 -6.11598e-08 7.64913e-10
0.0258839 -4.13215e-08 5.29468e-10
0.0258839 -2.84581e-08 3.04033e-10
0.0258838 -1.99832e-08 6.36918e-11
0.0258838 -1.40376e-08 -2.37878e-10
0.0258838 -9.07833e-09 -6.78286e-10
0.0258838 -3.52486e-09 -1.38833e-09
0.0258838 4.6049e-09 -2.58725e-09
0.0258838 1.81708e-08 -4.50874e-09
0.0258838 4.1898e-08 -7.63193e-09
0.0258838 8.3543e-08 -1.40925e-08
0.0258838 1.56782e-07 -2.14205e-08
0.0258839 3.06722e-07 -5.09871e-08
0.0258841 5.80636e-07 -2.49548e-07
0.0258843 7.51421e-07 -4.21426e-07
0.01 -9.19416e-07 -2.68023e-06
0.0100007 -0.000432034 -0.0023456
0.0117744 -0.000183609 -0.00443319
0.0144846 0.00117378 -0.003468