# vtk DataFile Version 2.0
Tobias Weinzierl: CPU, Manycore and Cluster Computing
ASCII

DATASET STRUCTURED_POINTS
DIMENSIONS  51 11 6

ORIGIN 0 0 0 

SPACING 0.1 0.1 0.1 

POINT_DATA 3366

VECTORS velocity float
0 0 0
3.00334e-11 0 0
-2.86137e-08 0 0
-1.22107e-07 0 0
-2.23608e-07 0 0
-9.01283e-08 0 0
-3.95843e-08 0 0
-6.65125e-09 0 0
9.31785e-09 0 0
-1.03084e-08 0 0
-5.11455e-08 0 0
-8.71199e-08 0 0
-1.0485e-07 0 0
-1.07044e-07 0 0
-1.02746e-07 0 0
-9.87469e-08 0 0
-9.72548e-08 0 0
-9.77702e-08 0 0
-9.91838e-08 0 0
-1.007e-07 0 0
-1.01948e-07 0 0
-1.02839e-07 0 0
-1.03412e-07 0 0
-1.03747e-07 0 0
-1.03922e-07 0 0
-1.03998e-07 0 0
-1.04016e-07 0 0
-1.04005e-07 0 0
-1.03982e-07 0 0
-1.03954e-07 0 0
-1.03927e-07 0 0
-1.03904e-07 0 0
-1.03884e-07 0 0
-1.03867e-07 0 0
-1.03854e-07 0 0
-1.03843e-07 0 0
-1.03834e-07 0 0
-1.03827e-07 0 0
-1.0382e-07 0 0
-1.03815e-07 0 0
-1.03811e-07 0 0
-1.03807e-07 0 0
-1.03804e-07 0 0
-1.03802e-07 0 0
-1.038e-07 0 0
-1.03798e-07 0 0
-1.03797e-07 0 0
-1.03796e-07 0 0
-1.03795e-07 0 0
-1.03799e-07 0 0
0.00235179 0 0
0 4.17985e-07 0
7.90192e-11 4.8513e-09 0
-4.42219e-08 2.66428e-08 0
-2.14414e-07 5.12344e-08 0
-3.65767e-07 3.13535e-08 0
-1.53006e-07 4.91572e-08 0
-1.01606e-07 1.00123e-07 0
-7.16102e-08 8.3054e-08 0
-3.05449e-08 5.8147e-08 0
-3.58337e-08 5.90847e-08 0
-8.74784e-08 5.86951e-08 0
-1.45114e-07 4.43082e-08 0
-1.78344e-07 2.24269e-08 0
-1.86348e-07 5.29268e-09 0
-1.84748e-07 -1.92372e-09 0
-1.85416e-07 -2.11849e-09 0
-1.90718e-07 -1.25689e-10 0
-1.98375e-07 1.40051e-09 0
-2.05908e-07 1.93343e-09 0
-2.12031e-07 1.79599e-09 0
-2.16448e-07 1.38334e-09 0
-2.19373e-07 9.40657e-10 0
-2.21174e-07 5.74722e-10 0
-2.22207e-07 3.11285e-10 0
-2.22749e-07 1.39556e-10 0
-2.22996e-07 3.73042e-11 0
-2.23079e-07 -1.74829e-11 0
-2.23076e-07 -4.23889e-11 0
-2.23034e-07 -4.99191e-11 0
-2.22978e-07 -4.8265e-11 0
-2.22923e-07 -4.24273e-11 0
-2.22873e-07 -3.52483e-11 0
-2.2283e-07 -2.82075e-11 0
-2.22795e-07 -2.19755e-11 0
-2.22766e-07 -1.67735e-11 0
-2.22743e-07 -1.25928e-11 0
-2.22724e-07 -9.32064e-12 0
-2.22708e-07 -6.80927e-12 0
-2.22695e-07 -4.91037e-12 0
-2.22684e-07 -3.49044e-12 0
-2.22675e-07 -2.43602e-12 0
-2.22668e-07 -1.65336e-12 0
-2.22662e-07 -1.06571e-12 0
-2.22657e-07 -6.12157e-13 0
-2.22653e-07 -2.34804e-13 0
-2.2265e-07 1.68747e-13 0
-2.22649e-07 7.00105e-13 0
-2.22648e-07 1.5134e-12 0
-2.2265e-07 5.17357e-12 0
-2.22661e-07 1.90733e-11 0
0.00651969 -1.337e-07 0
0 -4.65733e-09 0
1.05236e-10 5.83795e-09 0
7.5417e-09 -1.23363e-08 0
-1.06653e-07 -9.20935e-08 0
-1.61942e-07 -1.58241e-07 0
-5.50981e-09 -3.84496e-08 0
-8.36429e-08 1.25004e-07 0
-1.23076e-07 1.13987e-07 0
-9.94178e-08 4.75014e-08 0
-7.06997e-08 1.51977e-08 0
-9.20857e-08 4.92761e-09 0
-1.32259e-07 1.36862e-08 0
-1.58824e-07 3.10707e-08 0
-1.63069e-07 4.17979e-08 0
-1.58447e-07 4.21201e-08 0
-1.5783e-07 3.64908e-08 0
-1.63603e-07 2.8984e-08 0
-1.72563e-07 2.16146e-08 0
-1.81385e-07 1.5264e-08 0
-1.88402e-07 1.02513e-08 0
-1.93296e-07 6.55959e-09 0
-1.96399e-07 3.99277e-09 0
-1.98211e-07 2.29598e-09 0
-1.9918e-07 1.22652e-09 0
-1.9964e-07 5.84709e-10 0
-1.99812e-07 2.2046e-10 0
-1.99835e-07 2.81768e-11 0
-1.99788e-07 -6.25623e-11 0
-1.99717e-07 -9.65428e-11 0
-1.99642e-07 -1.00984e-10 0
-1.99574e-07 -9.16719e-11 0
-1.99516e-07 -7.72841e-11 0
-1.99469e-07 -6.2263e-11 0
-1.99431e-07 -4.86438e-11 0
-1.994e-07 -3.71627e-11 0
-1.99376e-07 -2.79019e-11 0
-1.99357e-07 -2.06485e-11 0
-1.99341e-07 -1.50844e-11 0
-1.99328e-07 -1.08799e-11 0
-1.99317e-07 -7.73472e-12 0
-1.99308e-07 -5.39165e-12 0
-1.99301e-07 -3.63549e-12 0
-1.99295e-07 -2.28046e-12 0
-1.9929e-07 -1.15117e-12 0
-1.99287e-07 -7.3893e-14 0
-1.99284e-07 1.23633e-12 0
-1.99283e-07 3.70523e-12 0
-1.99283e-07 9.09806e-12 0
-1.99283e-07 1.77595e-11 0
-1.99289e-07 2.89088e-11 0
0.00887785 -2.19139e-07 0
0 -6.18132e-07 0
1.06205e-10 -1.62645e-08 0
5.14017e-08 -8.3494e-08 0
-3.35922e-08 -2.09188e-07 0
-1.00077e-07 -2.83426e-07 0
5.73681e-08 -1.41592e-07 0
-2.16021e-08 -1.51772e-10 0
-5.81185e-08 -2.87956e-08 0
-1.21946e-07 -8.72552e-08 0
-1.26311e-07 -1.13221e-07 0
-1.49291e-07 -8.67838e-08 0
-1.86483e-07 -2.77655e-08 0
-2.06088e-07 3.28458e-08 0
-1.98465e-07 6.2668e-08 0
-1.75584e-07 6.44276e-08 0
-1.54357e-07 5.43745e-08 0
-1.42259e-07 4.19809e-08 0
-1.38107e-07 3.04621e-08 0
-1.3806e-07 2.08477e-08 0
-1.39232e-07 1.34606e-08 0
-1.40289e-07 8.18914e-09 0
-1.40885e-07 4.66464e-09 0
-1.41077e-07 2.44302e-09 0
-1.41021e-07 1.12128e-09 0
-1.40847e-07 3.83566e-10 0
-1.4064e-07 4.45795e-12 0
-1.40443e-07 -1.66238e-10 0
-1.40275e-07 -2.23092e-10 0
-1.40139e-07 -2.22661e-10 0
-1.40032e-07 -1.97047e-10 0
-1.39951e-07 -1.63391e-10 0
-1.39889e-07 -1.30123e-10 0
-1.39841e-07 -1.00841e-10 0
-1.39805e-07 -7.66293e-11 0
-1.39778e-07 -5.73624e-11 0
-1.39756e-07 -4.24177e-11 0
-1.39739e-07 -3.10331e-11 0
-1.39725e-07 -2.24747e-11 0
-1.39714e-07 -1.61023e-11 0
-1.39704e-07 -1.13839e-11 0
-1.39696e-07 -7.88701e-12 0
-1.39689e-07 -5.2591e-12 0
-1.39683e-07 -3.20434e-12 0
-1.39679e-07 -1.42916e-12 0
-1.39675e-07 4.66743e-13 0
-1.39672e-07 2.95058e-12 0
-1.3967e-07 6.11628e-12 0
-1.39666e-07 9.67316e-12 0
-1.39658e-07 1.39205e-11 0
-1.39655e-07 1.9903e-11 0
0.00954447 -1.88036e-07 0
0 -1.18533e-06 0
4.54266e-11 -4.81152e-08 0
2.52461e-08 -1.35395e-07 0
-7.1798e-08 -1.83851e-07 0
-1.77559e-07 -1.49443e-07 0
-8.41152e-11 -5.30112e-08 0
-2.33568e-10 -5.03038e-10 0
3.39774e-10 -4.33697e-10 0
-6.23911e-08 -6.91361e-08 0
-1.70359e-07 -1.46214e-07 0
-2.0384e-07 -1.17135e-07 0
-2.28075e-07 -3.48932e-08 0
-2.45225e-07 3.52452e-08 0
-2.40345e-07 6.14045e-08 0
-2.13759e-07 5.56884e-08 0
-1.79992e-07 4.23547e-08 0
-1.52852e-07 3.07935e-08 0
-1.36043e-07 2.1516e-08 0
-1.26882e-07 1.40084e-08 0
-1.21908e-07 8.27844e-09 0
-1.18952e-07 4.30189e-09 0
-1.16998e-07 1.80534e-09 0
-1.15623e-07 3.92167e-10 0
-1.14639e-07 -3.12513e-10 0
-1.1394e-07 -5.96211e-10 0
-1.13451e-07 -6.52768e-10 0
-1.13113e-07 -6.0107e-10 0
-1.12883e-07 -5.08202e-10 0
-1.12725e-07 -4.08756e-10 0
-1.12617e-07 -3.18449e-10 0
-1.12543e-07 -2.42815e-10 0
-1.1249e-07 -1.82369e-10 0
-1.12453e-07 -1.35459e-10 0
-1.12426e-07 -9.97535e-11 0
-1.12405e-07 -7.29348e-11 0
-1.12389e-07 -5.29815e-11 0
-1.12376e-07 -3.82413e-11 0
-1.12365e-07 -2.74117e-11 0
-1.12356e-07 -1.94863e-11 0
-1.12348e-07 -1.36945e-11 0
-1.12341e-07 -9.44624e-12 0
-1.12335e-07 -6.27934e-12 0
-1.1233e-07 -3.81615e-12 0
-1.12326e-07 -1.77012e-12 0
-1.12322e-07 -5.29132e-15 0
-1.12318e-07 1.48707e-12 0
-1.12313e-07 2.74795e-12 0
-1.12307e-07 3.9825e-12 0
-1.12298e-07 5.81581e-12 0
-1.12294e-07 9.16874e-12 0
0.00969143 -9.99572e-08 0
0 -1.05758e-06 0
8.05262e-12 -5.04761e-08 0
-6.87187e-09 -1.10493e-07 0
-1.01824e-07 -1.47875e-07 0
-2.22273e-07 -1.69771e-07 0
-1.03068e-07 -8.19303e-08 0
-2.78511e-10 2.31018e-10 0
1.1152e-10 -1.1152e-10 0
2.79406e-10 -4.01689e-10 0
-8.92218e-08 -7.01348e-08 0
-1.88259e-07 -1.17352e-07 0
-1.9402e-07 -3.56982e-08 0
-2.21873e-07 5.12231e-08 0
-2.49492e-07 7.31344e-08 0
-2.45254e-07 5.22506e-08 0
-2.11288e-07 2.77826e-08 0
-1.73062e-07 1.30933e-08 0
-1.45412e-07 5.40273e-09 0
-1.2894e-07 1.01795e-09 0
-1.19681e-07 -1.50766e-09 0
-1.14379e-07 -2.70529e-09 0
-1.1122e-07 -2.99769e-09 0
-1.09287e-07 -2.77773e-09 0
-1.08094e-07 -2.33884e-09 0
-1.07361e-07 -1.85809e-09 0
-1.06914e-07 -1.42235e-09 0
-1.06643e-07 -1.06285e-09 0
-1.0648e-07 -7.81922e-10 0
-1.06381e-07 -5.69596e-10 0
-1.06321e-07 -4.12432e-10 0
-1.06282e-07 -2.97581e-10 0
-1.06257e-07 -2.14279e-10 0
-1.0624e-07 -1.54098e-10 0
-1.06227e-07 -1.10693e-10 0
-1.06217e-07 -7.94007e-11 0
-1.06208e-07 -5.68377e-11 0
-1.06201e-07 -4.05661e-11 0
-1.06194e-07 -2.88321e-11 0
-1.06188e-07 -2.03711e-11 0
-1.06182e-07 -1.42664e-11 0
-1.06177e-07 -9.85054e-12 0
-1.06172e-07 -6.64503e-12 0
-1.06167e-07 -4.32322e-12 0
-1.06163e-07 -2.66503e-12 0
-1.06159e-07 -1.50332e-12 0
-1.06155e-07 -7.2127e-13 0
-1.06151e-07 -3.13734e-13 0
-1.06146e-07 -3.38578e-13 0
-1.06138e-07 -4.34876e-13 0
-1.06134e-07 2.48748e-13 0
0.00971382 3.92734e-09 0
0 -7.42878e-07 0
2.43527e-11 -4.26919e-08 0
-1.09385e-08 -1.02198e-07 0
-1.02769e-07 -1.14758e-07 0
-2.43683e-07 -9.66068e-08 0
-2.3206e-07 -5.51572e-08 0
-6.773e-08 -1.37903e-08 0
-2.51685e-10 2.10756e-10 0
7.08432e-11 -7.08432e-11 0
2.01846e-10 -3.59586e-10 0
-7.7955e-08 -4.87308e-08 0
-8.77954e-08 -1.69857e-08 0
-1.29015e-07 9.84986e-08 0
-2.0747e-07 1.13514e-07 0
-2.52104e-07 6.24078e-08 0
-2.3439e-07 1.44684e-08 0
-1.90709e-07 -8.0256e-09 0
-1.54388e-07 -1.4301e-08 0
-1.3287e-07 -1.4311e-08 0
-1.21904e-07 -1.23357e-08 0
-1.16638e-07 -9.84918e-09 0
-1.1416e-07 -7.45705e-09 0
-1.13017e-07 -5.43389e-09 0
-1.12511e-07 -3.85765e-09 0
-1.12309e-07 -2.69453e-09 0
-1.12246e-07 -1.86579e-09 0
-1.12243e-07 -1.28777e-09 0
-1.12263e-07 -8.89282e-10 0
-1.12287e-07 -6.1591e-10 0
-1.12308e-07 -4.28411e-10 0
-1.12325e-07 -2.99439e-10 0
-1.12337e-07 -2.10292e-10 0
-1.12344e-07 -1.48305e-10 0
-1.12348e-07 -1.0493e-10 0
-1.1235e-07 -7.43926e-11 0
-1.12349e-07 -5.27788e-11 0
-1.12348e-07 -3.74155e-11 0
-1.12345e-07 -2.64632e-11 0
-1.12342e-07 -1.86439e-11 0
-1.12338e-07 -1.30633e-11 0
-1.12334e-07 -9.09344e-12 0
-1.1233e-07 -6.29066e-12 0
-1.12326e-07 -4.33995e-12 0
-1.12322e-07 -3.02623e-12 0
-1.12319e-07 -2.22459e-12 0
-1.12316e-07 -1.90201e-12 0
-1.12312e-07 -2.18009e-12 0
-1.12308e-07 -3.41338e-12 0
-1.12302e-07 -5.76746e-12 0
-1.12298e-07 -8.51422e-12 0
0.0096914 1.06305e-07 0
0 -5.24518e-07 0
3.44481e-11 -3.65058e-08 0
-1.91085e-08 -8.49565e-08 0
-1.15723e-07 -8.86168e-08 0
-2.37988e-07 -5.30389e-08 0
-2.53147e-07 -1.57669e-08 0
-1.63473e-07 -2.36008e-08 0
-7.64972e-08 -2.07076e-08 0
-2.52068e-10 1.70224e-10 0
1.88645e-10 1.22854e-10 0
6.46566e-12 -2.6922e-08 0
-4.57061e-08 3.11898e-08 0
-4.15214e-08 1.57047e-07 0
-9.15695e-08 1.62625e-07 0
-1.73313e-07 7.83304e-08 0
-2.06057e-07 4.84879e-09 0
-1.89571e-07 -2.52478e-08 0
-1.6316e-07 -2.92511e-08 0
-1.46052e-07 -2.45127e-08 0
-1.38529e-07 -1.83351e-08 0
-1.36321e-07 -1.29343e-08 0
-1.36312e-07 -8.80437e-09 0
-1.3697e-07 -5.8688e-09 0
-1.37691e-07 -3.87379e-09 0
-1.38288e-07 -2.55282e-09 0
-1.38733e-07 -1.68892e-09 0
-1.39049e-07 -1.12554e-09 0
-1.39266e-07 -7.56898e-10 0
-1.39414e-07 -5.13919e-10 0
-1.39514e-07 -3.5226e-10 0
-1.3958e-07 -2.43584e-10 0
-1.39624e-07 -1.69745e-10 0
-1.39652e-07 -1.19051e-10 0
-1.39669e-07 -8.39067e-11 0
-1.3968e-07 -5.933e-11 0
-1.39686e-07 -4.20176e-11 0
-1.39688e-07 -2.97545e-11 0
-1.39689e-07 -2.10373e-11 0
-1.39687e-07 -1.48331e-11 0
-1.39685e-07 -1.04241e-11 0
-1.39682e-07 -7.30669e-12 0
-1.39679e-07 -5.12859e-12 0
-1.39676e-07 -3.65169e-12 0
-1.39673e-07 -2.73297e-12 0
-1.3967e-07 -2.32158e-12 0
-1.39667e-07 -2.45747e-12 0
-1.39664e-07 -3.31928e-12 0
-1.39661e-07 -5.54356e-12 0
-1.39656e-07 -1.0422e-11 0
-1.39654e-07 -1.821e-11 0
0.00954438 1.8781e-07 0
0 -4.60146e-07 0
5.04473e-11 -2.65758e-08 0
-3.61644e-08 -6.50258e-08 0
-1.44595e-07 -6.88133e-08 0
-2.54316e-07 -3.78511e-08 0
-2.71257e-07 3.33184e-09 0
-2.05251e-07 -1.66468e-09 0
-1.59014e-07 -6.90905e-08 0
-8.25377e-08 -5.66059e-08 0
-8.30105e-08 6.2692e-12 0
-1.72984e-07 2.97748e-08 0
-2.53706e-07 8.13468e-08 0
-1.4331e-07 1.21699e-07 0
-4.45292e-08 1.20531e-07 0
-9.13738e-08 6.74082e-08 0
-1.70737e-07 1.28418e-08 0
-1.98592e-07 -1.49718e-08 0
-1.95522e-07 -2.08607e-08 0
-1.90038e-07 -1.74459e-08 0
-1.88951e-07 -1.23922e-08 0
-1.90532e-07 -8.25687e-09 0
-1.92764e-07 -5.37518e-09 0
-1.94732e-07 -3.48614e-09 0
-1.9621e-07 -2.275e-09 0
-1.97244e-07 -1.50061e-09 0
-1.97944e-07 -1.00182e-09 0
-1.98409e-07 -6.76692e-10 0
-1.98718e-07 -4.61994e-10 0
-1.98921e-07 -3.18431e-10 0
-1.99056e-07 -2.21326e-10 0
-1.99144e-07 -1.54953e-10 0
-1.99202e-07 -1.09146e-10 0
-1.9924e-07 -7.72527e-11 0
-1.99264e-07 -5.48664e-11 0
-1.99279e-07 -3.90428e-11 0
-1.99288e-07 -2.77943e-11 0
-1.99293e-07 -1.97659e-11 0
-1.99295e-07 -1.40239e-11 0
-1.99295e-07 -9.91837e-12 0
-1.99293e-07 -6.99284e-12 0
-1.99291e-07 -4.92664e-12 0
-1.99288e-07 -3.49832e-12 0
-1.99285e-07 -2.56442e-12 0
-1.99283e-07 -2.04931e-12 0
-1.9928e-07 -1.95655e-12 0
-1.99278e-07 -2.39317e-12 0
-1.99276e-07 -3.56846e-12 0
-1.99275e-07 -6.18909e-12 0
-1.99272e-07 -1.28125e-11 0
-1.99275e-07 -2.59928e-11 0
0.00887776 2.05168e-07 0
0 -4.84634e-07 0
6.25215e-11 -1.28341e-08 0
-5.20258e-08 -3.34708e-08 0
-1.59253e-07 -3.53182e-08 0
-2.48475e-07 -2.00431e-08 0
-2.73141e-07 -1.16772e-08 0
-2.30896e-07 -2.29116e-08 0
-2.00015e-07 -6.2683e-08 0
-2.20867e-07 -5.23025e-08 0
-2.03346e-07 4.88833e-08 0
-2.34655e-07 1.33766e-07 0
-2.24818e-07 1.0746e-07 0
-1.27804e-07 5.41159e-09 0
-6.05595e-08 -6.26618e-08 0
-1.16165e-07 -6.42268e-08 0
-1.98743e-07 -2.98193e-08 0
-2.30554e-07 -3.43984e-10 0
-2.28596e-07 9.66349e-09 0
-2.21472e-07 8.22725e-09 0
-2.17923e-07 4.44198e-09 0
-2.17403e-07 1.71318e-09 0
-2.1819e-07 3.12975e-10 0
-2.19268e-07 -2.48187e-10 0
-2.2023e-07 -3.97891e-10 0
-2.20973e-07 -3.80707e-10 0
-2.21511e-07 -3.12132e-10 0
-2.21888e-07 -2.39093e-10 0
-2.22147e-07 -1.77126e-10 0
-2.22324e-07 -1.29043e-10 0
-2.22443e-07 -9.3263e-11 0
-2.22523e-07 -6.7174e-11 0
-2.22576e-07 -4.83266e-11 0
-2.22611e-07 -3.47553e-11 0
-2.22633e-07 -2.49846e-11 0
-2.22647e-07 -1.79416e-11 0
-2.22656e-07 -1.28578e-11 0
-2.2266e-07 -9.18558e-12 0
-2.22662e-07 -6.53486e-12 0
-2.22662e-07 -4.62686e-12 0
-2.2266e-07 -3.2622e-12 0
-2.22658e-07 -2.2994e-12 0
-2.22655e-07 -1.64135e-12 0
-2.22652e-07 -1.22702e-12 0
-2.2265e-07 -1.03042e-12 0
-2.22648e-07 -1.07016e-12 0
-2.22646e-07 -1.43951e-12 0
-2.22645e-07 -2.31487e-12 0
-2.22644e-07 -4.12072e-12 0
-2.22645e-07 -8.81331e-12 0
-2.22655e-07 -1.98952e-11 0
0.0065197 1.12263e-07 0
0 0 0
3.47507e-11 0 0
-2.78977e-08 0 0
-7.68825e-08 0 0
-1.13472e-07 0 0
-1.25955e-07 0 0
-1.21413e-07 0 0
-1.17476e-07 0 0
-1.38372e-07 0 0
-1.20347e-07 0 0
-6.16675e-08 0 0
-7.18539e-09 0 0
5.59364e-09 0 0
-2.39772e-08 0 0
-7.66345e-08 0 0
-1.14164e-07 0 0
-1.23153e-07 0 0
-1.17365e-07 0 0
-1.10075e-07 0 0
-1.05532e-07 0 0
-1.03475e-07 0 0
-1.02819e-07 0 0
-1.02781e-07 0 0
-1.02954e-07 0 0
-1.03163e-07 0 0
-1.03345e-07 0 0
-1.03485e-07 0 0
-1.03588e-07 0 0
-1.03661e-07 0 0
-1.03711e-07 0 0
-1.03745e-07 0 0
-1.03768e-07 0 0
-1.03783e-07 0 0
-1.03793e-07 0 0
-1.03799e-07 0 0
-1.03803e-07 0 0
-1.03805e-07 0 0
-1.03805e-07 0 0
-1.03805e-07 0 0
-1.03804e-07 0 0
-1.03803e-07 0 0
-1.03801e-07 0 0
-1.038e-07 0 0
-1.03799e-07 0 0
-1.03798e-07 0 0
-1.03797e-07 0 0
-1.03796e-07 0 0
-1.03796e-07 0 0
-1.03797e-07 0 0
-1.03804e-07 0 0
0.00235183 0 0
0 0 5.4209e-07
9.84577e-11 0 2.37708e-08
-3.46623e-08 0 9.54966e-08
-2.25053e-07 0 1.43759e-07
-6.00292e-07 0 -6.33319e-08
-2.31179e-07 0 -2.33176e-07
-6.02314e-08 0 -1.8359e-07
5.45873e-08 0 -1.31944e-07
1.1774e-07 0 -5.44795e-08
1.06686e-07 0 1.38436e-09
3.87751e-08 0 1.81178e-08
-4.44841e-08 0 9.39649e-09
-1.10097e-07 0 -2.49842e-09
-1.4906e-07 0 -7.38515e-09
-1.69012e-07 0 -6.35656e-09
-1.81083e-07 0 -3.3524e-09
-1.91386e-07 0 -8.29142e-10
-2.01061e-07 0 5.49531e-10
-2.09442e-07 0 1.01547e-09
-2.15977e-07 0 9.865e-10
-2.20637e-07 0 7.73482e-10
-2.23726e-07 0 5.40561e-10
-2.25644e-07 0 3.50879e-10
-2.26759e-07 0 2.16042e-10
-2.27358e-07 0 1.2765e-10
-2.27643e-07 0 7.28143e-11
-2.2775e-07 0 4.01782e-11
-2.27761e-07 0 2.14067e-11
-2.27727e-07 0 1.09393e-11
-2.27675e-07 0 5.28178e-12
-2.27621e-07 0 2.33008e-12
-2.27572e-07 0 8.5768e-13
-2.27529e-07 0 1.69523e-13
-2.27493e-07 0 -1.17953e-13
-2.27464e-07 0 -2.10624e-13
-2.2744e-07 0 -2.15483e-13
-2.2742e-07 0 -1.85787e-13
-2.27404e-07 0 -1.46255e-13
-2.27391e-07 0 -1.06693e-13
-2.2738e-07 0 -6.91043e-14
-2.27371e-07 0 -3.10737e-14
-2.27363e-07 0 1.35642e-14
-2.27357e-07 0 7.55392e-14
-2.27352e-07 0 1.68105e-13
-2.27348e-07 0 3.14237e-13
-2.27345e-07 0 5.77943e-13
-2.27343e-07 0 9.43147e-13
-2.27342e-07 0 1.19409e-12
-2.27343e-07 0 3.27781e-12
-2.27354e-07 0 1.46729e-11
0.00650052 0 -7.45817e-08
0.0036 -1.82908e-07 2.04039e-08
0.00359981 -0.00128404 -9.29954e-06
0.00685709 -0.00401721 -0.000291129
0.0140072 -0.007217 -0.0018442
0.0250455 -0.0141273 -0.00511879
0.0462008 -0.0113646 -0.00473789
0.0492303 -0.0010751 -0.0014307
0.0487652 0.0031295 0.000141761
0.0435423 0.00531332 0.000807369
0.0378694 0.00532843 0.000595454
0.0328252 0.00443916 0.000113746
0.0286392 0.00330981 -0.000260655
0.0253773 0.00226969 -0.000395914
0.0230053 0.00147317 -0.000342216
0.0213744 0.00093841 -0.000219872
0.0202921 0.000601013 -0.000113392
0.0195917 0.000387016 -4.76012e-05
0.019149 0.000247642 -1.49395e-05
0.0188758 0.000155869 -1.58468e-06
0.0187113 9.59943e-05 2.56442e-06
0.0186147 5.77159e-05 3.04124e-06
0.0185596 3.38243e-05 2.38838e-06
0.018529 1.92746e-05 1.5984e-06
0.0185127 1.06305e-05 9.73878e-07
0.0185044 5.6254e-06 5.52955e-07
0.0185005 2.80836e-06 2.93827e-07
0.0184989 1.27522e-06 1.44344e-07
0.0184985 4.76398e-07 6.28973e-08
0.0184986 8.56792e-08 2.11635e-08
0.0184989 -8.59949e-08 1.46097e-09
0.0184992 -1.45423e-07 -6.62243e-09
0.0184995 -1.51198e-07 -8.94282e-09
0.0184998 -1.34319e-07 -8.65311e-09
0.0185 -1.10392e-07 -7.36968e-09
0.0185002 -8.66895e-08 -5.86899e-09
0.0185003 -6.61432e-08 -4.48691e-09
0.0185004 -4.95431e-08 -3.33967e-09
0.0185004 -3.67143e-08 -2.44225e-09
0.0185005 -2.7121e-08 -1.77015e-09
0.0185005 -2.01612e-08 -1.29199e-09
0.0185005 -1.52991e-08 -9.88599e-10
0.0185006 -1.2116e-08 -8.65273e-10
0.0185006 -1.03356e-08 -9.69837e-10
0.0185006 -9.84852e-09 -1.41655e-09
0.0185006 -1.06493e-08 -2.28589e-09
0.0185006 -1.30521e-08 -3.67659e-09
0.0185007 -1.83848e-08 -5.66249e-09
0.0185007 -2.68739e-08 -3.07684e-09
0.0185009 -6.51747e-08 -8.17479e-09
0.0185011 -2.52966e-07 -1.22256e-07
0.0185015 -4.07337e-07 -2.27551e-07
0.01 -1.03323e-07 -1.29718e-06
0.0100009 -0.0030787 -0.000493501
0.0149746 -0.0101506 -0.00100292
0.0240448 -0.018169 -0.00238227
0.0374734 -0.0307526 -0.00405722
0.0572122 -0.0220146 -0.00110101
0.0550513 -0.00171188 0.00231713
0.0549928 0.00572321 0.00258629
0.0494366 0.010621 0.00239161
0.0439706 0.0106145 0.00150266
0.0393755 0.00939712 0.00044557
0.035409 0.00775787 -0.000297224
0.0321924 0.00593572 -0.000593533
0.0298581 0.00421679 -0.000546941
0.028278 0.00283255 -0.000362066
0.0272503 0.00183561 -0.000190907
0.0266014 0.00116016 -8.22598e-05
0.0262039 0.000717659 -2.7107e-05
0.0259685 0.000434644 -3.87425e-06
0.025834 0.00025755 3.80425e-06
0.0257602 0.000149092 5.07386e-06
0.0257216 8.40809e-05 4.22498e-06
0.0257026 4.59627e-05 2.99185e-06
0.0256942 2.41337e-05 1.94761e-06
0.0256912 1.19626e-05 1.20323e-06
0.0256908 5.39281e-06 7.16855e-07
0.0256914 1.99522e-06 4.1557e-07
0.0256924 3.45481e-07 2.35641e-07
0.0256934 -3.733e-07 1.31076e-07
0.0256943 -6.18476e-07 7.16214e-08
0.025695 -6.38986e-07 3.84429e-08
0.0256956 -5.65574e-07 2.02426e-08
0.025696 -4.63578e-07 1.04264e-08
0.0256963 -3.63189e-07 5.22742e-09
0.0256965 -2.76417e-07 2.53163e-09
0.0256967 -2.06362e-07 1.17116e-09
0.0256968 -1.52142e-07 5.10242e-10
0.0256969 -1.11398e-07 2.07392e-10
0.0256969 -8.15072e-08 8.04324e-11
0.025697 -6.01096e-08 2.87169e-11
0.025697 -4.53085e-08 -1.44812e-11
0.025697 -3.57175e-08 -1.08755e-10
0.0256971 -3.04609e-08 -3.22456e-10
0.0256971 -2.92948e-08 -7.846e-10
0.0256971 -3.28477e-08 -1.51677e-09
0.0256971 -4.25101e-08 -1.86901e-09
0.0256972 -6.61156e-08 -1.76279e-09
0.0256973 -1.33283e-07 1.45116e-09
0.0256975 -2.74919e-07 -1.44769e-08
0.0256977 -5.0971e-07 -1.89576e-07
0.0256979 -6.53045e-07 -3.4562e-07
0.0148 -9.57555e-07 -1.61168e-06
0.0148024 -0.0053095 -0.00104363
0.0200401 -0.0161954 -0.00253246
0.0264203 -0.0277446 -0.00449612
0.030829 -0.0436548 -0.00537698
0.0293438 -0.0268149 -0.000905658
0.0262699 -1.12906e-05 0.00265234
0.0261742 0.00739834 0.00268063
0.0304728 0.0153376 0.00258717
0.0308485 0.0150401 0.00166815
0.0297363 0.0132081 0.00065585
0.028601 0.0109552 -9.68891e-05
0.027793 0.00828255 -0.000412721
0.0274862 0.00572199 -0.000408993
0.0274479 0.00373771 -0.000265918
0.0274942 0.00236609 -0.000124907
0.02755 0.00146451 -3.59198e-05
0.0275989 0.000886079 5.55737e-06
0.0276407 0.000522574 1.85643e-05
0.0276763 0.000299535 1.86333e-05
0.0277057 0.000166247 1.45063e-05
0.0277289 8.87636e-05 1.00301e-05
0.0277465 4.50172e-05 6.46828e-06
0.0277593 2.11129e-05 3.9828e-06
0.0277684 8.5642e-06 2.37202e-06
0.0277748 2.32962e-06 1.37687e-06
0.0277792 -5.07947e-07 7.82522e-07
0.0277822 -1.59278e-06 4.36526e-07
0.0277842 -1.82581e-06 2.39231e-07
0.0277856 -1.68438e-06 1.28713e-07
0.0277865 -1.41043e-06 6.78145e-08
0.0277871 -1.11875e-06 3.4808e-08
0.0277876 -8.57791e-07 1.72411e-08
0.0277879 -6.42977e-07 8.09457e-09
0.0277881 -4.74509e-07 3.46934e-09
0.0277882 -3.46479e-07 1.22905e-09
0.0277883 -2.51328e-07 2.19794e-10
0.0277884 -1.81851e-07 -1.71886e-10
0.0277884 -1.31961e-07 -2.66633e-10
0.0277885 -9.68672e-08 -2.30813e-10
0.0277885 -7.30156e-08 -1.55657e-10
0.0277885 -5.79892e-08 -1.02392e-10
0.0277885 -5.04486e-08 -1.0803e-10
0.0277885 -5.01279e-08 -1.44224e-10
0.0277886 -5.89873e-08 -8.88776e-11
0.0277886 -8.45809e-08 1.46017e-10
0.0277886 -1.36994e-07 -1.23046e-09
0.0277887 -2.20345e-07 -6.47238e-09
0.0277888 -3.36467e-07 -4.39478e-08
0.0277888 -4.80738e-07 -2.3878e-07
0.0277888 -5.58269e-07 -3.99885e-07
0.018 -1.9687e-06 -1.71728e-06
0.0180026 -0.00669095 -0.00187703
0.0203749 -0.0179111 -0.00498156
0.0201545 -0.0234475 -0.00656542
0.0158578 -0.0256115 -0.00719814
-1.37224e-06 -0.0133933 -0.0037384
9.91457e-05 3.03053e-05 7.65878e-07
-3.6488e-05 3.82588e-05 0.000504979
0.00711344 0.00478108 0.00105902
0.0148599 0.0109009 0.000948753
0.0182913 0.0117251 0.000521539
0.0199143 0.0100378 2.52522e-05
0.0216239 0.00740876 -0.00027363
0.0234042 0.00482593 -0.000306136
0.0249454 0.00297166 -0.000201735
0.0261017 0.00179296 -8.27091e-05
0.0268896 0.00106627 -3.80473e-06
0.0273995 0.00061792 3.0662e-05
0.0277228 0.000343837 3.68374e-05
0.0279262 0.000181042 3.07867e-05
0.0280534 8.82962e-05 2.19785e-05
0.0281324 3.80204e-05 1.43415e-05
0.0281809 1.23617e-05 8.82858e-06
0.0282106 3.18927e-07 5.21562e-06
0.0282285 -4.56476e-06 2.98587e-06
0.0282392 -5.91176e-06 1.6654e-06
0.0282457 -5.66625e-06 9.07039e-07
0.0282495 -4.82122e-06 4.82105e-07
0.0282518 -3.85164e-06 2.49108e-07
0.0282532 -2.9618e-06 1.24033e-07
0.0282541 -2.22139e-06 5.84396e-08
0.0282546 -1.63779e-06 2.50212e-08
0.0282549 -1.19302e-06 8.66895e-09
0.0282551 -8.61588e-07 1.16219e-09
0.0282552 -6.18494e-07 -1.89642e-09
0.0282553 -4.42296e-07 -2.81441e-09
0.0282553 -3.15813e-07 -2.77366e-09
0.0282553 -2.2585e-07 -2.35931e-09
0.0282554 -1.62571e-07 -1.84681e-09
0.0282554 -1.18845e-07 -1.35755e-09
0.0282554 -8.96741e-08 -9.41572e-10
0.0282554 -7.1783e-08 -6.15204e-10
0.0282554 -6.35155e-08 -4.06098e-10
0.0282554 -6.51543e-08 -4.45319e-10
0.0282554 -7.81865e-08 -1.01324e-09
0.0282554 -1.02851e-07 -3.14311e-09
0.0282554 -1.37404e-07 -1.00626e-08
0.0282554 -1.77583e-07 -2.2808e-08
0.0282554 -2.22407e-07 -7.01922e-08
0.0282553 -2.73717e-07 -2.63996e-07
0.0282552 -3.00942e-07 -4.17957e-07
0.0196 -2.62145e-06 -2.63684e-06
0.0196008 -0.00541657 -0.00272228
0.0191084 -0.0121985 -0.00648329
0.0161634 -0.0148744 -0.00692129
0.0112845 -0.0136395 -0.00668086
0.00211434 -0.00554964 -0.00455072
7.47855e-05 -6.88017e-05 -0.00102759
3.23137e-05 -3.23137e-05 -4.31104e-08
-3.56034e-05 3.73727e-05 0.000159638
0.00472508 0.00359283 0.000328595
0.0108151 0.00811586 0.000263945
0.0136216 0.00776296 -1.44417e-05
0.0168802 0.00501451 -0.000297012
0.0201401 0.00259566 -0.000359637
0.0229124 0.00115914 -0.00027911
0.0249606 0.000468362 -0.00014705
0.0263115 0.000167872 -3.89216e-05
0.0271435 3.51501e-05 1.71646e-05
0.0276399 -2.45861e-05 3.30993e-05
0.0279321 -4.76778e-05 2.98842e-05
0.0281025 -5.13972e-05 2.1427e-05
0.0282009 -4.59711e-05 1.36679e-05
0.028257 -3.7407e-05 8.11841e-06
0.0282887 -2.87917e-05 4.59026e-06
0.0283064 -2.14041e-05 2.4973e-06
0.0283161 -1.55622e-05 1.31218e-06
0.0283214 -1.11539e-05 6.64309e-07
0.0283242 -7.92121e-06 3.20722e-07
0.0283257 -5.59284e-06 1.43992e-07
0.0283265 -3.9347e-06 5.63401e-08
0.0283268 -2.76222e-06 1.50388e-08
0.028327 -1.93683e-06 -2.82875e-09
0.0283271 -1.35737e-06 -9.28854e-09
0.0283271 -9.51261e-07 -1.05054e-08
0.0283271 -6.67003e-07 -9.54954e-09
0.0283271 -4.68279e-07 -7.88782e-09
0.0283271 -3.29606e-07 -6.17558e-09
0.0283271 -2.33165e-07 -4.66992e-09
0.028327 -1.66558e-07 -3.44277e-09
0.028327 -1.21227e-07 -2.4914e-09
0.028327 -9.1383e-08 -1.80298e-09
0.028327 -7.32847e-08 -1.39967e-09
0.028327 -6.45458e-08 -1.40222e-09
0.028327 -6.31969e-08 -2.19627e-09
0.028327 -6.70288e-08 -4.36419e-09
0.028327 -7.32708e-08 -8.6441e-09
0.028327 -7.82344e-08 -1.768e-08
0.0283269 -7.52121e-08 -3.17062e-08
0.0283269 -5.6033e-08 -7.96179e-08
0.0283268 -1.99002e-08 -2.69824e-07
0.0283266 1.70946e-09 -4.19934e-07
0.0196 -1.27614e-06 -3.54553e-06
0.0196001 -0.00334493 -0.00306933
0.0189898 -0.0071176 -0.00653931
0.0177091 -0.00680309 -0.00643739
0.0137841 -0.00307278 -0.00573225
0.00987066 0.00326656 -0.00471068
0.00640724 0.0033102 -0.00239396
7.48548e-05 -6.27486e-05 -0.000451823
2.71452e-05 -2.71452e-05 -1.29839e-07
-3.46371e-05 3.65696e-05 4.66488e-05
0.00357962 0.00279383 0.000338071
0.00821531 0.00405708 0.000371146
0.0136061 0.00110656 -2.12376e-05
0.0183958 -0.000966514 -0.000300379
0.022163 -0.00166532 -0.000382285
0.0247835 -0.00150738 -0.000287065
0.0263857 -0.00108607 -0.000141577
0.0272789 -0.000715712 -4.16169e-05
0.0277546 -0.000461073 1.61918e-06
0.0280034 -0.000296928 1.23559e-05
0.0281321 -0.000191483 1.10537e-05
0.0281976 -0.000123391 7.32534e-06
0.0282303 -7.94329e-05 4.23035e-06
0.0282461 -5.11665e-05 2.23695e-06
0.0282533 -3.30544e-05 1.09702e-06
0.0282563 -2.14602e-05 4.9246e-07
0.0282574 -1.40235e-05 1.91053e-07
0.0282575 -9.23149e-06 5.05187e-08
0.0282572 -6.12353e-06 -8.94564e-09
0.0282569 -4.09238e-06 -2.96536e-08
0.0282566 -2.75419e-06 -3.30774e-08
0.0282563 -1.86547e-06 -2.9659e-08
0.0282561 -1.27079e-06 -2.42182e-08
0.0282559 -8.70163e-07 -1.88077e-08
0.0282558 -5.98703e-07 -1.41726e-08
0.0282557 -4.13932e-07 -1.04748e-08
0.0282556 -2.87804e-07 -7.6417e-09
0.0282555 -2.01668e-07 -5.52805e-09
0.0282555 -1.4305e-07 -3.98822e-09
0.0282555 -1.03569e-07 -2.91149e-09
0.0282554 -7.75329e-08 -2.24826e-09
0.0282554 -6.0907e-08 -2.03969e-09
0.0282554 -5.05628e-08 -2.44212e-09
0.0282554 -4.37154e-08 -3.75364e-09
0.0282554 -3.73622e-08 -6.30445e-09
0.0282554 -2.76813e-08 -1.058e-08
0.0282553 -9.27688e-09 -1.93135e-08
0.0282553 2.82986e-08 -3.25062e-08
0.0282552 1.0431e-07 -7.63085e-08
0.0282552 2.29228e-07 -2.61407e-07
0.0282551 3.03541e-07 -4.09864e-07
0.018 -8.09317e-07 -3.48345e-06
0.0180009 -0.00170131 -0.00300507
0.0184614 -0.0030024 -0.00620274
0.0187581 -0.00146058 -0.00567538
0.0180792 0.00169734 -0.00459421
0.017998 0.00759237 -0.00373633
0.0185995 0.0126823 -0.00233743
0.0114724 0.00694599 -0.00105257
7.65571e-05 -4.89401e-05 -0.000331247
-2.77439e-05 -5.63498e-05 5.52799e-07
7.73627e-06 -0.000241572 0.000818509
0.00927044 -0.002385 0.00131841
0.017031 -0.00505178 0.000725112
0.0219194 -0.00568688 0.000185599
0.0247843 -0.00493301 -0.000209641
0.0264192 -0.00354409 -0.000322074
0.0272742 -0.00222285 -0.000238086
0.0276622 -0.00129947 -0.000124717
0.0278098 -0.000746078 -5.30462e-05
0.0278509 -0.000430834 -1.98706e-05
0.0278514 -0.000251417 -6.99487e-06
0.0278398 -0.000148142 -2.50481e-06
0.0278269 -8.81078e-05 -1.0249e-06
0.027816 -5.29383e-05 -5.30153e-07
0.0278079 -3.2174e-05 -3.38762e-07
0.027802 -1.98011e-05 -2.4042e-07
0.0277979 -1.23476e-05 -1.75279e-07
0.027795 -7.80224e-06 -1.27158e-07
0.027793 -4.99379e-06 -9.10737e-08
0.0277917 -3.23515e-06 -6.44538e-08
0.0277907 -2.1193e-06 -4.52185e-08
0.02779 -1.40234e-06 -3.15542e-08
0.0277896 -9.36306e-07 -2.19627e-08
0.0277893 -6.3019e-07 -1.52795e-08
0.027789 -4.27294e-07 -1.06412e-08
0.0277889 -2.91815e-07 -7.42798e-09
0.0277888 -2.00863e-07 -5.2059e-09
0.0277887 -1.39622e-07 -3.67794e-09
0.0277887 -9.83816e-08 -2.64911e-09
0.0277886 -7.06556e-08 -2.00618e-09
0.0277886 -5.19685e-08 -1.70854e-09
0.0277886 -3.90336e-08 -1.78068e-09
0.0277885 -2.91373e-08 -2.32076e-09
0.0277885 -1.96065e-08 -3.55314e-09
0.0277885 -7.22086e-09 -5.72113e-09
0.0277885 1.25822e-08 -9.15551e-09
0.0277885 4.64893e-08 -1.64799e-08
0.0277884 1.07163e-07 -2.71381e-08
0.0277884 2.2696e-07 -6.13375e-08
0.0277885 4.32584e-07 -2.34795e-07
0.0277884 5.5765e-07 -3.79527e-07
0.0148 -4.71118e-07 -3.04106e-06
0.0148015 -0.000788531 -0.00278969
0.01644 -0.000918858 -0.0055309
0.0184537 0.000983034 -0.00473013
0.0203434 0.00403532 -0.00354709
0.0224248 0.00761902 -0.00291477
0.0260854 0.0127798 -0.00210668
0.0292266 0.019768 -0.00116702
0.0238477 0.0116857 -0.000158862
0.0242327 2.11407e-11 0.000615514
0.0276697 -0.00689438 0.00150427
0.0320966 -0.0136209 0.00224301
0.0333733 -0.0118125 0.00200233
0.0323202 -0.00865158 0.00129998
0.0303871 -0.00590157 0.000337937
0.0286401 -0.00372384 -0.000265824
0.0274412 -0.00214788 -0.000369565
0.0267132 -0.00116151 -0.000251958
0.0262892 -0.000613733 -0.000130985
0.0260444 -0.000326325 -5.97646e-05
0.0259027 -0.000176828 -2.56164e-05
0.0258202 -9.79749e-05 -1.06943e-05
0.0257717 -5.5499e-05 -4.44293e-06
0.025743 -3.21055e-05 -1.86384e-06
0.0257258 -1.89406e-05 -7.97667e-07
0.0257152 -1.13793e-05 -3.50157e-07
0.0257088 -6.95263e-06 -1.57464e-07
0.0257047 -4.31463e-06 -7.18386e-08
0.0257021 -2.71627e-06 -3.25941e-08
0.0257004 -1.73271e-06 -1.41972e-08
0.0256993 -1.11866e-06 -5.52087e-09
0.0256986 -7.30142e-07 -1.50918e-09
0.0256981 -4.81283e-07 2.32248e-10
0.0256978 -3.20118e-07 8.75674e-10
0.0256976 -2.14738e-07 1.00553e-09
0.0256974 -1.45284e-07 9.12445e-10
0.0256973 -9.92233e-08 7.36112e-10
0.0256972 -6.8533e-08 5.36892e-10
0.0256972 -4.79843e-08 3.31785e-10
0.0256972 -3.40692e-08 1.10955e-10
0.0256971 -2.43012e-08 -1.58759e-10
0.0256971 -1.67256e-08 -5.37444e-10
0.0256971 -9.52185e-09 -1.126e-09
0.0256971 -6.21784e-10 -2.11134e-09
0.0256971 1.27182e-08 -3.68523e-09
0.0256971 3.48034e-08 -6.03205e-09
0.0256971 7.27139e-08 -1.10578e-08
0.0256971 1.38076e-07 -1.80364e-08
0.0256972 2.68053e-07 -4.11182e-08
0.0256973 5.0156e-07 -1.92574e-07
0.0256975 6.46497e-07 -3.24342e-07
0.01 -9.14675e-07 -2.71557e-06
0.0100007 -0.000489667 -0.00231105
0.0116439 -0.000317062 -0.00432211