# vtk DataFile Version 2.0
Tobias Weinzierl: CPU, Manycore and Cluster Computing
ASCII

DATASET STRUCTURED_POINTS
DIMENSIONS  51 11 6

ORIGIN 0 0 0 

SPACING 0.1 0.1 0.1 

POINT_DATA 3366

VECTORS velocity float
0 0 0
6.46971e-13 0 0
5.91826e-09 0 0
6.23121e-09 0 0
-1.7473e-08 0 0
2.26083e-10 0 0
2.17085e-09 0 0
5.48877e-10 0 0
-1.27321e-09 0 0
-2.87971e-09 0 0
-2.40395e-09 0 0
-1.97735e-09 0 0
-4.91817e-09 0 0
-1.09301e-08 0 0
-1.65804e-08 0 0
-1.94363e-08 0 0
-1.99194e-08 0 0
-1.97293e-08 0 0
-2.00122e-08 0 0
-2.09626e-08 0 0
-2.2274e-08 0 0
-2.35914e-08 0 0
-2.46993e-08 0 0
-2.55273e-08 0 0
-2.60934e-08 0 0
-2.64518e-08 0 0
-2.66618e-08 0 0
-2.67736e-08 0 0
-2.68244e-08 0 0
-2.68402e-08 0 0
-2.68375e-08 0 0
-2.68263e-08 0 0
-2.68124e-08 0 0
-2.67988e-08 0 0
-2.67867e-08 0 0
-2.67767e-08 0 0
-2.67686e-08 0 0
-2.67622e-08 0 0
-2.67573e-08 0 0
-2.67535e-08 0 0
-2.67506e-08 0 0
-2.67483e-08 0 0
-2.67466e-08 0 0
-2.67453e-08 0 0
-2.67442e-08 0 0
-2.67435e-08 0 0
-2.6743e-08 0 0
-2.67427e-08 0 0
-2.67428e-08 0 0
-2.67438e-08 0 0
0.0020133 0 0
0 3.80689e-07 0
-2.09878e-12 -5.31731e-09 0
9.56282e-09 -1.08305e-08 0
1.4075e-08 -2.24831e-09 0
-1.66568e-08 -1.53211e-08 0
1.5058e-08 -1.97173e-08 0
1.41518e-08 5.1107e-09 0
6.45783e-09 1.36907e-08 0
2.16728e-09 1.42193e-08 0
-1.84102e-09 1.04395e-08 0
-3.51412e-09 5.90185e-09 0
-4.70125e-09 6.21473e-09 0
-1.05226e-08 9.85312e-09 0
-2.08046e-08 1.10658e-08 0
-2.99157e-08 7.97006e-09 0
-3.43821e-08 3.55011e-09 0
-3.58669e-08 8.59639e-10 0
-3.75781e-08 3.50813e-10 0
-4.10027e-08 9.06456e-10 0
-4.57561e-08 1.48659e-09 0
-5.07789e-08 1.6889e-09 0
-5.52176e-08 1.5492e-09 0
-5.86797e-08 1.2364e-09 0
-6.11379e-08 8.91713e-10 0
-6.27534e-08 5.91534e-10 0
-6.37416e-08 3.61927e-10 0
-6.43009e-08 2.01348e-10 0
-6.4586e-08 9.70694e-11 0
-6.47071e-08 3.415e-11 0
-6.47368e-08 -6.01722e-13 0
-6.47205e-08 -1.73963e-11 0
-6.46848e-08 -2.35016e-11 0
-6.46442e-08 -2.37616e-11 0
-6.4606e-08 -2.1212e-11 0
-6.45731e-08 -1.76337e-11 0
-6.45462e-08 -1.39871e-11 0
-6.45249e-08 -1.07278e-11 0
-6.45083e-08 -8.01978e-12 0
-6.44957e-08 -5.87241e-12 0
-6.44862e-08 -4.22312e-12 0
-6.44789e-08 -2.98382e-12 0
-6.44735e-08 -2.06559e-12 0
-6.44694e-08 -1.3901e-12 0
-6.44662e-08 -8.90103e-13 0
-6.44639e-08 -5.08892e-13 0
-6.44623e-08 -2.03251e-13 0
-6.44613e-08 8.5665e-14 0
-6.44612e-08 4.51143e-13 0
-6.44623e-08 1.36272e-12 0
-6.44658e-08 4.44248e-12 0
0.00575344 -4.37149e-08 0
0 -2.21796e-08 0
-3.52116e-12 -4.49038e-09 0
1.01445e-08 -1.59529e-08 0
2.59932e-08 -2.56206e-08 0
1.98857e-08 -5.28887e-08 0
4.93808e-08 -4.42023e-08 0
3.86205e-08 -2.00222e-09 0
2.39544e-08 3.12305e-09 0
4.94702e-09 -3.67501e-09 0
-9.50277e-09 -6.1213e-09 0
-1.52833e-08 -2.49519e-09 0
-1.44724e-08 3.51485e-09 0
-1.67957e-08 7.68515e-09 0
-2.50881e-08 9.44235e-09 0
-3.27775e-08 1.08825e-08 0
-3.57569e-08 1.29137e-08 0
-3.57816e-08 1.45558e-08 0
-3.62617e-08 1.48619e-08 0
-3.8856e-08 1.37644e-08 0
-4.32148e-08 1.17072e-08 0
-4.81455e-08 9.23841e-09 0
-5.26066e-08 6.81562e-09 0
-5.60744e-08 4.72676e-09 0
-5.84749e-08 3.08929e-09 0
-5.99779e-08 1.89825e-09 0
-6.08269e-08 1.08481e-09 0
-6.12457e-08 5.60437e-10 0
-6.14057e-08 2.41907e-10 0
-6.14239e-08 6.15079e-11 0
-6.13738e-08 -3.11312e-11 0
-6.12983e-08 -7.11189e-11 0
-6.122e-08 -8.16203e-11 0
-6.11495e-08 -7.71373e-11 0
-6.10906e-08 -6.62501e-11 0
-6.10437e-08 -5.36974e-11 0
-6.10074e-08 -4.1851e-11 0
-6.09797e-08 -3.17038e-11 0
-6.0959e-08 -2.34998e-11 0
-6.09436e-08 -1.71148e-11 0
-6.09321e-08 -1.22749e-11 0
-6.09236e-08 -8.67181e-12 0
-6.09173e-08 -6.01791e-12 0
-6.09127e-08 -4.0683e-12 0
-6.09093e-08 -2.62122e-12 0
-6.09068e-08 -1.49802e-12 0
-6.09051e-08 -5.28322e-13 0
-6.09044e-08 5.47061e-13 0
-6.09048e-08 2.30407e-12 0
-6.09065e-08 5.27207e-12 0
-6.09099e-08 9.5409e-12 0
0.00817151 -9.30758e-08 0
0 -6.30875e-07 0
2.11366e-12 -7.32577e-09 0
1.2812e-08 -2.50524e-08 0
3.17559e-08 -4.62927e-08 0
2.0859e-08 -6.21735e-08 0
3.4549e-08 -3.36241e-08 0
2.66436e-08 -2.2288e-11 0
1.80453e-08 -4.00489e-09 0
-1.2247e-08 -1.58776e-08 0
-3.05922e-08 -2.78688e-08 0
-3.2249e-08 -3.37914e-08 0
-3.03747e-08 -3.25741e-08 0
-3.45954e-08 -2.05951e-08 0
-4.57665e-08 -1.34183e-09 0
-5.45244e-08 1.62017e-08 0
-5.56887e-08 2.60215e-08 0
-5.04779e-08 2.781e-08 0
-4.30066e-08 2.48422e-08 0
-3.6849e-08 2.02527e-08 0
-3.34058e-08 1.56016e-08 0
-3.22489e-08 1.14195e-08 0
-3.23025e-08 7.89393e-09 0
-3.2692e-08 5.10636e-09 0
-3.29783e-08 3.04913e-09 0
-3.30473e-08 1.634e-09 0
-3.29389e-08 7.28262e-10 0
-3.2732e-08 1.93174e-10 0
-3.24934e-08 -9.17974e-11 0
-3.22652e-08 -2.19655e-10 0
-3.20682e-08 -2.56193e-10 0
-3.19085e-08 -2.44725e-10 0
-3.17845e-08 -2.11877e-10 0
-3.16911e-08 -1.7283e-10 0
-3.16221e-08 -1.35422e-10 0
-3.15719e-08 -1.03078e-10 0
-3.15356e-08 -7.67649e-11 0
-3.15094e-08 -5.62031e-11 0
-3.14906e-08 -4.05859e-11 0
-3.1477e-08 -2.89663e-11 0
-3.14671e-08 -2.04481e-11 0
-3.14599e-08 -1.42647e-11 0
-3.14546e-08 -9.79472e-12 0
-3.14507e-08 -6.5464e-12 0
-3.14478e-08 -4.13065e-12 0
-3.14457e-08 -2.21773e-12 0
-3.14444e-08 -4.40978e-13 0
-3.14436e-08 1.59219e-12 0
-3.14433e-08 4.04562e-12 0
-3.14432e-08 6.73659e-12 0
-3.14438e-08 9.21975e-12 0
0.00909998 -9.39433e-08 0
0 -1.22712e-06 0
-1.31447e-12 -1.34246e-08 0
5.3825e-09 -3.62891e-08 0
1.08135e-08 -4.66228e-08 0
-1.96983e-09 -3.71071e-08 0
-8.48471e-12 -1.33634e-08 0
-1.89025e-10 -2.22399e-10 0
2.01076e-10 -2.18256e-10 0
-1.37536e-08 -1.51857e-08 0
-4.27344e-08 -4.29916e-08 0
-5.07171e-08 -5.77845e-08 0
-5.07072e-08 -5.24454e-08 0
-5.81745e-08 -2.91864e-08 0
-6.83273e-08 1.15889e-09 0
-7.45719e-08 2.36734e-08 0
-7.39595e-08 3.23332e-08 0
-6.59258e-08 2.97998e-08 0
-5.29795e-08 2.26303e-08 0
-3.95751e-08 1.55871e-08 0
-2.89935e-08 1.01787e-08 0
-2.20089e-08 6.25108e-09 0
-1.78085e-08 3.41282e-09 0
-1.52845e-08 1.42885e-09 0
-1.36527e-08 1.48341e-10 0
-1.25003e-08 -5.7866e-10 0
-1.16427e-08 -9.09387e-10 0
-1.09976e-08 -9.86441e-10 0
-1.05189e-08 -9.21346e-10 0
-1.01714e-08 -7.91078e-10 0
-9.92481e-09 -6.4304e-10 0
-9.7532e-09 -5.02956e-10 0
-9.63561e-09 -3.82376e-10 0
-9.5559e-09 -2.84501e-10 0
-9.50217e-09 -2.08168e-10 0
-9.46598e-09 -1.50323e-10 0
-9.44148e-09 -1.07412e-10 0
-9.42473e-09 -7.60913e-11 0
-9.4131e-09 -5.35079e-11 0
-9.40487e-09 -3.73729e-11 0
-9.39894e-09 -2.59172e-11 0
-9.39457e-09 -1.78074e-11 0
-9.39129e-09 -1.2055e-11 0
-9.38878e-09 -7.92953e-12 0
-9.38681e-09 -4.86853e-12 0
-9.38521e-09 -2.42716e-12 0
-9.38385e-09 -3.23756e-13 0
-9.38245e-09 1.51692e-12 0
-9.3808e-09 3.00207e-12 0
-9.37897e-09 4.08016e-12 0
-9.37819e-09 5.05444e-12 0
0.00940282 -5.23466e-08 0
0 -1.10697e-06 0
-1.05868e-11 -1.47352e-08 0
-3.36972e-09 -3.13611e-08 0
-4.41628e-09 -3.65065e-08 0
-1.59338e-08 -3.8548e-08 0
-1.42789e-08 -1.86707e-08 0
-1.97258e-10 1.89011e-10 0
1.22202e-11 -1.22202e-11 0
1.90672e-10 -2.11588e-10 0
-2.26838e-08 -2.39339e-08 0
-6.03107e-08 -6.08237e-08 0
-6.26223e-08 -6.32483e-08 0
-6.52405e-08 -3.36044e-08 0
-6.7187e-08 2.28644e-09 0
-6.92433e-08 2.75218e-08 0
-7.11007e-08 3.51616e-08 0
-6.78589e-08 2.86769e-08 0
-5.6999e-08 1.72105e-08 0
-4.20487e-08 7.54085e-09 0
-2.82054e-08 1.48548e-09 0
-1.81105e-08 -1.76538e-09 0
-1.17222e-08 -3.31609e-09 0
-7.93756e-09 -3.86512e-09 0
-5.71418e-09 -3.80988e-09 0
-4.37788e-09 -3.41257e-09 0
-3.55374e-09 -2.86257e-09 0
-3.03921e-09 -2.28814e-09 0
-2.71924e-09 -1.76355e-09 0
-2.52341e-09 -1.32196e-09 0
-2.40637e-09 -9.70086e-10 0
-2.33842e-09 -7.00363e-10 0
-2.30024e-09 -4.99369e-10 0
-2.27957e-09 -3.52679e-10 0
-2.26881e-09 -2.47266e-10 0
-2.2634e-09 -1.72384e-10 0
-2.2607e-09 -1.19645e-10 0
-2.25927e-09 -8.27356e-11 0
-2.25832e-09 -5.70204e-11 0
-2.25752e-09 -3.91565e-11 0
-2.25671e-09 -2.67619e-11 0
-2.25587e-09 -1.81524e-11 0
-2.25497e-09 -1.21383e-11 0
-2.25402e-09 -7.88023e-12 0
-2.25299e-09 -4.81042e-12 0
-2.25179e-09 -2.58737e-12 0
-2.25039e-09 -1.02703e-12 0
-2.2487e-09 -1.81381e-14 0
-2.24681e-09 4.97797e-13 0
-2.24507e-09 4.96282e-13 0
-2.24455e-09 3.26644e-13 0
0.0094684 7.57121e-09 0
0 -7.66575e-07 0
-5.99972e-12 -9.5026e-09 0
-3.71879e-09 -2.40736e-08 0
-4.30676e-09 -3.07795e-08 0
-2.41725e-08 -2.91148e-08 0
-3.55106e-08 -1.59302e-08 0
-1.44961e-08 -3.02296e-09 0
-1.91529e-10 1.8653e-10 0
4.26179e-12 -4.26179e-12 0
1.7691e-10 -2.04515e-10 0
-2.76695e-08 -3.54246e-08 0
-4.51655e-08 -6.14341e-08 0
-5.17811e-08 -3.20571e-08 0
-4.969e-08 5.2531e-09 0
-4.62547e-08 3.10843e-08 0
-4.81862e-08 3.76864e-08 0
-5.14236e-08 2.80359e-08 0
-4.82871e-08 1.27021e-08 0
-3.83891e-08 3.77707e-10 0
-2.68907e-08 -6.4516e-09 0
-1.79249e-08 -9.0376e-09 0
-1.24814e-08 -9.20508e-09 0
-9.75499e-09 -8.21342e-09 0
-8.63863e-09 -6.78457e-09 0
-8.32817e-09 -5.31433e-09 0
-8.36653e-09 -4.00291e-09 0
-8.52759e-09 -2.92819e-09 0
-8.7105e-09 -2.09612e-09 0
-8.87546e-09 -1.47705e-09 0
-9.0105e-09 -1.02925e-09 0
-9.11539e-09 -7.11698e-10 0
-9.19422e-09 -4.89578e-10 0
-9.25209e-09 -3.35645e-10 0
-9.29381e-09 -2.29615e-10 0
-9.32338e-09 -1.56859e-10 0
-9.344e-09 -1.07047e-10 0
-9.35811e-09 -7.29836e-11 0
-9.36755e-09 -4.96979e-11 0
-9.3737e-09 -3.37737e-11 0
-9.37754e-09 -2.28691e-11 0
-9.37978e-09 -1.53826e-11 0
-9.38093e-09 -1.0228e-11 0
-9.38129e-09 -6.68156e-12 0
-9.38107e-09 -4.26866e-12 0
-9.38039e-09 -2.67969e-12 0
-9.37941e-09 -1.71851e-12 0
-9.37822e-09 -1.28322e-12 0
-9.37695e-09 -1.41496e-12 0
-9.37596e-09 -2.38063e-12 0
-9.37601e-09 -4.11816e-12 0
0.00940278 6.45528e-08 0
0 -5.37917e-07 0
4.53992e-13 -7.22455e-09 0
-1.97439e-09 -1.79915e-08 0
-6.50766e-09 -2.29386e-08 0
-2.52341e-08 -1.95088e-08 0
-4.39847e-08 -7.63038e-09 0
-3.88127e-08 -7.446e-10 0
-2.01882e-08 -4.51848e-10 0
-1.98507e-10 1.74565e-10 0
1.73775e-10 1.68915e-10 0
1.67518e-12 -1.89535e-08 0
-2.88929e-08 -3.20815e-08 0
-5.05373e-08 -1.16836e-08 0
-5.05434e-08 1.40815e-08 0
-3.43448e-08 2.96441e-08 0
-2.24214e-08 3.11263e-08 0
-2.35003e-08 2.10766e-08 0
-2.8775e-08 7.08105e-09 0
-3.00387e-08 -3.88094e-09 0
-2.7682e-08 -9.51424e-09 0
-2.51338e-08 -1.09685e-08 0
-2.41327e-08 -1.01304e-08 0
-2.45708e-08 -8.3747e-09 0
-2.57388e-08 -6.46927e-09 0
-2.7058e-08 -4.77443e-09 0
-2.82301e-08 -3.41436e-09 0
-2.91586e-08 -2.39017e-09 0
-2.98491e-08 -1.65026e-09 0
-3.0344e-08 -1.12992e-09 0
-3.0691e-08 -7.70125e-10 0
-3.09313e-08 -5.23784e-10 0
-3.10964e-08 -3.55997e-10 0
-3.12094e-08 -2.41969e-10 0
-3.12864e-08 -1.64512e-10 0
-3.13387e-08 -1.11875e-10 0
-3.13741e-08 -7.60762e-11 0
-3.13978e-08 -5.17076e-11 0
-3.14135e-08 -3.51045e-11 0
-3.14238e-08 -2.3782e-11 0
-3.14303e-08 -1.60556e-11 0
-3.14344e-08 -1.0786e-11 0
-3.14367e-08 -7.20414e-12 0
-3.14379e-08 -4.79207e-12 0
-3.14382e-08 -3.20616e-12 0
-3.14381e-08 -2.23259e-12 0
-3.14377e-08 -1.76564e-12 0
-3.14371e-08 -1.80104e-12 0
-3.14365e-08 -2.48785e-12 0
-3.14363e-08 -4.34649e-12 0
-3.14373e-08 -7.76536e-12 0
0.00909992 9.74103e-08 0
0 -4.58111e-07 0
1.65949e-12 -3.89915e-09 0
-1.12891e-09 -1.068e-08 0
-1.02199e-08 -1.52076e-08 0
-3.21717e-08 -1.37843e-08 0
-5.32344e-08 -1.83746e-09 0
-5.31472e-08 5.78577e-09 0
-4.46695e-08 -1.03987e-08 0
-2.78949e-08 -1.26646e-08 0
-2.55371e-08 1.79836e-14 0
-2.84996e-08 -2.94949e-09 0
-5.15977e-08 1.81981e-09 0
-7.17232e-08 1.58115e-08 0
-6.51894e-08 2.16727e-08 0
-3.49897e-08 1.71682e-08 0
-1.14259e-08 8.70696e-09 0
-1.20802e-08 1.12064e-09 0
-2.62942e-08 -3.75058e-09 0
-3.86572e-08 -5.78887e-09 0
-4.49726e-08 -5.91849e-09 0
-4.78896e-08 -5.2186e-09 0
-4.99816e-08 -4.3202e-09 0
-5.20874e-08 -3.4509e-09 0
-5.41419e-08 -2.67498e-09 0
-5.5934e-08 -2.01672e-09 0
-5.73609e-08 -1.48474e-09 0
-5.84287e-08 -1.07299e-09 0
-5.91965e-08 -7.64958e-10 0
-5.97353e-08 -5.40111e-10 0
-6.0108e-08 -3.78729e-10 0
-6.03637e-08 -2.64205e-10 0
-6.05385e-08 -1.83562e-10 0
-6.06577e-08 -1.27093e-10 0
-6.07388e-08 -8.77193e-11 0
-6.07938e-08 -6.0363e-11 0
-6.08309e-08 -4.14145e-11 0
-6.08558e-08 -2.83258e-11 0
-6.08723e-08 -1.93076e-11 0
-6.08831e-08 -1.31097e-11 0
-6.089e-08 -8.86263e-12 0
-6.08942e-08 -5.96499e-12 0
-6.08967e-08 -4.00412e-12 0
-6.0898e-08 -2.70204e-12 0
-6.08986e-08 -1.88192e-12 0
-6.08987e-08 -1.44526e-12 0
-6.08986e-08 -1.36174e-12 0
-6.08984e-08 -1.68961e-12 0
-6.08985e-08 -2.59535e-12 0
-6.08995e-08 -4.61561e-12 0
-6.09024e-08 -8.4305e-12 0
0.00817148 8.58111e-08 0
0 -4.7383e-07 0
6.03574e-12 -9.25563e-10 0
-8.52941e-10 -3.44802e-09 0
-1.28801e-08 -5.9056e-09 0
-3.58182e-08 -5.87463e-09 0
-5.72207e-08 -3.50705e-09 0
-5.88266e-08 -3.76194e-10 0
-5.14907e-08 -4.94809e-09 0
-5.93987e-08 -6.25261e-09 0
-5.62268e-08 4.11264e-09 0
-5.14022e-08 1.24069e-08 0
-5.06837e-08 1.57519e-08 0
-4.89245e-08 1.44484e-08 0
-3.64734e-08 9.34391e-09 0
-1.55693e-08 1.53156e-09 0
-5.97789e-09 -6.49596e-09 0
-1.64347e-08 -1.04064e-08 0
-3.53064e-08 -8.80539e-09 0
-4.95161e-08 -4.65984e-09 0
-5.62146e-08 -1.30426e-09 0
-5.84895e-08 2.36561e-10 0
-5.93182e-08 5.23652e-10 0
-5.99938e-08 3.21412e-10 0
-6.07698e-08 6.37135e-11 0
-6.15664e-08 -1.05415e-10 0
-6.22825e-08 -1.79325e-10 0
-6.28697e-08 -1.90441e-10 0
-6.33231e-08 -1.70083e-10 0
-6.36599e-08 -1.38692e-10 0
-6.39036e-08 -1.07045e-10 0
-6.4077e-08 -7.9712e-11 0
-6.41989e-08 -5.79181e-11 0
-6.42839e-08 -4.13501e-11 0
-6.43426e-08 -2.91376e-11 0
-6.43828e-08 -2.03235e-11 0
-6.44101e-08 -1.40574e-11 0
-6.44283e-08 -9.65265e-12 0
-6.44403e-08 -6.58339e-12 0
-6.44481e-08 -4.46033e-12 0
-6.44528e-08 -3.00205e-12 0
-6.44557e-08 -2.00944e-12 0
-6.44572e-08 -1.3447e-12 0
-6.44579e-08 -9.15734e-13 0
-6.44581e-08 -6.67147e-13 0
-6.4458e-08 -5.72657e-13 0
-6.44578e-08 -6.34565e-13 0
-6.44579e-08 -9.0094e-13 0
-6.44585e-08 -1.43099e-12 0
-6.44602e-08 -2.35718e-12 0
-6.44644e-08 -4.17114e-12 0
0.00575347 3.45653e-08 0
0 0 0
4.44672e-12 0 0
-4.19838e-10 0 0
-6.48445e-09 0 0
-1.68825e-08 0 0
-2.67306e-08 0 0
-3.00002e-08 0 0
-2.70069e-08 0 0
-3.15158e-08 0 0
-3.06929e-08 0 0
-2.29009e-08 0 0
-1.33545e-08 0 0
-6.42768e-09 0 0
-1.54992e-09 0 0
1.57683e-09 0 0
-8.06119e-10 0 0
-9.00823e-09 0 0
-1.81132e-08 0 0
-2.39657e-08 0 0
-2.62299e-08 0 0
-2.65186e-08 0 0
-2.62238e-08 0 0
-2.59733e-08 0 0
-2.59036e-08 0 0
-2.59692e-08 0 0
-2.6098e-08 0 0
-2.62388e-08 0 0
-2.63656e-08 0 0
-2.64691e-08 0 0
-2.65487e-08 0 0
-2.66077e-08 0 0
-2.66503e-08 0 0
-2.66806e-08 0 0
-2.67018e-08 0 0
-2.67163e-08 0 0
-2.67262e-08 0 0
-2.67327e-08 0 0
-2.67369e-08 0 0
-2.67396e-08 0 0
-2.67411e-08 0 0
-2.6742e-08 0 0
-2.67424e-08 0 0
-2.67424e-08 0 0
-2.67424e-08 0 0
-2.67422e-08 0 0
-2.67421e-08 0 0
-2.67421e-08 0 0
-2.67424e-08 0 0
-2.67433e-08 0 0
-2.67455e-08 0 0
0.00201332 0 0
0 0 5.28325e-07
-2.10308e-12 0 -6.03146e-10
9.65346e-09 0 4.59751e-09
1.93689e-08 0 2.56368e-08
-4.8369e-08 0 2.1323e-08
-5.12454e-09 0 6.99223e-11
3.13624e-09 0 -5.43737e-09
7.15751e-09 0 -1.02507e-08
1.23421e-08 0 -1.0795e-08
1.66855e-08 0 -9.31302e-09
2.36131e-08 0 -6.80817e-09
2.96417e-08 0 -3.704e-09
2.68882e-08 0 -9.03248e-10
1.3475e-08 0 5.94174e-10
-4.0842e-09 0 5.34482e-10
-1.85225e-08 0 -2.12257e-10
-2.80742e-08 0 -5.67393e-10
-3.49323e-08 0 -2.58533e-10
-4.12377e-08 0 3.26468e-10
-4.75474e-08 0 7.75031e-10
-5.34368e-08 0 9.39767e-10
-5.83834e-08 0 8.75927e-10
-6.21564e-08 0 6.9922e-10
-6.48111e-08 0 5.01853e-10
-6.65538e-08 0 3.32355e-10
-6.76255e-08 0 2.05836e-10
-6.82395e-08 0 1.19691e-10
-6.85603e-08 0 6.49274e-11
-6.87039e-08 0 3.2086e-11
-6.87474e-08 0 1.34869e-11
-6.87391e-08 0 3.63304e-12
-6.87077e-08 0 -1.11442e-12
-6.86691e-08 0 -3.03418e-12
-6.86315e-08 0 -3.48847e-12
-6.85986e-08 0 -3.25542e-12
-6.85714e-08 0 -2.7573e-12
-6.85496e-08 0 -2.20822e-12
-6.85327e-08 0 -1.70567e-12
-6.85197e-08 0 -1.28503e-12
-6.85098e-08 0 -9.50745e-13
-6.85023e-08 0 -6.93074e-13
-6.84967e-08 0 -4.97448e-13
-6.84924e-08 0 -3.49845e-13
-6.84892e-08 0 -2.35569e-13
-6.84868e-08 0 -1.39138e-13
-6.8485e-08 0 -5.3631e-14
-6.8484e-08 0 2.99467e-14
-6.84837e-08 0 7.54437e-14
-6.84846e-08 0 2.33196e-13
-6.84878e-08 0 1.91266e-12
0.00570609 0 -9.79695e-09
0.0036 -3.05716e-07 -6.30359e-08
0.00359981 -0.00136926 -1.51326e-05
0.00672574 -0.00387537 0.000105389
0.0135953 -0.00598003 -0.000622609
0.0235999 -0.014391 -0.00438031
0.0461928 -0.0131246 -0.00489364
0.0496526 -0.00179493 -0.00166388
0.0494009 0.00273947 -0.000185823
0.044392 0.00505117 0.000532176
0.0387378 0.00521047 0.000493891
0.033572 0.00454962 0.000216214
0.0292454 0.00365544 -5.05976e-05
0.0258533 0.00272612 -0.000235482
0.0233139 0.00188241 -0.000321673
0.0214506 0.00122295 -0.000313412
0.0200868 0.00077814 -0.000240761
0.0190911 0.000506821 -0.000149299
0.0183726 0.000344003 -7.37293e-05
0.0178653 0.000239419 -2.59657e-05
0.0175176 0.000166088 -2.02473e-06
0.0172871 0.000112447 6.94506e-06
0.0171399 7.35073e-05 8.433e-06
0.0170494 4.61679e-05 7.03444e-06
0.016996 2.77472e-05 5.01473e-06
0.016966 1.58431e-05 3.25793e-06
0.0169502 8.46239e-06 1.98056e-06
0.0169427 4.08126e-06 1.1384e-06
0.0169397 1.60871e-06 6.18514e-07
0.016939 3.03179e-07 3.13815e-07
0.0169395 -3.18259e-07 1.43615e-07
0.0169404 -5.58229e-07 5.3458e-08
0.0169414 -5.99333e-07 8.94239e-09
0.0169423 -5.47298e-07 -1.06654e-08
0.016943 -4.6034e-07 -1.73797e-08
0.0169436 -3.68375e-07 -1.79018e-08
0.0169441 -2.85141e-07 -1.58141e-08
0.0169444 -2.15591e-07 -1.29294e-08
0.0169447 -1.60238e-07 -1.00917e-08
0.0169449 -1.17606e-07 -7.6367e-09
0.016945 -8.5544e-08 -5.64694e-09
0.0169451 -6.18759e-08 -4.09273e-09
0.0169452 -4.46976e-08 -2.91509e-09
0.0169453 -3.24658e-08 -2.05582e-09
0.0169453 -2.39939e-08 -1.45644e-09
0.0169453 -1.8467e-08 -1.10265e-09
0.0169453 -1.5307e-08 -8.69713e-10
0.0169454 -1.42127e-08 -3.48105e-10
0.0169454 -1.54584e-08 2.01164e-09
0.0169454 -2.54583e-08 5.76824e-09
0.0169455 -8.23085e-08 -1.4168e-08
0.0169457 -1.30454e-07 -3.59071e-08
0.01 -1.38676e-07 -1.43595e-06
0.0100007 -0.00299061 -0.000587684
0.0148068 -0.00991603 -0.000766667
0.0241456 -0.0176985 -0.00131174
0.0383706 -0.0322761 -0.00339843
0.0588724 -0.0244838 -0.000806366
0.0561559 -0.0025977 0.00312785
0.0556282 0.00522592 0.00330925
0.0498619 0.010273 0.00287789
0.0443668 0.0104683 0.00194162
0.0398518 0.00938955 0.00098736
0.0361391 0.00789953 0.000254515
0.0331605 0.0063038 -0.000252809
0.0308635 0.00481963 -0.00052222
0.0291062 0.00357128 -0.000557821
0.0277727 0.00258371 -0.000439864
0.026785 0.00182965 -0.000276034
0.0260777 0.00126876 -0.000138907
0.0255889 0.000860583 -5.15708e-05
0.0252638 0.00056951 -6.98752e-06
0.0250564 0.000366561 1.0532e-05
0.0249303 0.000228743 1.42778e-05
0.0248578 0.000137883 1.24776e-05
0.024819 7.98378e-05 9.25748e-06
0.0248003 4.39579e-05 6.28894e-06
0.024793 2.25506e-05 4.04036e-06
0.0247915 1.02859e-05 2.4952e-06
0.0247928 3.60883e-06 1.49407e-06
0.0247951 2.28556e-07 8.71003e-07
0.0247976 -1.28408e-06 4.94919e-07
0.0247999 -1.7924e-06 2.73697e-07
0.0248017 -1.8e-06 1.46654e-07
0.0248032 -1.58876e-06 7.54536e-08
0.0248043 -1.30821e-06 3.6618e-08
0.0248052 -1.03161e-06 1.61223e-08
0.0248058 -7.90062e-07 5.77386e-09
0.0248063 -5.92662e-07 8.87688e-10
0.0248066 -4.37934e-07 -1.15652e-09
0.0248068 -3.2008e-07 -1.78827e-09
0.024807 -2.32191e-07 -1.76201e-09
0.0248071 -1.67751e-07 -1.45929e-09
0.0248072 -1.21252e-07 -1.08101e-09
0.0248073 -8.83488e-08 -7.44429e-10
0.0248073 -6.57528e-08 -4.71056e-10
0.0248073 -5.12138e-08 -2.84832e-10
0.0248074 -4.35669e-08 6.79545e-11
0.0248074 -4.33456e-08 1.52788e-09
0.0248074 -5.88126e-08 4.98993e-09
0.0248075 -1.05123e-07 6.33935e-09
0.0248076 -2.06033e-07 -3.31253e-08
0.0248077 -2.74159e-07 -7.16536e-08
0.0148 -9.47669e-07 -1.71881e-06
0.0148023 -0.00528404 -0.00112439
0.0203281 -0.0163423 -0.0024205
0.0273601 -0.0285763 -0.00395788
0.0319288 -0.0457596 -0.00573432
0.0304375 -0.0282608 -0.00135145
0.0267251 -1.20407e-05 0.00327534
0.0261915 0.00713333 0.00345697
0.0298268 0.0146313 0.00331083
0.0302337 0.0141583 0.00231364
0.0294328 0.0124169 0.00132804
0.0285765 0.0105666 0.000476137
0.0278856 0.00858542 -0.000121654
0.0275261 0.00662573 -0.000430585
0.0274014 0.0049005 -0.000471963
0.0274082 0.00349333 -0.00035808
0.0274751 0.00241418 -0.000205205
0.0275568 0.0016274 -8.0847e-05
0.0276312 0.00107285 -4.75163e-06
0.027693 0.000689941 3.00235e-05
0.0277445 0.000430236 3.86795e-05
0.0277881 0.00025814 3.46703e-05
0.0278253 0.000147537 2.65692e-05
0.0278563 7.90308e-05 1.86063e-05
0.0278813 3.8379e-05 1.22874e-05
0.0279008 1.54584e-05 7.7853e-06
0.0279155 3.37058e-06 4.78027e-06
0.0279263 -2.38695e-06 2.86085e-06
0.0279341 -4.63267e-06 1.67393e-06
0.0279397 -5.05913e-06 9.58723e-07
0.0279435 -4.63884e-06 5.37244e-07
0.0279462 -3.90202e-06 2.93907e-07
0.0279481 -3.11801e-06 1.56235e-07
0.0279493 -2.40882e-06 7.99972e-08
0.0279502 -1.81759e-06 3.87989e-08
0.0279508 -1.34828e-06 1.71999e-08
0.0279512 -9.87639e-07 6.33422e-09
0.0279515 -7.16766e-07 1.20421e-09
0.0279517 -5.16751e-07 -9.52213e-10
0.0279518 -3.71038e-07 -1.62534e-09
0.0279519 -2.66147e-07 -1.59528e-09
0.027952 -1.91601e-07 -1.2708e-09
0.027952 -1.39587e-07 -8.7859e-10
0.0279521 -1.04579e-07 -4.55164e-10
0.0279521 -8.30154e-08 1.15097e-10
0.0279521 -7.42357e-08 1.11997e-09
0.0279522 -8.13191e-08 3.22178e-09
0.0279522 -1.10388e-07 4.69709e-09
0.0279522 -1.67327e-07 -5.02704e-09
0.0279523 -2.42077e-07 -5.92362e-08
0.0279523 -2.80864e-07 -1.03693e-07
0.018 -1.9155e-06 -1.6808e-06
0.0180029 -0.00694147 -0.00188545
0.0207051 -0.018785 -0.00491258
0.0206139 -0.0246437 -0.0063187
0.0160187 -0.0267279 -0.0075897
-1.56409e-06 -0.0139372 -0.00429914
9.62937e-05 2.65345e-05 8.95351e-07
-3.33853e-05 3.47611e-05 0.000633591
0.00667547 0.00422162 0.00137425
0.0137509 0.00964975 0.00131855
0.0172035 0.0105908 0.000897339
0.0189154 0.00960653 0.000340078
0.0205711 0.00787717 -0.000140368
0.0222718 0.00592198 -0.000366354
0.0238355 0.00420453 -0.000375533
0.0251719 0.00284497 -0.00027612
0.0262545 0.00184981 -0.000151398
0.0270857 0.0011679 -4.68585e-05
0.0276917 0.000718863 1.99534e-05
0.0281165 0.000427491 5.02964e-05
0.0284078 0.000240167 5.52477e-05
0.0286056 0.000122538 4.72716e-05
0.0287391 5.19819e-05 3.53879e-05
0.0288286 1.25474e-05 2.43324e-05
0.0288881 -7.25551e-06 1.57739e-05
0.0289271 -1.54423e-05 9.79067e-06
0.0289524 -1.729e-05 5.87246e-06
0.0289686 -1.60502e-05 3.42173e-06
0.0289789 -1.35895e-05 1.94153e-06
0.0289853 -1.08937e-05 1.0728e-06
0.0289893 -8.42495e-06 5.75755e-07
0.0289919 -6.35536e-06 2.98214e-07
0.0289934 -4.70893e-06 1.47144e-07
0.0289944 -3.44324e-06 6.72906e-08
0.028995 -2.49304e-06 2.66324e-08
0.0289954 -1.79175e-06 7.014e-09
0.0289956 -1.28067e-06 -1.64184e-09
0.0289958 -9.11799e-07 -4.806e-09
0.0289959 -6.47633e-07 -5.37367e-09
0.0289959 -4.5975e-07 -4.82367e-09
0.028996 -3.27093e-07 -3.87417e-09
0.028996 -2.34383e-07 -2.86345e-09
0.028996 -1.70749e-07 -1.92853e-09
0.028996 -1.28899e-07 -1.02907e-09
0.028996 -1.04797e-07 -9.17356e-11
0.0289961 -9.67472e-08 6.98655e-10
0.0289961 -1.03668e-07 9.79375e-10
0.0289961 -1.21691e-07 -1.73767e-09
0.0289961 -1.46628e-07 -2.17769e-08
0.028996 -1.63451e-07 -7.97356e-08
0.0289959 -1.66321e-07 -1.20353e-07
0.0196 -2.75126e-06 -2.54475e-06
0.0196009 -0.00581808 -0.00274462
0.0190691 -0.0129822 -0.00645566
0.0159994 -0.0159407 -0.00666299
0.0109947 -0.0149099 -0.00668178
0.00179371 -0.00613606 -0.00501468
7.18822e-05 -6.60234e-05 -0.0012824
3.26382e-05 -3.26382e-05 -3.91067e-08
-3.27514e-05 3.40191e-05 0.000239492
0.00408221 0.002962 0.00050533
0.00941558 0.0069709 0.000432535
0.0123345 0.00729942 8.94455e-05
0.0155785 0.00559382 -0.000276926
0.0187306 0.00379602 -0.000412153
0.0214287 0.00236747 -0.000389459
0.023614 0.00132033 -0.000302026
0.0253259 0.000628074 -0.000194567
0.0266113 0.000229016 -9.199e-05
0.0275269 2.80543e-05 -1.44424e-05
0.0281479 -6.22144e-05 2.91033e-05
0.0285542 -9.71121e-05 4.36446e-05
0.0288137 -0.000104484 4.0935e-05
0.0289767 -9.7746e-05 3.1518e-05
0.0290775 -8.42864e-05 2.16124e-05
0.0291388 -6.86914e-05 1.37115e-05
0.0291755 -5.37088e-05 8.21729e-06
0.029197 -4.07183e-05 4.70543e-06
0.0292093 -3.01705e-05 2.58795e-06
0.0292163 -2.19809e-05 1.36698e-06
0.0292201 -1.58185e-05 6.8909e-07
0.0292222 -1.12834e-05 3.26004e-07
0.0292232 -7.99806e-06 1.38949e-07
0.0292237 -5.64448e-06 4.7154e-08
0.0292239 -3.97154e-06 5.21488e-09
0.029224 -2.7889e-06 -1.16295e-08
0.029224 -1.95604e-06 -1.6488e-08
0.029224 -1.37109e-06 -1.60774e-08
0.029224 -9.61117e-07 -1.37011e-08
0.0292239 -6.74342e-07 -1.08893e-08
0.0292239 -4.7424e-07 -8.27635e-09
0.0292239 -3.35178e-07 -6.05856e-09
0.0292239 -2.39311e-07 -4.26089e-09
0.0292239 -1.7445e-07 -2.8689e-09
0.0292239 -1.32388e-07 -1.85836e-09
0.0292239 -1.07251e-07 -1.40989e-09
0.0292238 -9.37529e-08 -1.94253e-09
0.0292238 -8.65031e-08 -3.88211e-09
0.0292238 -7.88997e-08 -8.83348e-09
0.0292238 -6.26755e-08 -3.17288e-08
0.0292237 -2.38113e-08 -8.62487e-08
0.0292236 3.70338e-09 -1.21464e-07
0.0196 -1.31583e-06 -3.52533e-06
0.0195999 -0.00363818 -0.00311742
0.0188171 -0.00794159 -0.00649086
0.0175784 -0.00789103 -0.00605442
0.0133079 -0.00404557 -0.0055653
0.00921714 0.00275106 -0.00528642
0.00618784 0.00321032 -0.00303363
7.20257e-05 -6.00212e-05 -0.000635209
2.72698e-05 -2.72698e-05 -1.25483e-07
-3.21681e-05 3.33348e-05 8.32696e-05
0.00293218 0.00223252 0.000343599
0.00739927 0.00356425 0.000270146
0.0127486 0.00180463 -0.00011384
0.0174076 0.00045264 -0.000278038
0.0209861 -0.000331989 -0.000304472
0.0236163 -0.000780806 -0.000283015
0.0255175 -0.000967962 -0.0002335
0.0268518 -0.000941777 -0.000159586
0.0277404 -0.000793132 -8.23959e-05
0.0282968 -0.000613001 -2.5202e-05
0.0286261 -0.000452395 4.9377e-06
0.028812 -0.000325993 1.47581e-05
0.0289124 -0.00023153 1.42043e-05
0.0289641 -0.000162559 1.03067e-05
0.028989 -0.000112985 6.42949e-06
0.0289999 -7.78711e-05 3.607e-06
0.0290036 -5.33377e-05 1.844e-06
0.0290041 -3.63934e-05 8.48762e-07
0.0290032 -2.47899e-05 3.31746e-07
0.0290019 -1.68864e-05 8.5302e-08
0.0290006 -1.15173e-05 -1.91879e-08
0.0289995 -7.87156e-06 -5.4471e-08
0.0289986 -5.39318e-06 -5.89365e-08
0.0289979 -3.70484e-06 -5.15811e-08
0.0289974 -2.55167e-06 -4.11367e-08
0.028997 -1.76185e-06 -3.12045e-08
0.0289967 -1.2195e-06 -2.29757e-08
0.0289965 -8.4627e-07 -1.66007e-08
0.0289964 -5.89069e-07 -1.18403e-08
0.0289963 -4.11792e-07 -8.35542e-09
0.0289962 -2.89855e-07 -5.82758e-09
0.0289962 -2.06453e-07 -4.03817e-09
0.0289961 -1.49894e-07 -2.91071e-09
0.0289961 -1.11634e-07 -2.44261e-09
0.0289961 -8.49304e-08 -2.78915e-09
0.028996 -6.38604e-08 -4.08111e-09
0.028996 -4.2655e-08 -6.36046e-09
0.028996 -1.41632e-08 -1.08457e-08
0.0289959 3.47166e-08 -3.03596e-08
0.0289959 1.19341e-07 -7.77144e-08
0.0289958 1.72224e-07 -1.08649e-07
0.018 -8.48925e-07 -3.5046e-06
0.0180009 -0.00196998 -0.00303969
0.0183379 -0.00375202 -0.00613741
0.0184322 -0.00246175 -0.00529366
0.0174644 0.00085452 -0.00424393
0.0172193 0.00723264 -0.00396839
0.0179489 0.0126345 -0.00292167
0.0110473 0.00693523 -0.00141868
7.35278e-05 -4.65147e-05 -0.000413668
-2.53329e-05 -5.40261e-05 5.44221e-07
7.71984e-06 -0.000552858 0.000746957
0.00851847 -0.00256025 0.00110418
0.0160386 -0.00425217 0.000517914
0.0211314 -0.0041744 0.000245633
0.0242853 -0.00353161 0.000112832
0.0261543 -0.00290187 -9.91271e-06
0.027224 -0.00234502 -0.000117155
0.0278012 -0.00181198 -0.000161771
0.0280757 -0.00131835 -0.000142254
0.0281735 -0.000910514 -9.54926e-05
0.0281795 -0.000607862 -5.32437e-05
0.0281468 -0.000398527 -2.61874e-05
0.0281041 -0.000259066 -1.2025e-05
0.0280646 -0.000167816 -5.50299e-06
0.0280326 -0.000108644 -2.69573e-06
0.0280086 -7.04616e-05 -1.48285e-06
0.0279913 -4.58743e-05 -9.0998e-07
0.0279791 -3.00317e-05 -5.96283e-07
0.0279707 -1.97906e-05 -4.00147e-07
0.0279649 -1.31349e-05 -2.68496e-07
0.0279609 -8.77958e-06 -1.7841e-07
0.0279582 -5.90782e-06 -1.17172e-07
0.0279563 -3.99959e-06 -7.61707e-08
0.027955 -2.72224e-06 -4.91491e-08
0.0279542 -1.86146e-06 -3.15748e-08
0.0279535 -1.27801e-06 -2.02557e-08
0.0279531 -8.80623e-07 -1.30105e-08
0.0279528 -6.08937e-07 -8.38667e-09
0.0279526 -4.22708e-07 -5.43745e-09
0.0279525 -2.94887e-07 -3.55687e-09
0.0279524 -2.07105e-07 -2.37258e-09
0.0279523 -1.46657e-07 -1.69742e-09
0.0279522 -1.04502e-07 -1.47411e-09
0.0279522 -7.39091e-08 -1.65318e-09
0.0279522 -4.94586e-08 -2.281e-09
0.0279521 -2.61329e-08 -3.34955e-09
0.0279521 1.59967e-09 -4.78762e-09
0.0279521 4.11426e-08 -7.6047e-09
0.0279521 1.08459e-07 -1.97462e-08
0.027952 2.17182e-07 -5.7023e-08
0.027952 2.82427e-07 -8.41679e-08
0.0148 -4.76672e-07 -3.10351e-06
0.0148015 -0.00100583 -0.00281393
0.0162532 -0.00154721 -0.00540614
0.0178804 0.000137455 -0.0043137
0.0193028 0.00336545 -0.00313936
0.0211258 0.00746755 -0.00290178
0.0249454 0.0129694 -0.00240099
0.0282233 0.0195559 -0.00146133
0.0231727 0.0113679 -0.000304474
0.0236021 2.8267e-11 0.000634438
0.0267643 -0.00665474 0.00156506
0.0304022 -0.0130407 0.00211746
0.0314492 -0.0111038 0.00167257
0.0309338 -0.0079162 0.00123374
0.0298352 -0.00532912 0.000806741
0.0286649 -0.00355859 0.000383483
0.0276322 -0.00237688 3.43551e-05
0.0268031 -0.00156098 -0.00015822
0.0261784 -0.000993379 -0.000198148
0.0257291 -0.00061447 -0.000156757
0.0254168 -0.00037502 -9.94096e-05
0.0252055 -0.000229238 -5.53012e-05
0.0250655 -0.000141596 -2.83822e-05
0.0249742 -8.86616e-05 -1.38737e-05
0.0249153 -5.62933e-05 -6.59358e-06
0.0248774 -3.6217e-05 -3.08518e-06
0.0248532 -2.35878e-05 -1.42923e-06
0.0248375 -1.55344e-05 -6.54299e-07
0.0248274 -1.03319e-05 -2.92479e-07
0.0248208 -6.93026e-06 -1.23868e-07
0.0248164 -4.68186e-06 -4.59901e-08
0.0248135 -3.18163e-06 -1.09742e-08
0.0248116 -2.1726e-06 3.7558e-09
0.0248103 -1.48945e-06 8.97695e-09
0.0248094 -1.02445e-06 9.88585e-09
0.0248088 -7.06602e-07 8.9931e-09
0.0248083 -4.8863e-07 7.49466e-09
0.024808 -3.38796e-07 5.9357e-09
0.0248078 -2.35617e-07 4.53832e-09
0.0248077 -1.64425e-07 3.3676e-09
0.0248076 -1.15079e-07 2.41572e-09
0.0248075 -8.04319e-08 1.63224e-09
0.0248075 -5.52687e-08 9.51039e-10
0.0248074 -3.5533e-08 3.47126e-10
0.0248074 -1.76758e-08 -2.53431e-10
0.0248074 1.90522e-09 -8.37312e-10
0.0248074 2.76709e-08 -1.25159e-09
0.0248074 6.52686e-08 -2.29005e-09
0.0248074 1.26147e-07 -7.49341e-09
0.0248075 2.1755e-07 -3.53904e-08
0.0248076 2.70616e-07 -5.89812e-08
0.01 -9.09907e-07 -2.80463e-06
0.0100007 -0.000618452 -0.00229322
0.0113553 -0.000661837 -0.00414148
0.0133062 0.000633417 -0.00295511
0.0158733 0.00261006 -0.001898