# vtk DataFile Version 2.0
Tobias Weinzierl: CPU, Manycore and Cluster Computing
ASCII

DATASET STRUCTURED_POINTS
DIMENSIONS  51 11 6

ORIGIN 0 0 0 

SPACING 0.1 0.1 0.1 

POINT_DATA 3366

VECTORS velocity float
0 0 0
-1.58655e-12 0 0
1.95468e-09 0 0
3.44121e-09 0 0
-5.81229e-09 0 0
4.88162e-09 0 0
6.28525e-09 0 0
5.07295e-09 0 0
4.44066e-09 0 0
3.27316e-09 0 0
1.83887e-09 0 0
1.00085e-09 0 0
1.14416e-10 0 0
-2.06459e-09 0 0
-5.31026e-09 0 0
-8.12581e-09 0 0
-9.59171e-09 0 0
-1.00516e-08 0 0
-1.03419e-08 0 0
-1.09782e-08 0 0
-1.19955e-08 0 0
-1.31794e-08 0 0
-1.43022e-08 0 0
-1.52281e-08 0 0
-1.59169e-08 0 0
-1.63888e-08 0 0
-1.66891e-08 0 0
-1.6866e-08 0 0
-1.69606e-08 0 0
-1.70038e-08 0 0
-1.70172e-08 0 0
-1.70148e-08 0 0
-1.70052e-08 0 0
-1.69933e-08 0 0
-1.69818e-08 0 0
-1.69718e-08 0 0
-1.69637e-08 0 0
-1.69574e-08 0 0
-1.69528e-08 0 0
-1.69494e-08 0 0
-1.69471e-08 0 0
-1.69456e-08 0 0
-1.69446e-08 0 0
-1.6944e-08 0 0
-1.69437e-08 0 0
-1.69437e-08 0 0
-1.69439e-08 0 0
-1.69444e-08 0 0
-1.69449e-08 0 0
-1.69453e-08 0 0
0.00195989 0 0
0 3.79826e-07 0
-4.1955e-12 -1.95207e-09 0
2.99155e-09 -5.04419e-09 0
7.58589e-09 -1.61586e-09 0
-3.10674e-09 -8.00634e-09 0
1.63144e-08 -1.07154e-08 0
1.81344e-08 9.95765e-11 0
1.46979e-08 2.45792e-09 0
1.34346e-08 2.47119e-09 0
1.19155e-08 2.31955e-09 0
9.25229e-09 1.19814e-09 0
6.53253e-09 9.04099e-10 0
3.16988e-09 2.96131e-09 0
-2.11664e-09 5.56006e-09 0
-8.37962e-09 6.03995e-09 0
-1.32379e-08 4.25475e-09 0
-1.58696e-08 2.04252e-09 0
-1.75038e-08 8.26546e-10 0
-1.9675e-08 6.98702e-10 0
-2.29473e-08 1.05242e-09 0
-2.69564e-08 1.35707e-09 0
-3.10106e-08 1.41376e-09 0
-3.4555e-08 1.25639e-09 0
-3.73268e-08 9.93395e-10 0
-3.93093e-08 7.16874e-10 0
-4.06224e-08 4.78106e-10 0
-4.14305e-08 2.94878e-10 0
-4.18886e-08 1.657e-10 0
-4.21207e-08 8.09142e-11 0
-4.22164e-08 2.91044e-11 0
-4.22358e-08 5.25218e-14 0
-4.22169e-08 -1.42711e-11 0
-4.21823e-08 -1.96788e-11 0
-4.21446e-08 -2.01147e-11 0
-4.21098e-08 -1.80981e-11 0
-4.20804e-08 -1.51373e-11 0
-4.20571e-08 -1.20653e-11 0
-4.20392e-08 -9.28973e-12 0
-4.2026e-08 -6.96684e-12 0
-4.20165e-08 -5.11589e-12 0
-4.20099e-08 -3.6896e-12 0
-4.20054e-08 -2.61506e-12 0
-4.20024e-08 -1.81669e-12 0
-4.20005e-08 -1.22613e-12 0
-4.19995e-08 -7.82411e-13 0
-4.19992e-08 -4.34515e-13 0
-4.19996e-08 -1.30321e-13 0
-4.20006e-08 2.13069e-13 0
-4.20022e-08 9.04241e-13 0
-4.20039e-08 2.91788e-12 0
0.00562295 -2.9951e-08 0
0 -2.08752e-08 0
-3.55334e-12 -1.86975e-09 0
3.59233e-09 -8.12537e-09 0
1.33922e-08 -1.31952e-08 0
1.51625e-08 -2.54197e-08 0
3.07418e-08 -2.13573e-08 0
2.63603e-08 -1.84479e-09 0
2.41609e-08 3.52154e-11 0
2.02739e-08 -5.06138e-09 0
1.46053e-08 -1.03714e-08 0
7.14104e-09 -1.22856e-08 0
2.26202e-09 -8.73674e-09 0
-6.29869e-10 -1.77488e-09 0
-5.17987e-09 4.26601e-09 0
-1.09131e-08 7.65474e-09 0
-1.52559e-08 9.43436e-09 0
-1.73506e-08 1.05734e-08 0
-1.84146e-08 1.11096e-08 0
-1.99946e-08 1.08832e-08 0
-2.27552e-08 9.9353e-09 0
-2.64205e-08 8.46937e-09 0
-3.02877e-08 6.75525e-09 0
-3.37251e-08 5.0531e-09 0
-3.63982e-08 3.55263e-09 0
-3.82572e-08 2.34846e-09 0
-3.94229e-08 1.45363e-09 0
-4.00753e-08 8.31279e-10 0
-4.03859e-08 4.24194e-10 0
-4.04893e-08 1.74274e-10 0
-4.04797e-08 3.19879e-11 0
-4.04171e-08 -4.07591e-11 0
-4.03369e-08 -7.12309e-11 0
-4.02578e-08 -7.78137e-11 0
-4.01884e-08 -7.22341e-11 0
-4.01316e-08 -6.15401e-11 0
-4.00872e-08 -4.96723e-11 0
-4.00536e-08 -3.86168e-11 0
-4.00288e-08 -2.92001e-11 0
-4.0011e-08 -2.16097e-11 0
-3.99984e-08 -1.5715e-11 0
-3.99898e-08 -1.12556e-11 0
-3.99839e-08 -7.94127e-12 0
-3.998e-08 -5.50187e-12 0
-3.99775e-08 -3.70694e-12 0
-3.99762e-08 -2.35968e-12 0
-3.99757e-08 -1.27881e-12 0
-3.99761e-08 -2.42356e-13 0
-3.99775e-08 1.16238e-12 0
-3.99794e-08 3.38567e-12 0
-3.99813e-08 6.68525e-12 0
0.00804777 -6.76507e-08 0
0 -6.29841e-07 0
4.45114e-13 -3.85438e-09 0
5.48315e-09 -1.34708e-08 0
1.72265e-08 -2.52158e-08 0
1.6916e-08 -3.46064e-08 0
1.93099e-08 -1.90181e-08 0
1.45121e-08 -1.56475e-11 0
1.45356e-08 -2.13834e-09 0
5.27753e-09 -1.04938e-08 0
-4.55701e-09 -2.04645e-08 0
-1.03786e-08 -2.58305e-08 0
-1.27e-08 -2.63058e-08 0
-1.3943e-08 -2.03615e-08 0
-1.9135e-08 -8.74851e-09 0
-2.62769e-08 4.67504e-09 0
-3.1311e-08 1.5517e-08 0
-3.22346e-08 2.09375e-08 0
-2.96639e-08 2.11993e-08 0
-2.56432e-08 1.85011e-08 0
-2.21248e-08 1.48654e-08 0
-2.0021e-08 1.13216e-08 0
-1.92214e-08 8.21358e-09 0
-1.9161e-08 5.63388e-09 0
-1.93201e-08 3.6054e-09 0
-1.94136e-08 2.10662e-09 0
-1.93601e-08 1.0726e-09 0
-1.91853e-08 4.10974e-10 0
-1.89466e-08 2.38359e-11 0
-1.86945e-08 -1.75932e-10 0
-1.84614e-08 -2.57171e-10 0
-1.82632e-08 -2.69619e-10 0
-1.81038e-08 -2.46586e-10 0
-1.79808e-08 -2.08794e-10 0
-1.78888e-08 -1.68109e-10 0
-1.78215e-08 -1.30595e-10 0
-1.77733e-08 -9.8773e-11 0
-1.77393e-08 -7.3172e-11 0
-1.77157e-08 -5.33187e-11 0
-1.76995e-08 -3.83297e-11 0
-1.76885e-08 -2.72364e-11 0
-1.76812e-08 -1.91447e-11 0
-1.76765e-08 -1.32978e-11 0
-1.76735e-08 -9.08491e-12 0
-1.76717e-08 -6.02201e-12 0
-1.76709e-08 -3.71798e-12 0
-1.76708e-08 -1.80786e-12 0
-1.76714e-08 8.48426e-14 0
-1.76725e-08 2.24721e-12 0
-1.76734e-08 4.69808e-12 0
-1.76735e-08 7.01297e-12 0
0.00904044 -7.11557e-08 0
0 -1.23097e-06 0
-1.04026e-12 -7.40286e-09 0
2.21853e-09 -2.04039e-08 0
6.4707e-09 -2.68075e-08 0
3.0058e-09 -2.16842e-08 0
-4.83165e-12 -7.89515e-09 0
-6.65391e-11 -9.92916e-11 0
8.03018e-11 -8.69108e-11 0
-6.00292e-09 -8.69194e-09 0
-2.34788e-08 -2.67645e-08 0
-3.01663e-08 -4.02492e-08 0
-2.86126e-08 -4.25537e-08 0
-3.06038e-08 -3.18843e-08 0
-3.65092e-08 -1.18575e-08 0
-4.26127e-08 8.50182e-09 0
-4.61254e-08 2.21946e-08 0
-4.53949e-08 2.64657e-08 0
-4.00107e-08 2.34982e-08 0
-3.14859e-08 1.75824e-08 0
-2.24732e-08 1.18391e-08 0
-1.50261e-08 7.38237e-09 0
-9.79382e-09 4.18765e-09 0
-6.42346e-09 1.96474e-09 0
-4.27411e-09 4.81144e-10 0
-2.83251e-09 -4.28783e-10 0
-1.79865e-09 -9.0681e-10 0
-1.0245e-09 -1.08373e-09 0
-4.38793e-10 -1.0722e-09 0
-6.9465e-13 -9.59103e-10 0
3.20254e-10 -8.04285e-10 0
5.50078e-10 -6.44472e-10 0
7.11167e-10 -4.99234e-10 0
8.2198e-10 -3.76788e-10 0
8.96999e-10 -2.7861e-10 0
9.47102e-10 -2.02677e-10 0
9.80172e-10 -1.4551e-10 0
1.00176e-09 -1.03354e-10 0
1.01568e-09 -7.2763e-11 0
1.02452e-09 -5.08399e-11 0
1.03001e-09 -3.52769e-11 0
1.03331e-09 -2.43004e-11 0
1.0352e-09 -1.6579e-11 0
1.03619e-09 -1.11289e-11 0
1.03659e-09 -7.21792e-12 0
1.03657e-09 -4.28282e-12 0
1.03625e-09 -1.91198e-12 0
1.03582e-09 1.22373e-13 0
1.03557e-09 1.83808e-12 0
1.03596e-09 3.16052e-12 0
1.03716e-09 4.11287e-12 0
0.00939419 -3.9827e-08 0
0 -1.11361e-06 0
-7.21045e-12 -8.10033e-09 0
-2.66349e-09 -1.77627e-08 0
-2.86794e-09 -2.08031e-08 0
-7.10812e-09 -2.07297e-08 0
-6.04125e-09 -9.59313e-09 0
-6.87795e-11 6.62076e-11 0
1.43576e-11 -1.43576e-11 0
7.44618e-11 -8.5783e-11 0
-1.29593e-08 -1.48523e-08 0
-3.72718e-08 -4.16997e-08 0
-4.00202e-08 -5.06788e-08 0
-4.21715e-08 -3.65829e-08 0
-4.39821e-08 -1.27047e-08 0
-4.44577e-08 1.01694e-08 0
-4.45478e-08 2.45171e-08 0
-4.3648e-08 2.74138e-08 0
-3.94054e-08 2.17766e-08 0
-3.1108e-08 1.32297e-08 0
-2.0856e-08 5.852e-09 0
-1.14338e-08 9.25963e-10 0
-4.34611e-09 -1.88366e-09 0
3.36588e-10 -3.25829e-09 0
3.21745e-09 -3.72879e-09 0
4.94727e-09 -3.64844e-09 0
5.9916e-09 -3.26077e-09 0
6.63124e-09 -2.73785e-09 0
7.02602e-09 -2.19419e-09 0
7.26835e-09 -1.6964e-09 0
7.41435e-09 -1.27512e-09 0
7.49968e-09 -9.37387e-10 0
7.54742e-09 -6.77101e-10 0
7.57251e-09 -4.82337e-10 0
7.58442e-09 -3.39841e-10 0
7.58897e-09 -2.37375e-10 0
7.58968e-09 -1.64669e-10 0
7.58852e-09 -1.13606e-10 0
7.58661e-09 -7.80238e-11 0
7.58451e-09 -5.33721e-11 0
7.58247e-09 -3.63599e-11 0
7.58063e-09 -2.46415e-11 0
7.57903e-09 -1.6559e-11 0
7.57769e-09 -1.09434e-11 0
7.5766e-09 -6.98002e-12 0
7.57575e-09 -4.13409e-12 0
7.57514e-09 -2.09794e-12 0
7.57483e-09 -7.1295e-13 0
7.57489e-09 1.06632e-13 0
7.57548e-09 3.51171e-13 0
7.5767e-09 2.12718e-13 0
0.00947691 8.02954e-09 0
0 -7.68815e-07 0
-5.79117e-12 -4.90121e-09 0
-2.81279e-09 -1.24701e-08 0
-2.50896e-09 -1.63059e-08 0
-1.04944e-08 -1.61328e-08 0
-1.52619e-08 -9.81219e-09 0
-6.79448e-09 -2.41304e-09 0
-6.83096e-11 6.38115e-11 0
1.09461e-11 -1.09461e-11 0
6.61697e-11 -8.28918e-11 0
-1.72119e-08 -2.4523e-08 0
-3.18854e-08 -4.75855e-08 0
-3.91358e-08 -3.46037e-08 0
-4.032e-08 -1.05456e-08 0
-3.67524e-08 1.13307e-08 0
-3.23045e-08 2.42671e-08 0
-2.97884e-08 2.56974e-08 0
-2.7464e-08 1.84657e-08 0
-2.26132e-08 8.46891e-09 0
-1.54553e-08 2.59512e-10 0
-8.26148e-09 -4.69775e-09 0
-2.82344e-09 -6.89731e-09 0
4.50087e-10 -7.31346e-09 0
2.02521e-09 -6.74542e-09 0
2.56037e-09 -5.72805e-09 0
2.56875e-09 -4.59339e-09 0
2.36142e-09 -3.52981e-09 0
2.09861e-09 -2.62572e-09 0
1.85136e-09 -1.90517e-09 0
1.64472e-09 -1.35641e-09 0
1.48243e-09 -9.52028e-10 0
1.35961e-09 -6.61125e-10 0
1.26888e-09 -4.55517e-10 0
1.20294e-09 -3.12051e-10 0
1.15552e-09 -2.12869e-10 0
1.12168e-09 -1.44757e-10 0
1.09763e-09 -9.81994e-11 0
1.08055e-09 -6.64767e-11 0
1.0684e-09 -4.49055e-11 0
1.05972e-09 -3.02499e-11 0
1.05349e-09 -2.02872e-11 0
1.04902e-09 -1.34998e-11 0
1.04583e-09 -8.86569e-12 0
1.0436e-09 -5.71291e-12 0
1.04208e-09 -3.60978e-12 0
1.04106e-09 -2.28331e-12 0
1.04037e-09 -1.57377e-12 0
1.03999e-09 -1.44062e-12 0
1.03999e-09 -2.06599e-12 0
1.04068e-09 -3.46492e-12 0
0.00939416 5.27769e-08 0
0 -5.39181e-07 0
-2.1996e-12 -3.51578e-09 0
-1.15236e-09 -9.06344e-09 0
-2.48547e-09 -1.22583e-08 0
-1.0086e-08 -1.1287e-08 0
-1.94681e-08 -5.19199e-09 0
-1.90969e-08 -3.01052e-10 0
-1.08088e-08 3.12133e-10 0
-7.33801e-11 5.3775e-11 0
6.56829e-11 4.09076e-11 0
7.26371e-12 -1.36045e-08 0
-1.97148e-08 -2.7629e-08 0
-3.65849e-08 -1.84751e-08 0
-4.27196e-08 1.86159e-10 0
-3.64868e-08 1.42165e-08 0
-2.40339e-08 1.98568e-08 0
-1.49226e-08 1.7703e-08 0
-1.19991e-08 1.05174e-08 0
-1.17395e-08 2.35111e-09 0
-1.10879e-08 -3.74611e-09 0
-9.93775e-09 -6.93323e-09 0
-9.28277e-09 -7.82127e-09 0
-9.58141e-09 -7.34722e-09 0
-1.06269e-08 -6.24466e-09 0
-1.19923e-08 -4.97217e-09 0
-1.33386e-08 -3.77905e-09 0
-1.44898e-08 -2.77572e-09 0
-1.53948e-08 -1.98835e-09 0
-1.60698e-08 -1.39892e-09 0
-1.65564e-08 -9.7187e-10 0
-1.68997e-08 -6.69368e-10 0
-1.71387e-08 -4.58335e-10 0
-1.73036e-08 -3.12596e-10 0
-1.74169e-08 -2.12609e-10 0
-1.74946e-08 -1.44303e-10 0
-1.75478e-08 -9.77705e-11 0
-1.75843e-08 -6.61314e-11 0
-1.76094e-08 -4.4648e-11 0
-1.76268e-08 -3.00742e-11 0
-1.76388e-08 -2.01941e-11 0
-1.76472e-08 -1.35021e-11 0
-1.7653e-08 -8.98214e-12 0
-1.76571e-08 -5.95205e-12 0
-1.766e-08 -3.9564e-12 0
-1.76619e-08 -2.7e-12 0
-1.76634e-08 -2.01155e-12 0
-1.76646e-08 -1.82995e-12 0
-1.76656e-08 -2.23176e-12 0
-1.76664e-08 -3.56982e-12 0
-1.76666e-08 -6.10335e-12 0
0.0090404 7.56473e-08 0
0 -4.577e-07 0
-1.64345e-12 -1.84119e-09 0
-1.79982e-10 -5.11704e-09 0
-3.43421e-09 -7.61589e-09 0
-1.32071e-08 -7.57415e-09 0
-2.48356e-08 -1.56578e-09 0
-2.75201e-08 3.82921e-09 0
-2.44194e-08 -4.24828e-09 0
-1.54225e-08 -6.40826e-09 0
-1.32024e-08 4.20283e-13 0
-1.43562e-08 -5.09658e-09 0
-3.09993e-08 -7.59818e-09 0
-4.78708e-08 1.43998e-09 0
-5.06994e-08 1.1586e-08 0
-3.71733e-08 1.44988e-08 0
-1.77199e-08 1.05282e-08 0
-6.34456e-09 3.93702e-09 0
-6.97045e-09 -1.78066e-09 0
-1.36656e-08 -4.93448e-09 0
-2.02013e-08 -5.64028e-09 0
-2.46331e-08 -5.00533e-09 0
-2.76041e-08 -4.02459e-09 0
-2.9979e-08 -3.14873e-09 0
-3.21034e-08 -2.45558e-09 0
-3.39845e-08 -1.90569e-09 0
-3.55565e-08 -1.46045e-09 0
-3.67953e-08 -1.10031e-09 0
-3.77268e-08 -8.14624e-10 0
-3.84041e-08 -5.93735e-10 0
-3.88853e-08 -4.2705e-10 0
-3.9222e-08 -3.03806e-10 0
-3.94555e-08 -2.1416e-10 0
-3.96164e-08 -1.49797e-10 0
-3.97269e-08 -1.0407e-10 0
-3.98028e-08 -7.18687e-11 0
-3.98549e-08 -4.93599e-11 0
-3.98906e-08 -3.37277e-11 0
-3.99151e-08 -2.29327e-11 0
-3.99321e-08 -1.55166e-11 0
-3.99438e-08 -1.04479e-11 0
-3.9952e-08 -7.00426e-12 0
-3.99577e-08 -4.68508e-12 0
-3.99617e-08 -3.14758e-12 0
-3.99645e-08 -2.16461e-12 0
-3.99666e-08 -1.59926e-12 0
-3.99683e-08 -1.38856e-12 0
-3.99699e-08 -1.54559e-12 0
-3.99715e-08 -2.17402e-12 0
-3.99732e-08 -3.58019e-12 0
-3.99749e-08 -6.09608e-12 0
0.00804776 6.29985e-08 0
0 -4.7232e-07 0
1.00585e-12 -3.18704e-10 0
3.75429e-10 -1.30194e-09 0
-4.17746e-09 -2.45544e-09 0
-1.51579e-08 -2.72649e-09 0
-2.78133e-08 -1.81942e-09 0
-3.16174e-08 4.28427e-10 0
-2.87978e-08 -1.5485e-09 0
-3.32089e-08 -3.35468e-09 0
-3.09785e-08 6.94648e-10 0
-2.883e-08 4.72798e-09 0
-3.25118e-08 7.56446e-09 0
-3.50255e-08 8.21057e-09 0
-3.02899e-08 6.53658e-09 0
-1.77964e-08 3.55303e-09 0
-5.69757e-09 -3.86141e-10 0
-3.02132e-09 -3.98296e-09 0
-1.0083e-08 -5.45654e-09 0
-2.03744e-08 -4.57458e-09 0
-2.84845e-08 -2.68125e-09 0
-3.31966e-08 -1.09516e-09 0
-3.56093e-08 -2.54929e-10 0
-3.69681e-08 1.27782e-11 0
-3.79507e-08 8.45161e-12 0
-3.87892e-08 -6.62844e-11 0
-3.95205e-08 -1.25135e-10 0
-4.01344e-08 -1.49222e-10 0
-4.06263e-08 -1.45923e-10 0
-4.10051e-08 -1.27584e-10 0
-4.12882e-08 -1.03885e-10 0
-4.1495e-08 -8.05788e-11 0
-4.16437e-08 -6.03684e-11 0
-4.17494e-08 -4.40771e-11 0
-4.18237e-08 -3.1554e-11 0
-4.18758e-08 -2.22407e-11 0
-4.1912e-08 -1.54798e-11 0
-4.19372e-08 -1.0661e-11 0
-4.19547e-08 -7.27577e-12 0
-4.19669e-08 -4.92597e-12 0
-4.19754e-08 -3.31222e-12 0
-4.19814e-08 -2.21646e-12 0
-4.19856e-08 -1.48429e-12 0
-4.19886e-08 -1.00966e-12 0
-4.19909e-08 -7.24097e-13 0
-4.19926e-08 -5.90952e-13 0
-4.19942e-08 -5.9928e-13 0
-4.19958e-08 -7.68692e-13 0
-4.19977e-08 -1.12873e-12 0
-4.2e-08 -1.71286e-12 0
-4.20025e-08 -2.74063e-12 0
0.00562298 2.38212e-08 0
0 0 0
1.46019e-12 0 0
2.61508e-10 0 0
-2.07943e-09 0 0
-7.19733e-09 0 0
-1.32196e-08 0 0
-1.64009e-08 0 0
-1.51852e-08 0 0
-1.77958e-08 0 0
-1.7777e-08 0 0
-1.44663e-08 0 0
-1.01798e-08 0 0
-6.42917e-09 0 0
-3.47017e-09 0 0
-6.35779e-10 0 0
7.0341e-10 0 0
-1.22601e-09 0 0
-5.74398e-09 0 0
-1.04389e-08 0 0
-1.36372e-08 0 0
-1.52089e-08 0 0
-1.57817e-08 0 0
-1.59493e-08 0 0
-1.60287e-08 0 0
-1.61265e-08 0 0
-1.62518e-08 0 0
-1.6386e-08 0 0
-1.65114e-08 0 0
-1.66184e-08 0 0
-1.67042e-08 0 0
-1.67701e-08 0 0
-1.68193e-08 0 0
-1.68551e-08 0 0
-1.68808e-08 0 0
-1.68991e-08 0 0
-1.6912e-08 0 0
-1.6921e-08 0 0
-1.69272e-08 0 0
-1.69317e-08 0 0
-1.69348e-08 0 0
-1.6937e-08 0 0
-1.69386e-08 0 0
-1.69398e-08 0 0
-1.69407e-08 0 0
-1.69414e-08 0 0
-1.69421e-08 0 0
-1.69428e-08 0 0
-1.69438e-08 0 0
-1.6945e-08 0 0
-1.69462e-08 0 0
0.00195991 0 0
0 0 5.27399e-07
-4.62293e-12 0 -5.0525e-12
2.1519e-09 0 1.59963e-09
8.46185e-09 0 9.38473e-09
-1.93734e-08 0 6.57554e-09
7.58762e-09 0 -1.3713e-09
1.34514e-08 0 -2.85592e-10
1.23102e-08 0 -6.10278e-10
1.29626e-08 0 -6.68454e-10
1.4575e-08 0 2.83984e-10
1.70768e-08 0 1.07518e-09
2.0693e-08 0 8.22242e-10
2.29166e-08 0 1.07229e-10
2.01428e-08 0 -1.32399e-10
1.20471e-08 0 2.29882e-11
2.13397e-09 0 2.72092e-11
-6.28508e-09 0 -1.16822e-10
-1.26099e-08 0 -7.68857e-11
-1.79214e-08 0 2.26823e-10
-2.31224e-08 0 5.99858e-10
-2.8302e-08 0 8.42849e-10
-3.30811e-08 0 8.91828e-10
-3.70825e-08 0 7.91672e-10
-4.01453e-08 0 6.21243e-10
-4.23141e-08 0 4.44053e-10
-4.37474e-08 0 2.94277e-10
-4.46335e-08 0 1.82437e-10
-4.51425e-08 0 1.0586e-10
-4.54075e-08 0 5.68694e-11
-4.55241e-08 0 2.73522e-11
-4.55565e-08 0 1.06234e-11
-4.55453e-08 0 1.82376e-12
-4.5515e-08 0 -2.31277e-12
-4.54794e-08 0 -3.8602e-12
-4.54456e-08 0 -4.07289e-12
-4.54165e-08 0 -3.67371e-12
-4.5393e-08 0 -3.05659e-12
-4.53749e-08 0 -2.42055e-12
-4.53614e-08 0 -1.85429e-12
-4.53517e-08 0 -1.38752e-12
-4.53448e-08 0 -1.02044e-12
-4.53401e-08 0 -7.39809e-13
-4.53369e-08 0 -5.29022e-13
-4.5335e-08 0 -3.72735e-13
-4.53338e-08 0 -2.55258e-13
-4.53335e-08 0 -1.65965e-13
-4.53337e-08 0 -1.0271e-13
-4.53347e-08 0 -8.93736e-14
-4.53361e-08 0 -6.54987e-14
-4.53376e-08 0 7.37298e-13
0.00556642 0 -3.92784e-09
0.0036 -3.03999e-07 -6.22468e-08
0.0035998 -0.00138572 -2.2245e-05
0.00671492 -0.00391522 0.000106924
0.0136069 -0.00591131 -0.000541497
0.0235311 -0.0144268 -0.00430202
0.0462875 -0.0133018 -0.00487877
0.0497828 -0.00187833 -0.00164609
0.0495206 0.00267677 -0.000168352
0.0445298 0.00500351 0.000559079
0.0389161 0.0051705 0.000532536
0.0337927 0.00450396 0.000250494
0.0294767 0.00361935 -2.70225e-05
0.0260593 0.00273137 -0.000214832
0.0234829 0.00193622 -0.000302303
0.0215859 0.00129937 -0.00030561
0.0201869 0.000847029 -0.000250965
0.0191455 0.000556997 -0.000170939
0.0183697 0.000380173 -9.50971e-05
0.0177988 0.000269123 -3.99337e-05
0.0173887 0.000192881 -7.83097e-06
0.0171032 0.000136319 6.74348e-06
0.0169117 9.33901e-05 1.09031e-05
0.0167881 6.1489e-05 1.01518e-05
0.0167118 3.87285e-05 7.76975e-06
0.0166668 2.32143e-05 5.3278e-06
0.0166417 1.31092e-05 3.38784e-06
0.0166289 6.81916e-06 2.0283e-06
0.0166231 3.08955e-06 1.14799e-06
0.0166212 1.00316e-06 6.10405e-07
0.0166213 -7.34395e-08 2.98185e-07
0.0166222 -5.57865e-07 1.25794e-07
0.0166234 -7.14264e-07 3.62483e-08
0.0166246 -7.03037e-07 -6.3066e-09
0.0166257 -6.17246e-07 -2.34548e-08
0.0166265 -5.07899e-07 -2.76937e-08
0.0166272 -4.00753e-07 -2.59747e-08
0.0166277 -3.07079e-07 -2.19851e-08
0.0166281 -2.30306e-07 -1.75568e-08
0.0166284 -1.69959e-07 -1.35064e-08
0.0166286 -1.23895e-07 -1.01208e-08
0.0166287 -8.94922e-08 -7.4272e-09
0.0166288 -6.42485e-08 -5.34898e-09
0.0166289 -4.60319e-08 -3.79145e-09
0.016629 -3.31329e-08 -2.65334e-09
0.016629 -2.42683e-08 -1.8455e-09
0.016629 -1.85116e-08 -1.23219e-09
0.0166291 -1.52377e-08 -4.4597e-10
0.0166291 -1.43468e-08 1.74062e-09
0.0166291 -1.96005e-08 5.63188e-09
0.0166292 -5.642e-08 -4.24691e-09
0.0166293 -8.81753e-08 -1.63356e-08
0.01 -1.37227e-07 -1.43398e-06
0.0100007 -0.00298958 -0.000598657
0.0147891 -0.0099445 -0.000787554
0.0241599 -0.0177115 -0.00125964
0.0384946 -0.0324525 -0.00336194
0.0591226 -0.0247382 -0.000818518
0.0563751 -0.00269171 0.00316698
0.0558139 0.00513201 0.00337836
0.0500311 0.0101318 0.00298255
0.0445471 0.0103057 0.00206323
0.0400362 0.0092493 0.00109561
0.0363194 0.00782662 0.00034709
0.0333457 0.00630918 -0.000165912
0.0310667 0.00488695 -0.000456037
0.0293228 0.00368282 -0.000538368
0.0279733 0.00272548 -0.000468731
0.0269352 0.0019862 -0.000328792
0.0261569 0.00142416 -0.000188601
0.0255936 0.0010025 -8.45127e-05
0.0252009 0.000690572 -2.24669e-05
0.024938 0.000463661 7.13987e-06
0.0247696 0.000302163 1.70506e-05
0.0246674 0.000190323 1.72778e-05
0.0246093 0.000115285 1.39194e-05
0.0245791 6.664e-05 1.00026e-05
0.0245656 3.62408e-05 6.70298e-06
0.0245615 1.79914e-05 4.28202e-06
0.0245621 7.53945e-06 2.63871e-06
0.0245648 1.90886e-06 1.57817e-06
0.0245681 -8.57299e-07 9.18194e-07
0.0245712 -1.99961e-06 5.1927e-07
0.0245739 -2.27658e-06 2.84332e-07
0.0245761 -2.13398e-06 1.49477e-07
0.0245779 -1.82173e-06 7.42006e-08
0.0245792 -1.4714e-06 3.35535e-08
0.0245801 -1.14574e-06 1.25392e-08
0.0245808 -8.69449e-07 2.3466e-09
0.0245813 -6.47413e-07 -2.08308e-09
0.0245817 -4.75291e-07 -3.58181e-09
0.024582 -3.45243e-07 -3.68709e-09
0.0245821 -2.4888e-07 -3.19663e-09
0.0245823 -1.78611e-07 -2.50878e-09
0.0245824 -1.28162e-07 -1.83914e-09
0.0245824 -9.26205e-08 -1.27446e-09
0.0245825 -6.83306e-08 -8.12485e-10
0.0245825 -5.28761e-08 -2.77048e-10
0.0245826 -4.53415e-08 1.05629e-09
0.0245826 -5.03185e-08 4.12896e-09
0.0245826 -7.79888e-08 6.90451e-09
0.0245827 -1.48335e-07 -1.55637e-08
0.0245828 -1.97794e-07 -3.87444e-08
0.0148 -9.46645e-07 -1.72061e-06
0.0148023 -0.00529146 -0.00112819
0.0203676 -0.0164003 -0.00244042
0.0274946 -0.02875 -0.00394154
0.0321185 -0.0460696 -0.00576171
0.0306021 -0.0284478 -0.00140701
0.0268385 -1.2115e-05 0.00329249
0.0262832 0.00708393 0.00351476
0.029818 0.0144902 0.00341158
0.0301768 0.0139667 0.00242472
0.0293722 0.0122135 0.00144021
0.0285395 0.0103753 0.000592664
0.0278986 0.0084641 -1.12519e-05
0.02757 0.00663425 -0.000357186
0.02744 0.00504848 -0.000458486
0.0274146 0.00373515 -0.000394843
0.0274461 0.00268367 -0.000262689
0.0275064 0.00187553 -0.000132585
0.0275759 0.00127875 -3.78153e-05
0.0276429 0.000851136 1.63791e-05
0.0277032 0.000551154 3.88227e-05
0.0277565 0.000344836 4.18582e-05
0.0278032 0.000206437 3.57602e-05
0.0278435 0.000116573 2.7043e-05
0.0278772 6.05198e-05 1.89401e-05
0.0279045 2.72099e-05 1.25823e-05
0.0279259 8.58506e-06 8.03998e-06
0.0279422 -9.76238e-07 4.98298e-06
0.0279542 -5.22012e-06 3.00961e-06
0.0279629 -6.53157e-06 1.7754e-06
0.0279692 -6.36017e-06 1.0233e-06
0.0279735 -5.54328e-06 5.75447e-07
0.0279766 -4.53541e-06 3.1458e-07
0.0279787 -3.56225e-06 1.66024e-07
0.0279801 -2.71955e-06 8.3495e-08
0.0279811 -2.03373e-06 3.89688e-08
0.0279818 -1.49752e-06 1.58332e-08
0.0279822 -1.08979e-06 4.44096e-09
0.0279825 -7.86019e-07 -6.94176e-10
0.0279828 -5.63209e-07 -2.62073e-09
0.0279829 -4.01836e-07 -2.98196e-09
0.027983 -2.86283e-07 -2.63692e-09
0.0279831 -2.04557e-07 -2.05181e-09
0.0279831 -1.47814e-07 -1.43189e-09
0.0279832 -1.09833e-07 -7.29448e-10
0.0279832 -8.7301e-08 2.60946e-10
0.0279832 -8.01667e-08 2.22099e-09
0.0279833 -9.21957e-08 4.36871e-09
0.0279833 -1.29045e-07 -5.84561e-10
0.0279833 -1.83717e-07 -3.47428e-08
0.0279833 -2.13111e-07 -6.31675e-08
0.018 -1.90854e-06 -1.67398e-06
0.0180029 -0.00698209 -0.00188006
0.0207575 -0.0189352 -0.00492065
0.0206972 -0.0248855 -0.00632963
0.0160713 -0.026928 -0.0076136
-1.57595e-06 -0.0140052 -0.00432555
9.59353e-05 2.60267e-05 9.0482e-07
-3.29413e-05 3.42774e-05 0.000650028
0.00660285 0.00412956 0.00142313
0.0135405 0.00940183 0.0013823
0.0169758 0.0102723 0.000966312
0.0187311 0.0093159 0.000417967
0.0204075 0.00771897 -7.13878e-05
0.0220966 0.00596912 -0.000328819
0.0236328 0.00443078 -0.000375782
0.0249445 0.00315979 -0.000305025
0.026026 0.00215739 -0.000194344
0.026891 0.0014134 -8.91881e-05
0.0275582 0.000893084 -1.0586e-05
0.0280542 0.000544061 3.59231e-05
0.028412 0.0003154 5.46896e-05
0.0286653 0.000168488 5.49008e-05
0.0288427 7.7055e-05 4.58783e-05
0.0289657 2.31972e-05 3.4315e-05
0.0290504 -5.81808e-06 2.3797e-05
0.0291079 -1.91904e-05 1.5619e-05
0.0291465 -2.33833e-05 9.82681e-06
0.0291719 -2.26946e-05 5.97278e-06
0.0291885 -1.9793e-05 3.52221e-06
0.0291992 -1.62088e-05 2.0185e-06
0.0292061 -1.2734e-05 1.12313e-06
0.0292104 -9.71679e-06 6.0442e-07
0.0292131 -7.25825e-06 3.11932e-07
0.0292148 -5.33597e-06 1.51727e-07
0.0292158 -3.87546e-06 6.69263e-08
0.0292165 -2.78858e-06 2.39998e-08
0.0292169 -1.99217e-06 3.66329e-09
0.0292172 -1.41543e-06 -4.90817e-09
0.0292173 -1.00163e-06 -7.63719e-09
0.0292175 -7.06952e-07 -7.667e-09
0.0292175 -4.98516e-07 -6.59389e-09
0.0292176 -3.52133e-07 -5.18562e-09
0.0292176 -2.50343e-07 -3.80401e-09
0.0292176 -1.80887e-07 -2.5553e-09
0.0292176 -1.35752e-07 -1.3303e-09
0.0292176 -1.10314e-07 -1.76578e-10
0.0292177 -1.02055e-07 8.55946e-10
0.0292177 -1.07262e-07 2.60696e-10
0.0292177 -1.22501e-07 -1.30594e-08
0.0292176 -1.31182e-07 -5.11895e-08
0.0292176 -1.29904e-07 -7.71114e-08
0.0196 -2.76192e-06 -2.52834e-06
0.019601 -0.00588281 -0.00274486
0.0190615 -0.0131245 -0.0064717
0.0159628 -0.0161272 -0.00667639
0.0109287 -0.015104 -0.00668364
0.00175059 -0.00622122 -0.00503594
7.14842e-05 -6.56429e-05 -0.00129942
3.27017e-05 -3.27017e-05 -3.9948e-08
-3.23377e-05 3.35449e-05 0.000254058
0.00396971 0.00282877 0.000539805
0.00912016 0.00664377 0.000468283
0.012043 0.00696978 0.000119089
0.0152908 0.00543824 -0.000259074
0.0184456 0.0038714 -0.000410828
0.0211463 0.0026294 -0.000396141
0.023331 0.00165953 -0.000312639
0.0250554 0.000929136 -0.00021386
0.026388 0.000429658 -0.000120749
0.0273852 0.000129229 -4.39766e-05
0.0281022 -2.88206e-05 8.7848e-06
0.0285981 -0.000100546 3.5979e-05
0.0289306 -0.000125189 4.30111e-05
0.0291483 -0.000125311 3.83471e-05
0.0292882 -0.000113168 2.92865e-05
0.0293764 -9.57637e-05 2.02235e-05
0.0294311 -7.73026e-05 1.29884e-05
0.0294642 -6.01904e-05 7.88509e-06
0.0294839 -4.55745e-05 4.56518e-06
0.0294953 -3.37692e-05 2.52893e-06
0.0295018 -2.46094e-05 1.3374e-06
0.0295053 -1.77087e-05 6.68536e-07
0.0295072 -1.26222e-05 3.08187e-07
0.0295081 -8.93309e-06 1.2282e-07
0.0295085 -6.28925e-06 3.30445e-08
0.0295087 -4.41111e-06 -6.5405e-09
0.0295087 -3.08547e-06 -2.10011e-08
0.0295087 -2.1542e-06 -2.36969e-08
0.0295087 -1.50227e-06 -2.14695e-08
0.0295086 -1.04715e-06 -1.76474e-08
0.0295086 -7.30198e-07 -1.37279e-08
0.0295086 -5.10099e-07 -1.02798e-08
0.0295085 -3.57901e-07 -7.43682e-09
0.0295085 -2.53536e-07 -5.19015e-09
0.0295085 -1.83288e-07 -3.48863e-09
0.0295085 -1.37751e-07 -2.31201e-09
0.0295085 -1.09683e-07 -1.90801e-09
0.0295085 -9.26213e-08 -2.59136e-09
0.0295085 -7.91209e-08 -5.15742e-09
0.0295084 -6.12341e-08 -2.14328e-08
0.0295084 -2.31279e-08 -5.66069e-08
0.0295083 4.04094e-09 -7.74438e-08
0.0196 -1.32688e-06 -3.51967e-06
0.0195999 -0.00367446 -0.00312406
0.0187827 -0.00805241 -0.00651009
0.0175371 -0.00805641 -0.00604924
0.0132311 -0.00421634 -0.00554766
0.00913487 0.0026392 -0.00531962
0.00616126 0.0031784 -0.00309219
7.16435e-05 -5.96424e-05 -0.000660691
2.73047e-05 -2.73047e-05 -1.25037e-07
-3.17993e-05 3.28761e-05 9.08485e-05
0.00279095 0.00205094 0.000352519
0.0071638 0.00325137 0.000260418
0.0124705 0.0016546 -0.000147399
0.0171219 0.000527082 -0.000320117
0.0207215 -7.24353e-05 -0.000326537
0.0233848 -0.000444055 -0.000275018
0.025326 -0.000684159 -0.000215621
0.0267188 -0.000787945 -0.000155579
0.0276864 -0.000765231 -9.54379e-05
0.0283269 -0.000662888 -4.3542e-05
0.0287285 -0.000533243 -8.34907e-06
0.0289671 -0.000409762 9.13654e-06
0.0291017 -0.000305919 1.39734e-05
0.0291735 -0.000223785 1.23966e-05
0.0292092 -0.000161047 8.83596e-06
0.029225 -0.000114304 5.49145e-06
0.0292304 -8.02002e-05 3.06186e-06
0.029231 -5.57666e-05 1.53273e-06
0.0292294 -3.85236e-05 6.65672e-07
0.0292272 -2.64973e-05 2.18367e-07
0.0292251 -1.81804e-05 1.15989e-08
0.0292233 -1.24611e-05 -6.86417e-08
0.0292218 -8.54094e-06 -8.81065e-08
0.0292207 -5.8579e-06 -8.1829e-08
0.0292198 -4.02197e-06 -6.7065e-08
0.0292192 -2.76496e-06 -5.15175e-08
0.0292188 -1.90343e-06 -3.81022e-08
0.0292184 -1.3123e-06 -2.75233e-08
0.0292182 -9.06319e-07 -1.95791e-08
0.029218 -6.27372e-07 -1.37783e-08
0.0292179 -4.35818e-07 -9.59923e-09
0.0292178 -3.04599e-07 -6.60767e-09
0.0292178 -2.1514e-07 -4.54662e-09
0.0292177 -1.54375e-07 -3.29775e-09
0.0292177 -1.12616e-07 -2.84695e-09
0.0292177 -8.20156e-08 -3.28415e-09
0.0292176 -5.56311e-08 -4.64192e-09
0.0292176 -2.59738e-08 -7.13797e-09
0.0292176 1.81965e-08 -2.07002e-08
0.0292175 9.10472e-08 -4.90876e-08
0.0292174 1.36424e-07 -6.55131e-08
0.018 -8.49373e-07 -3.50771e-06
0.0180009 -0.00199943 -0.00304638
0.0183234 -0.00384385 -0.00615227
0.0183908 -0.00260753 -0.00528595
0.0173885 0.000700837 -0.00420825
0.0171222 0.00713326 -0.00396712
0.017858 0.0126041 -0.00297784
0.0109769 0.00693391 -0.00147089
7.31111e-05 -4.61738e-05 -0.000428228
-2.49703e-05 -5.37194e-05 5.4599e-07
7.73842e-06 -0.000649853 0.000742957
0.0083674 -0.00273273 0.00108455
0.0157626 -0.00431824 0.00047015
0.0207956 -0.00407932 0.000176638
0.0239723 -0.00331472 6.28587e-05
0.0259304 -0.00264334 -2.52864e-06
0.0271132 -0.00214371 -6.40786e-05
0.0277929 -0.00173082 -0.000108305
0.0281422 -0.00134982 -0.00011707
0.028283 -0.00100487 -9.60228e-05
0.0283047 -0.000717994 -6.45526e-05
0.0282689 -0.000498323 -3.75571e-05
0.0282135 -0.000339595 -1.98567e-05
0.0281581 -0.00022886 -1.00473e-05
0.028111 -0.000153175 -5.15018e-06
0.0280742 -0.000102105 -2.81225e-06
0.0280469 -6.79449e-05 -1.67055e-06
0.0280274 -4.52267e-05 -1.06309e-06
0.0280137 -3.01642e-05 -7.02046e-07
0.0280041 -2.01823e-05 -4.68355e-07
0.0279976 -1.35564e-05 -3.10813e-07
0.0279931 -9.14375e-06 -2.03857e-07
0.02799 -6.19256e-06 -1.31968e-07
0.0279879 -4.20966e-06 -8.44177e-08
0.0279864 -2.87124e-06 -5.3482e-08
0.0279855 -1.96401e-06 -3.36473e-08
0.0279848 -1.34683e-06 -2.10793e-08
0.0279843 -9.25709e-07 -1.31847e-08
0.027984 -6.37751e-07 -8.25364e-09
0.0279837 -4.40597e-07 -5.18304e-09
0.0279836 -3.05549e-07 -3.27391e-09
0.0279835 -2.12956e-07 -2.11194e-09
0.0279834 -1.49093e-07 -1.51235e-09
0.0279833 -1.04083e-07 -1.38439e-09
0.0279833 -7.04626e-08 -1.66682e-09
0.0279833 -4.20641e-08 -2.32788e-09
0.0279832 -1.3001e-08 -3.25935e-09
0.0279832 2.34777e-08 -4.56064e-09
0.0279832 7.97803e-08 -1.21007e-08
0.0279832 1.65242e-07 -3.2179e-08
0.0279831 2.15446e-07 -4.55127e-08
0.0148 -4.76961e-07 -3.10763e-06
0.0148015 -0.00102766 -0.00282402
0.0162364 -0.00161728 -0.00541763
0.0178195 2.17064e-05 -0.00429465
0.0191762 0.0032386 -0.0030891
0.0209452 0.00739809 -0.0028669
0.0247656 0.0129806 -0.00241155
0.0280554 0.0195285 -0.00149857
0.0230573 0.0113192 -0.000329769
0.0235 1.84136e-11 0.000628822
0.0266442 -0.00668052 0.00155789
0.0301414 -0.0130545 0.00210757
0.0310701 -0.0110271 0.00164855
0.0305465 -0.00777152 0.00117522
0.0295268 -0.00518725 0.000744217
0.0284715 -0.00346842 0.000380757
0.0275463 -0.0023574 0.000101058
0.0267867 -0.0016047 -7.47697e-05
0.0261844 -0.00107121 -0.000145083
0.0257209 -0.000695627 -0.000140811
0.025375 -0.000442632 -0.000104569
0.0251245 -0.0002799 -6.62858e-05
0.024948 -0.000178031 -3.78924e-05
0.0248264 -0.000114597 -2.02242e-05
0.0247443 -7.47292e-05 -1.03156e-05
0.0246896 -4.92982e-05 -5.10414e-06
0.0246534 -3.28357e-05 -2.46849e-06
0.0246296 -2.20435e-05 -1.16651e-06
0.0246139 -1.48942e-05 -5.32902e-07
0.0246036 -1.01166e-05 -2.28562e-07
0.0245967 -6.90047e-06 -8.50963e-08
0.0245922 -4.72221e-06 -1.98234e-08
0.0245891 -3.23963e-06 7.74647e-09
0.024587 -2.22665e-06 1.74634e-08
0.0245856 -1.53251e-06 1.90595e-08
0.0245847 -1.05585e-06 1.72757e-08
0.024584 -7.28065e-07 1.43751e-08
0.0245836 -5.0248e-07 1.13878e-08
0.0245833 -3.47173e-07 8.73389e-09
0.024583 -2.40217e-07 6.538e-09
0.0245829 -1.66438e-07 4.79192e-09
0.0245828 -1.15222e-07 3.42779e-09
0.0245827 -7.89875e-08 2.3425e-09
0.0245827 -5.21313e-08 1.46626e-09
0.0245826 -3.02025e-08 7.62371e-10
0.0245826 -9.23211e-09 2.15675e-10
0.0245826 1.49562e-08 -1.76696e-11
0.0245826 4.68803e-08 -1.12203e-10
0.0245826 9.41035e-08 -2.41496e-09
0.0245826 1.59264e-07 -1.63456e-08
0.0245827 1.95679e-07 -2.80706e-08
0.01 -9.10207e-07 -2.81334e-06
0.0100007 -0.00063026 -0.00229989
0.0113315 -0.000697982 -0.0041409
0.0132226 0.000577596 -0.00292261
0.0157031 0.00255169 -0.00184145
0.0196524 0.00559424 -0.00185193
0.0255887 0.00836897 -0.00238269
0.034684 0.0101232 -0.00209408