# vtk DataFile Version 2.0
Tobias Weinzierl: CPU, Manycore and Cluster Computing
ASCII

DATASET STRUCTURED_POINTS
DIMENSIONS  51 11 6

ORIGIN 0 0 0 

SPACING 0.1 0.1 0.1 

POINT_DATA 3366

VECTORS velocity float
0 0 0
1.09049e-13 0 0
-2.08034e-10 0 0
-3.55011e-10 0 0
-1.46167e-09 0 0
1.01469e-09 0 0
1.53465e-09 0 0
1.55315e-09 0 0
1.79682e-09 0 0
2.38546e-09 0 0
3.14586e-09 0 0
3.78364e-09 0 0
4.04456e-09 0 0
3.84077e-09 0 0
3.19706e-09 0 0
2.22758e-09 0 0
1.14304e-09 0 0
1.74671e-10 0 0
-5.68967e-10 0 0
-1.14409e-09 0 0
-1.6812e-09 0 0
-2.27454e-09 0 0
-2.93697e-09 0 0
-3.61977e-09 0 0
-4.25638e-09 0 0
-4.796e-09 0 0
-5.21609e-09 0 0
-5.51899e-09 0 0
-5.72201e-09 0 0
-5.84798e-09 0 0
-5.91902e-09 0 0
-5.95356e-09 0 0
-5.96549e-09 0 0
-5.96459e-09 0 0
-5.95729e-09 0 0
-5.94755e-09 0 0
-5.93763e-09 0 0
-5.92869e-09 0 0
-5.92119e-09 0 0
-5.91521e-09 0 0
-5.91061e-09 0 0
-5.90719e-09 0 0
-5.90473e-09 0 0
-5.90301e-09 0 0
-5.90186e-09 0 0
-5.9011e-09 0 0
-5.90063e-09 0 0
-5.90038e-09 0 0
-5.90027e-09 0 0
-5.90037e-09 0 0
0.00189172 0 0
0 3.80253e-07 0
1.70429e-13 -8.21901e-12 0
-3.1563e-10 -3.11098e-10 0
-1.58355e-10 -9.23636e-11 0
-7.73583e-10 -8.86088e-10 0
3.32319e-09 -8.01249e-10 0
3.90703e-09 9.28956e-10 0
3.73653e-09 7.49365e-10 0
4.74065e-09 -4.55947e-10 0
6.86411e-09 -1.73165e-09 0
9.3382e-09 -2.65313e-09 0
1.12947e-08 -2.95187e-09 0
1.20656e-08 -2.44886e-09 0
1.14368e-08 -1.21859e-09 0
9.71151e-09 2.45714e-10 0
7.45967e-09 1.30871e-09 0
5.17418e-09 1.66168e-09 0
3.10129e-09 1.45633e-09 0
1.22189e-09 1.06677e-09 0
-6.33717e-10 7.81489e-10 0
-2.62223e-09 6.8017e-10 0
-4.78169e-09 6.95442e-10 0
-7.01943e-09 7.26735e-10 0
-9.16907e-09 7.11161e-10 0
-1.1068e-08 6.36362e-10 0
-1.26125e-08 5.21527e-10 0
-1.37738e-08 3.94163e-10 0
-1.45831e-08 2.75936e-10 0
-1.51044e-08 1.78491e-10 0
-1.5411e-08 1.05046e-10 0
-1.55693e-08 5.37086e-11 0
-1.56329e-08 2.03441e-11 0
-1.56406e-08 3.9513e-13 0
-1.56191e-08 -1.02105e-11 0
-1.55851e-08 -1.47288e-11 0
-1.55484e-08 -1.55716e-11 0
-1.55144e-08 -1.44144e-11 0
-1.54853e-08 -1.23503e-11 0
-1.54617e-08 -1.00425e-11 0
-1.54433e-08 -7.85569e-12 0
-1.54294e-08 -5.96037e-12 0
-1.54192e-08 -4.40865e-12 0
-1.54119e-08 -3.18647e-12 0
-1.54067e-08 -2.24793e-12 0
-1.54033e-08 -1.53625e-12 0
-1.5401e-08 -9.94368e-13 0
-1.53996e-08 -5.66014e-13 0
-1.53988e-08 -1.81461e-13 0
-1.53985e-08 3.00306e-13 0
-1.53989e-08 1.18675e-12 0
0.00544992 -1.11379e-08 0
0 -1.85265e-08 0
3.71881e-13 -7.75123e-11 0
3.2679e-10 -1.17376e-09 0
1.79641e-09 -2.89723e-09 0
3.6081e-09 -5.09428e-09 0
6.31245e-09 -3.60265e-09 0
4.89035e-09 8.78936e-11 0
3.7065e-09 -2.52798e-10 0
4.45663e-09 -2.48971e-09 0
7.5657e-09 -4.7648e-09 0
1.14383e-08 -6.77742e-09 0
1.43593e-08 -8.23371e-09 0
1.53916e-08 -8.43067e-09 0
1.42169e-08 -6.84815e-09 0
1.16234e-08 -3.86446e-09 0
8.63554e-09 -4.28862e-10 0
5.83226e-09 2.58227e-09 0
3.31718e-09 4.6549e-09 0
9.77223e-10 5.67266e-09 0
-1.30794e-09 5.8256e-09 0
-3.60037e-09 5.43269e-09 0
-5.90144e-09 4.77038e-09 0
-8.1474e-09 4.00523e-09 0
-1.0221e-08 3.22189e-09 0
-1.19956e-08 2.47183e-09 0
-1.33868e-08 1.79659e-09 0
-1.43772e-08 1.22719e-09 0
-1.50084e-08 7.7819e-10 0
-1.53558e-08 4.46963e-10 0
-1.55021e-08 2.18495e-10 0
-1.55207e-08 7.19195e-11 0
-1.54678e-08 -1.41343e-11 0
-1.53826e-08 -5.84134e-11 0
-1.52892e-08 -7.57919e-11 0
-1.52013e-08 -7.71988e-11 0
-1.51254e-08 -7.01493e-11 0
-1.50632e-08 -5.94825e-11 0
-1.50143e-08 -4.80857e-11 0
-1.49771e-08 -3.75107e-11 0
-1.49494e-08 -2.84509e-11 0
-1.49292e-08 -2.10867e-11 0
-1.49147e-08 -1.5321e-11 0
-1.49046e-08 -1.09285e-11 0
-1.48977e-08 -7.64363e-12 0
-1.4893e-08 -5.20871e-12 0
-1.489e-08 -3.39001e-12 0
-1.48881e-08 -1.96576e-12 0
-1.48871e-08 -6.62389e-13 0
-1.48868e-08 8.53673e-13 0
-1.48872e-08 2.91226e-12 0
0.00788199 -2.78879e-08 0
0 -6.28354e-07 0
6.37986e-13 -7.32121e-10 0
8.87579e-10 -2.81085e-09 0
2.88267e-09 -5.5274e-09 0
4.133e-09 -7.35509e-09 0
4.00398e-09 -3.90727e-09 0
2.51664e-09 -2.08997e-12 0
1.52318e-09 -1.08721e-09 0
5.56881e-10 -3.59829e-09 0
1.99799e-09 -6.77219e-09 0
5.34691e-09 -1.04689e-08 0
8.00562e-09 -1.38014e-08 0
9.05248e-09 -1.49166e-08 0
7.87037e-09 -1.28244e-08 0
5.14606e-09 -8.11711e-09 0
1.79819e-09 -1.95271e-09 0
-1.5208e-09 4.1902e-09 0
-4.36093e-09 8.82838e-09 0
-6.395e-09 1.112e-08 0
-7.49082e-09 1.1196e-08 0
-7.79053e-09 9.83721e-09 0
-7.62835e-09 7.89149e-09 0
-7.33198e-09 5.9248e-09 0
-7.08028e-09 4.19825e-09 0
-6.89782e-09 2.78912e-09 0
-6.73343e-09 1.69706e-09 0
-6.53599e-09 8.94076e-10 0
-6.28748e-09 3.39894e-10 0
-6.00013e-09 -1.2685e-11 0
-5.70004e-09 -2.12526e-10 0
-5.41288e-09 -3.04793e-10 0
-5.15665e-09 -3.27233e-10 0
-4.94032e-09 -3.08761e-10 0
-4.76555e-09 -2.69816e-10 0
-4.62929e-09 -2.23728e-10 0
-4.52609e-09 -1.78415e-10 0
-4.44977e-09 -1.37996e-10 0
-4.39446e-09 -1.04117e-10 0
-4.35504e-09 -7.69478e-11 0
-4.32736e-09 -5.5876e-11 0
-4.30819e-09 -3.9956e-11 0
-4.29508e-09 -2.81753e-11 0
-4.28625e-09 -1.95953e-11 0
-4.28042e-09 -1.34111e-11 0
-4.27666e-09 -8.96188e-12 0
-4.27431e-09 -5.70591e-12 0
-4.27293e-09 -3.18392e-12 0
-4.2722e-09 -9.83762e-13 0
-4.27177e-09 1.21651e-12 0
-4.27163e-09 3.45827e-12 0
0.00897891 -3.09264e-08 0
0 -1.23447e-06 0
-8.18676e-14 -1.41833e-09 0
1.44751e-10 -4.02229e-09 0
7.93967e-10 -5.34833e-09 0
9.0404e-10 -4.32495e-09 0
-2.70815e-13 -1.58142e-09 0
-9.87949e-12 -8.43342e-12 0
7.86973e-12 -7.89213e-12 0
-9.5586e-10 -1.8202e-09 0
-3.13745e-09 -6.52169e-09 0
-3.83304e-09 -1.22153e-08 0
-2.63689e-09 -1.70907e-08 0
-2.29231e-09 -1.89729e-08 0
-3.46773e-09 -1.64537e-08 0
-5.68728e-09 -1.0132e-08 0
-8.3505e-09 -1.57591e-09 0
-1.08976e-08 6.78056e-09 0
-1.27484e-08 1.25701e-08 0
-1.33499e-08 1.46965e-08 0
-1.24297e-08 1.36593e-08 0
-1.02064e-08 1.08461e-08 0
-7.28695e-09 7.58994e-09 0
-4.32847e-09 4.68936e-09 0
-1.762e-09 2.43531e-09 0
2.6768e-10 8.32834e-10 0
1.80555e-09 -2.18025e-10 0
2.96366e-09 -8.36756e-10 0
3.84617e-09 -1.13576e-09 0
4.52637e-09 -1.21379e-09 0
5.05119e-09 -1.15299e-09 0
5.45211e-09 -1.01699e-09 0
5.75315e-09 -8.51025e-10 0
5.97456e-09 -6.84152e-10 0
6.13397e-09 -5.32735e-10 0
6.24642e-09 -4.04138e-10 0
6.32427e-09 -2.9997e-10 0
6.37726e-09 -2.18579e-10 0
6.4128e-09 -1.56773e-10 0
6.43632e-09 -1.10916e-10 0
6.45168e-09 -7.75369e-11 0
6.4616e-09 -5.36207e-11 0
6.4679e-09 -3.67022e-11 0
6.47182e-09 -2.4847e-11 0
6.47418e-09 -1.658e-11 0
6.47552e-09 -1.07937e-11 0
6.47626e-09 -6.66209e-12 0
6.47668e-09 -3.58202e-12 0
6.47705e-09 -1.15951e-12 0
6.47772e-09 8.19911e-13 0
6.47849e-09 2.35719e-12 0
0.0094288 -1.57547e-08 0
0 -1.11918e-06 0
-7.66921e-13 -1.32751e-09 0
-7.92403e-10 -3.09825e-09 0
-1.01138e-09 -4.05708e-09 0
-1.44016e-09 -4.31702e-09 0
-1.01443e-09 -2.03096e-09 0
-8.65823e-12 8.49374e-12 0
-6.51986e-13 6.51986e-13 0
8.74585e-12 -7.00889e-12 0
-2.04839e-09 -2.90458e-09 0
-7.09091e-09 -1.04894e-08 0
-9.75184e-09 -1.76988e-08 0
-1.17086e-08 -1.99562e-08 0
-1.3609e-08 -1.6887e-08 0
-1.51618e-08 -9.53328e-09 0
-1.61676e-08 -6.67052e-11 0
-1.6503e-08 8.54217e-09 0
-1.60204e-08 1.37959e-08 0
-1.44585e-08 1.48406e-08 0
-1.16435e-08 1.25728e-08 0
-7.78976e-09 8.71922e-09 0
-3.50225e-09 4.78786e-09 0
5.316e-10 1.59838e-09 0
3.8498e-09 -6.2515e-10 0
6.30969e-09 -1.97302e-09 0
7.99911e-09 -2.63762e-09 0
9.09968e-09 -2.81623e-09 0
9.79178e-09 -2.68033e-09 0
1.02159e-08 -2.36771e-09 0
1.04694e-08 -1.98084e-09 0
1.06159e-08 -1.58866e-09 0
1.06965e-08 -1.23159e-09 0
1.07371e-08 -9.28537e-10 0
1.07544e-08 -6.84029e-10 0
1.07588e-08 -4.94211e-10 0
1.07567e-08 -3.51257e-10 0
1.07518e-08 -2.46196e-10 0
1.07461e-08 -1.70511e-10 0
1.07407e-08 -1.16878e-10 0
1.07361e-08 -7.93853e-11 0
1.07323e-08 -5.34661e-11 0
1.07293e-08 -3.57035e-11 0
1.07269e-08 -2.3602e-11 0
1.07251e-08 -1.53714e-11 0
1.07238e-08 -9.74743e-12 0
1.07228e-08 -5.86263e-12 0
1.07224e-08 -3.15744e-12 0
1.07224e-08 -1.31198e-12 0
1.07231e-08 -1.86792e-13 0
1.0724e-08 2.99079e-13 0
0.00954734 9.32903e-09 0
0 -7.70667e-07 0
-3.66222e-13 -7.59708e-10 0
-7.56692e-10 -1.98463e-09 0
-8.12243e-10 -2.62512e-09 0
-1.72513e-09 -2.93378e-09 0
-2.24822e-09 -2.54256e-09 0
-9.94581e-10 -1.00881e-09 0
-8.25732e-12 8.75965e-12 0
-3.46731e-14 3.46731e-14 0
1.05014e-11 -6.86761e-12 0
-3.15695e-09 -5.43174e-09 0
-9.84119e-09 -1.44356e-08 0
-1.52854e-08 -1.77161e-08 0
-1.88415e-08 -1.43502e-08 0
-2.05058e-08 -6.76337e-09 0
-2.0192e-08 2.05711e-09 0
-1.81621e-08 9.14411e-09 0
-1.49858e-08 1.25739e-08 0
-1.11385e-08 1.20927e-08 0
-6.9029e-09 8.91904e-09 0
-2.5807e-09 4.79749e-09 0
1.40035e-09 1.07547e-09 0
4.6228e-09 -1.62645e-09 0
6.86635e-09 -3.24412e-09 0
8.16122e-09 -3.97317e-09 0
8.70762e-09 -4.07017e-09 0
8.75816e-09 -3.76902e-09 0
8.53519e-09 -3.25712e-09 0
8.19798e-09 -2.67162e-09 0
7.84386e-09 -2.10246e-09 0
7.52317e-09 -1.59981e-09 0
7.25587e-09 -1.18417e-09 0
7.04471e-09 -8.56773e-10 0
6.88404e-09 -6.0833e-10 0
6.76512e-09 -4.25233e-10 0
6.67893e-09 -2.93397e-10 0
6.61746e-09 -2.00226e-10 0
6.57419e-09 -1.35366e-10 0
6.54404e-09 -9.07655e-11 0
6.5232e-09 -6.04004e-11 0
6.50888e-09 -3.98929e-11 0
6.49909e-09 -2.61273e-11 0
6.4924e-09 -1.69242e-11 0
6.48786e-09 -1.07843e-11 0
6.48484e-09 -6.69975e-12 0
6.48294e-09 -4.01537e-12 0
6.48194e-09 -2.32788e-12 0
6.48167e-09 -1.41594e-12 0
6.48209e-09 -1.24201e-12 0
6.48273e-09 -1.76546e-12 0
0.0094288 3.14819e-08 0
0 -5.39657e-07 0
1.38419e-13 -3.95648e-10 0
-2.88948e-10 -1.13861e-09 0
-3.23986e-10 -1.89763e-09 0
-9.61377e-10 -2.22585e-09 0
-2.36243e-09 -1.59414e-09 0
-2.82452e-09 -4.43395e-10 0
-1.81446e-09 7.95872e-11 0
-8.92951e-12 8.59152e-12 0
1.08515e-11 6.94902e-12 0
1.7924e-12 -3.106e-09 0
-5.23261e-09 -9.84491e-09 0
-1.33213e-08 -1.2891e-08 0
-2.02892e-08 -8.9215e-09 0
-2.37772e-08 -1.63177e-09 0
-2.27903e-08 5.14901e-09 0
-1.82601e-08 9.14586e-09 0
-1.22161e-08 9.67643e-09 0
-6.45753e-09 7.38783e-09 0
-1.90333e-09 3.75516e-09 0
1.24841e-09 2.52176e-10 0
3.1131e-09 -2.27312e-09 0
3.88397e-09 -3.65905e-09 0
3.78587e-09 -4.13398e-09 0
3.077e-09 -4.01942e-09 0
2.02283e-09 -3.58352e-09 0
8.53043e-10 -3.01126e-09 0
-2.68256e-10 -2.41903e-09 0
-1.24739e-09 -1.87397e-09 0
-2.04805e-09 -1.4088e-09 0
-2.67175e-09 -1.03301e-09 0
-3.14009e-09 -7.41962e-10 0
-3.48201e-09 -5.23889e-10 0
-3.72628e-09 -3.64709e-10 0
-3.8979e-09 -2.50903e-10 0
-4.01693e-09 -1.7087e-10 0
-4.09865e-09 -1.15334e-10 0
-4.15431e-09 -7.72134e-11 0
-4.19198e-09 -5.12862e-11 0
-4.21733e-09 -3.37894e-11 0
-4.23432e-09 -2.2062e-11 0
-4.24566e-09 -1.42495e-11 0
-4.2532e-09 -9.07889e-12 0
-4.25818e-09 -5.69161e-12 0
-4.26142e-09 -3.51975e-12 0
-4.26343e-09 -2.19889e-12 0
-4.26457e-09 -1.51368e-12 0
-4.26507e-09 -1.37435e-12 0
-4.2651e-09 -1.84958e-12 0
-4.2651e-09 -2.96176e-12 0
0.00897892 3.94886e-08 0
0 -4.57213e-07 0
1.05247e-13 -1.94027e-10 0
9.08278e-11 -6.17173e-10 0
-2.12701e-12 -1.07665e-09 0
-9.58022e-10 -1.30728e-09 0
-2.8686e-09 -5.31602e-10 0
-4.25969e-09 8.6388e-10 0
-4.30742e-09 -8.217e-11 0
-2.8735e-09 -8.23877e-10 0
-2.14571e-09 2.20989e-14 0
-8.7666e-10 -3.14193e-09 0
-4.32424e-09 -7.15159e-09 0
-1.31631e-08 -6.61779e-09 0
-2.17563e-08 -2.50086e-09 0
-2.51024e-08 2.5866e-09 0
-2.19116e-08 6.04314e-09 0
-1.46431e-08 6.80642e-09 0
-7.07717e-09 5.16552e-09 0
-1.84437e-09 2.23367e-09 0
3.94862e-10 -6.40697e-10 0
3.06489e-10 -2.54347e-09 0
-1.09859e-09 -3.29287e-09 0
-3.03837e-09 -3.21447e-09 0
-5.0698e-09 -2.74338e-09 0
-6.9838e-09 -2.18588e-09 0
-8.6879e-09 -1.68499e-09 0
-1.01424e-08 -1.2791e-09 0
-1.13376e-08 -9.6241e-10 0
-1.22855e-08 -7.18233e-10 0
-1.30139e-08 -5.30987e-10 0
-1.35584e-08 -3.88394e-10 0
-1.39561e-08 -2.8088e-10 0
-1.42412e-08 -2.0078e-10 0
-1.44425e-08 -1.41864e-10 0
-1.45829e-08 -9.90869e-11 0
-1.46798e-08 -6.84179e-11 0
-1.47461e-08 -4.66991e-11 0
-1.47912e-08 -3.1501e-11 0
-1.48217e-08 -2.09889e-11 0
-1.48421e-08 -1.38005e-11 0
-1.48557e-08 -8.94169e-12 0
-1.48647e-08 -5.6997e-12 0
-1.48707e-08 -3.57298e-12 0
-1.48746e-08 -2.21575e-12 0
-1.48771e-08 -1.39677e-12 0
-1.48787e-08 -9.73048e-13 0
-1.48797e-08 -8.73687e-13 0
-1.48804e-08 -1.08681e-12 0
-1.48809e-08 -1.66409e-12 0
-1.48817e-08 -2.61749e-12 0
0.00788201 2.9407e-08 0
0 -4.71001e-07 0
1.4761e-13 -8.57417e-12 0
2.60549e-10 -6.66898e-11 0
9.61612e-11 -1.52392e-10 0
-1.10051e-09 -1.85035e-10 0
-3.40304e-09 -1.24123e-10 0
-5.27249e-09 5.36214e-10 0
-5.38662e-09 5.31799e-10 0
-6.26743e-09 -3.28645e-10 0
-5.82539e-09 -1.00979e-09 0
-4.73303e-09 -1.76053e-09 0
-7.20055e-09 -1.30838e-09 0
-1.17282e-08 2.99634e-10 0
-1.56491e-08 1.72222e-09 0
-1.59126e-08 2.51203e-09 0
-1.20166e-08 2.4474e-09 0
-6.26185e-09 1.57916e-09 0
-1.62929e-09 3.26269e-10 0
2.54942e-10 -7.59909e-10 0
-4.5236e-10 -1.33604e-09 0
-2.64684e-09 -1.39753e-09 0
-5.23483e-09 -1.15359e-09 0
-7.57482e-09 -8.29761e-10 0
-9.4541e-09 -5.58206e-10 0
-1.0895e-08 -3.75099e-10 0
-1.19925e-08 -2.64893e-10 0
-1.28352e-08 -1.99659e-10 0
-1.34862e-08 -1.57623e-10 0
-1.3988e-08 -1.26536e-10 0
-1.4371e-08 -1.01013e-10 0
-1.46593e-08 -7.92457e-11 0
-1.48729e-08 -6.08075e-11 0
-1.50288e-08 -4.559e-11 0
-1.5141e-08 -3.34139e-11 0
-1.52206e-08 -2.39631e-11 0
-1.52764e-08 -1.68305e-11 0
-1.53151e-08 -1.15832e-11 0
-1.53417e-08 -7.81193e-12 0
-1.53597e-08 -5.15989e-12 0
-1.53718e-08 -3.3337e-12 0
-1.53798e-08 -2.10292e-12 0
-1.53851e-08 -1.29335e-12 0
-1.53886e-08 -7.78367e-13 0
-1.53909e-08 -4.69812e-13 0
-1.53924e-08 -3.10423e-13 0
-1.53934e-08 -2.68089e-13 0
-1.53942e-08 -3.27174e-13 0
-1.53948e-08 -4.75848e-13 0
-1.53955e-08 -6.93702e-13 0
-1.53965e-08 -1.00826e-12 0
0.00544996 1.00212e-08 0
0 0 0
1.89436e-13 0 0
1.53504e-10 0 0
6.41099e-11 0 0
-5.09952e-10 0 0
-1.66277e-09 0 0
-2.84285e-09 0 0
-2.89387e-09 0 0
-3.39414e-09 0 0
-3.67933e-09 0 0
-3.8545e-09 0 0
-4.22532e-09 0 0
-4.3354e-09 0 0
-4.2322e-09 0 0
-3.51894e-09 0 0
-2.12575e-09 0 0
-6.4407e-10 0 0
1.94104e-10 0 0
9.02635e-11 0 0
-7.33995e-10 0 0
-1.83871e-09 0 0
-2.87285e-09 0 0
-3.68227e-09 0 0
-4.26161e-09 0 0
-4.66725e-09 0 0
-4.95893e-09 0 0
-5.17843e-09 0 0
-5.34963e-09 0 0
-5.48505e-09 0 0
-5.59173e-09 0 0
-5.67455e-09 0 0
-5.73762e-09 0 0
-5.78472e-09 0 0
-5.81924e-09 0 0
-5.84409e-09 0 0
-5.86169e-09 0 0
-5.87398e-09 0 0
-5.88242e-09 0 0
-5.88814e-09 0 0
-5.89197e-09 0 0
-5.89449e-09 0 0
-5.89614e-09 0 0
-5.89721e-09 0 0
-5.89793e-09 0 0
-5.89841e-09 0 0
-5.89875e-09 0 0
-5.89902e-09 0 0
-5.89929e-09 0 0
-5.89959e-09 0 0
-5.90002e-09 0 0
0.00189174 0 0
0 0 5.27431e-07
3.01261e-13 0 2.16398e-10
-6.23039e-10 0 6.66149e-10
-7.75661e-10 0 1.34599e-09
-4.91079e-09 0 -4.83413e-10
1.66589e-09 0 -2.19483e-09
3.62522e-09 0 -1.46723e-09
4.21698e-09 0 -1.01126e-09
4.91696e-09 0 -3.75866e-10
6.00118e-09 0 3.83242e-10
7.41525e-09 0 1.25555e-09
9.33233e-09 0 2.05355e-09
1.16686e-08 0 2.39176e-09
1.38023e-08 0 2.06568e-09
1.4776e-08 0 1.36666e-09
1.39853e-08 0 7.44282e-10
1.15903e-08 0 3.90234e-10
8.31297e-09 0 2.54938e-10
4.86434e-09 0 2.51651e-10
1.57982e-09 0 3.30799e-10
-1.52263e-09 0 4.50634e-10
-4.50193e-09 0 5.60809e-10
-7.33778e-09 0 6.18957e-10
-9.92395e-09 0 6.08606e-10
-1.21384e-08 0 5.40058e-10
-1.39067e-08 0 4.38221e-10
-1.52235e-08 0 3.28763e-10
-1.61388e-08 0 2.29851e-10
-1.67317e-08 0 1.50333e-10
-1.70862e-08 0 9.17997e-11
-1.72765e-08 0 5.17207e-11
-1.7361e-08 0 2.59991e-11
-1.73824e-08 0 1.05317e-11
-1.73696e-08 0 1.91608e-12
-1.73409e-08 0 -2.38561e-12
-1.73074e-08 0 -4.13201e-12
-1.72752e-08 0 -4.47186e-12
-1.7247e-08 0 -4.11599e-12
-1.72238e-08 0 -3.4797e-12
-1.72055e-08 0 -2.78892e-12
-1.71916e-08 0 -2.15424e-12
-1.71813e-08 0 -1.61972e-12
-1.71738e-08 0 -1.1931e-12
-1.71686e-08 0 -8.64572e-13
-1.7165e-08 0 -6.18567e-13
-1.71627e-08 0 -4.40361e-13
-1.71612e-08 0 -3.21188e-13
-1.71603e-08 0 -2.67842e-13
-1.716e-08 0 -2.81847e-13
-1.71603e-08 0 -1.85953e-13
0.00537688 0 -6.75529e-10
0.0036 -3.01542e-07 -6.11017e-08
0.0035998 -0.0013893 -2.11847e-05
0.00669765 -0.00393827 0.000115574
0.0136103 -0.00587358 -0.000486375
0.023499 -0.0144983 -0.00426422
0.0464161 -0.0134795 -0.00489149
0.049959 -0.00195567 -0.00164806
0.049704 0.0026187 -0.000165354
0.0447296 0.00494019 0.000571941
0.0391391 0.00509944 0.000569818
0.0340549 0.00442345 0.000316152
0.0297942 0.00353479 5.51326e-05
0.0264207 0.00266746 -0.000134039
0.0238567 0.00192319 -0.000236561
0.021943 0.00134467 -0.000263755
0.0205077 0.000928925 -0.000237756
0.0194121 0.000645792 -0.000183073
0.0185623 0.000458409 -0.000120871
0.0178999 0.00033419 -6.58679e-05
0.0173884 0.000248773 -2.53431e-05
0.0170011 0.000186383 -2.73225e-07
0.0167159 0.000138228 1.21618e-05
0.0165124 0.000100081 1.60709e-05
0.0163725 7.00483e-05 1.52156e-05
0.0162801 4.70687e-05 1.23233e-05
0.0162219 3.01745e-05 9.03616e-06
0.0161873 1.8297e-05 6.15425e-06
0.0161683 1.03272e-05 3.94301e-06
0.016159 5.23505e-06 2.38807e-06
0.0161554 2.15485e-06 1.36372e-06
0.0161551 4.14384e-07 7.24672e-07
0.0161563 -4.75891e-07 3.45847e-07
0.0161581 -8.54111e-07 1.33376e-07
0.0161599 -9.43223e-07 2.23586e-08
0.0161617 -8.83715e-07 -2.95988e-08
0.0161631 -7.59817e-07 -4.89523e-08
0.0161643 -6.18993e-07 -5.15422e-08
0.0161652 -4.85685e-07 -4.64507e-08
0.0161659 -3.70593e-07 -3.86204e-08
0.0161664 -2.76701e-07 -3.05511e-08
0.0161667 -2.03025e-07 -2.33596e-08
0.016167 -1.46836e-07 -1.74172e-08
0.0161672 -1.0491e-07 -1.27278e-08
0.0161673 -7.41758e-08 -9.14528e-09
0.0161674 -5.19947e-08 -6.47735e-09
0.0161675 -3.62238e-08 -4.50173e-09
0.0161675 -2.51868e-08 -2.91668e-09
0.0161676 -1.76941e-08 -9.81125e-10
0.0161676 -1.39635e-08 2.02877e-09
0.0161676 -2.3589e-08 4.53871e-10
0.0161677 -3.39718e-08 -2.93541e-09
0.01 -1.34026e-07 -1.4335e-06
0.0100007 -0.00298322 -0.000597898
0.0147871 -0.00997045 -0.000792723
0.0241995 -0.0177737 -0.00122572
0.0386509 -0.0326742 -0.00333108
0.0593794 -0.0249923 -0.00080946
0.0565947 -0.00278491 0.0031959
0.0560278 0.00504831 0.00339328
0.0502592 0.0100034 0.00300433
0.0448173 0.0101253 0.00212882
0.0403496 0.00901302 0.00121266
0.0366756 0.00756948 0.000493479
0.0337379 0.00610174 -1.2381e-05
0.0314818 0.00478685 -0.000317935
0.0297527 0.00370694 -0.000445025
0.0284006 0.00285695 -0.00044069
0.0273222 0.00219201 -0.000360582
0.0264589 0.00166759 -0.000252987
0.0257787 0.00125191 -0.000151257
0.0252589 0.000924032 -7.24752e-05
0.0248765 0.000668723 -2.06354e-05
0.0246068 0.000473209 8.04619e-06
0.0244248 0.000326249 2.02774e-05
0.0243085 0.000218111 2.25975e-05
0.0242388 0.000140533 1.99998e-05
0.0242009 8.65325e-05 1.56854e-05
0.0241835 5.02391e-05 1.13776e-05
0.0241784 2.68071e-05 7.80317e-06
0.0241801 1.23725e-05 5.12567e-06
0.0241849 3.98384e-06 3.24928e-06
0.0241908 -5.12593e-07 1.99546e-06
0.0241965 -2.61956e-06 1.18793e-06
0.0242016 -3.34123e-06 6.83783e-07
0.0242057 -3.32002e-06 3.78016e-07
0.024209 -2.94806e-06 1.97997e-07
0.0242115 -2.45166e-06 9.55092e-08
0.0242134 -1.95191e-06 3.95426e-08
0.0242148 -1.50608e-06 1.06857e-08
0.0242158 -1.13484e-06 -2.90493e-09
0.0242166 -8.39343e-07 -8.26522e-09
0.0242171 -6.11579e-07 -9.45215e-09
0.0242174 -4.40203e-07 -8.71692e-09
0.0242177 -3.13663e-07 -7.25217e-09
0.0242179 -2.21662e-07 -5.66392e-09
0.024218 -1.55686e-07 -4.23205e-09
0.0242181 -1.09065e-07 -2.99108e-09
0.0242181 -7.68556e-08 -1.65406e-09
0.0242182 -5.73015e-08 4.20892e-10
0.0242182 -5.18498e-08 3.39477e-09
0.0242182 -6.90312e-08 -2.48261e-09
0.0242183 -8.51332e-08 -1.00127e-08
0.0148 -9.43149e-07 -1.72266e-06
0.0148023 -0.00530115 -0.00112387
0.0204131 -0.0164664 -0.00244975
0.0276324 -0.0289538 -0.00394443
0.0323154 -0.046407 -0.00578193
0.0307608 -0.0286379 -0.00142323
0.0269402 -1.21858e-05 0.00331405
0.0263749 0.00704163 0.00352864
0.029855 0.0143354 0.00343497
0.0302071 0.0136957 0.00247931
0.0294345 0.0118604 0.00154017
0.0286297 0.0099792 0.000728331
0.028032 0.00810772 0.000140101
0.0277376 0.00641522 -0.000217852
0.0276188 0.00503062 -0.00036755
0.0275692 0.00392583 -0.00037273
0.0275414 0.00303164 -0.000300547
0.0275256 0.00229754 -0.000202249
0.0275256 0.00169799 -0.000109773
0.0275444 0.00121995 -3.84579e-05
0.0275803 0.000851052 8.05067e-06
0.0276283 0.000575528 3.27774e-05
0.0276826 0.000375687 4.15175e-05
0.0277382 0.00023469 4.03347e-05
0.0277913 0.000138134 3.42175e-05
0.0278394 7.4342e-05 2.65902e-05
0.0278811 3.40669e-05 1.93984e-05
0.0279159 1.01161e-05 1.34851e-05
0.0279438 -2.96071e-06 9.01945e-06
0.0279656 -9.14563e-06 5.8401e-06
0.0279822 -1.12229e-05 3.67375e-06
0.0279944 -1.10471e-05 2.24827e-06
0.0280033 -9.78935e-06 1.33774e-06
0.0280097 -8.14451e-06 7.71711e-07
0.0280142 -6.49288e-06 4.29105e-07
0.0280173 -5.01793e-06 2.27475e-07
0.0280195 -3.78734e-06 1.12507e-07
0.028021 -2.80583e-06 4.94222e-08
0.028022 -2.04784e-06 1.65297e-08
0.0280226 -1.47651e-06 6.43147e-10
0.0280231 -1.05394e-06 -6.04211e-09
0.0280234 -7.46094e-07 -8.00614e-09
0.0280236 -5.24595e-07 -7.73106e-09
0.0280238 -3.66927e-07 -6.5508e-09
0.0280239 -2.55856e-07 -5.11488e-09
0.0280239 -1.7886e-07 -3.65273e-09
0.028024 -1.27425e-07 -1.89788e-09
0.028024 -9.72791e-08 1.29694e-10
0.028024 -8.8055e-08 2.23707e-10
0.0280241 -9.44153e-08 -1.06923e-08
0.0280241 -1.00035e-07 -2.07038e-08
0.018 -1.90299e-06 -1.66776e-06
0.0180029 -0.00702219 -0.00187264
0.0208038 -0.0190834 -0.0049278
0.0207712 -0.0251358 -0.00635483
0.0161192 -0.0271469 -0.00764308
-1.58416e-06 -0.0140819 -0.00434438
9.55074e-05 2.55338e-05 9.15689e-07
-3.24934e-05 3.38143e-05 0.000655643
0.00654801 0.00403034 0.00144717
0.0133347 0.00909804 0.00142251
0.0167173 0.00980879 0.0010214
0.0185129 0.0087785 0.000498583
0.0202323 0.00723592 2.44076e-05
0.0219363 0.00569772 -0.000246663
0.0234548 0.00445255 -0.000330681
0.0247233 0.00345957 -0.000302225
0.0257549 0.0026372 -0.00022503
0.0265897 0.00194371 -0.000139098
0.0272667 0.0013706 -6.46649e-05
0.0278146 0.000918444 -9.21969e-06
0.0282536 0.000580875 2.65499e-05
0.0285999 0.000341832 4.51707e-05
0.0288685 0.000180479 5.06564e-05
0.0290735 7.66525e-05 4.75065e-05
0.0292277 1.36508e-05 3.98549e-05
0.029342 -2.13468e-05 3.08471e-05
0.0294255 -3.78674e-05 2.24276e-05
0.0294855 -4.28527e-05 1.55004e-05
0.0295278 -4.12172e-05 1.02651e-05
0.0295573 -3.62838e-05 6.54656e-06
0.0295773 -3.01589e-05 4.03051e-06
0.0295908 -2.40645e-05 2.39538e-06
0.0295996 -1.86207e-05 1.37008e-06
0.0296054 -1.40678e-05 7.48702e-07
0.0296091 -1.04274e-05 3.85048e-07
0.0296115 -7.61097e-06 1.80348e-07
0.029613 -5.48579e-06 7.04771e-08
0.0296139 -3.91335e-06 1.52306e-08
0.0296145 -2.76792e-06 -9.78079e-09
0.0296149 -1.944e-06 -1.88733e-08
0.0296151 -1.35741e-06 -2.01587e-08
0.0296152 -9.43335e-07 -1.80393e-08
0.0296153 -6.53152e-07 -1.4767e-08
0.0296154 -4.5117e-07 -1.14226e-08
0.0296154 -3.11733e-07 -8.41413e-09
0.0296154 -2.1689e-07 -5.86889e-09
0.0296154 -1.54562e-07 -3.66367e-09
0.0296155 -1.15715e-07 -2.11967e-09
0.0296155 -9.48666e-08 -5.87818e-09
0.0296154 -7.60714e-08 -1.87181e-08
0.0296154 -6.35122e-08 -2.73214e-08
0.0196 -2.77087e-06 -2.51446e-06
0.019601 -0.00593969 -0.00274353
0.0190509 -0.0132585 -0.00648925
0.0159199 -0.0163179 -0.00670351
0.0108422 -0.0153112 -0.00669864
0.00169382 -0.0063149 -0.00504904
7.10524e-05 -6.52288e-05 -0.00130577
3.27354e-05 -3.27354e-05 -4.17003e-08
-3.18982e-05 3.30885e-05 0.000265191
0.00385035 0.00267091 0.000569173
0.00876141 0.00618793 0.000503659
0.0116464 0.00636674 0.000156441
0.014883 0.00492676 -0.000227671
0.0180268 0.00361756 -0.000401635
0.0207176 0.00270275 -0.000406822
0.0228944 0.00202393 -0.000330051
0.024621 0.00145935 -0.000231522
0.0259842 0.000970977 -0.0001421
0.0270554 0.000566734 -7.22068e-05
0.0278873 0.00026056 -2.21135e-05
0.0285206 5.23167e-05 1.08391e-05
0.0289906 -7.29938e-05 2.94852e-05
0.0293305 -0.000136994 3.67784e-05
0.0295703 -0.000160266 3.60769e-05
0.0297355 -0.00015884 3.081e-05
0.029847 -0.000143927 2.38423e-05
0.0299206 -0.000122927 1.70778e-05
0.0299679 -0.000100504 1.14679e-05
0.0299977 -7.93971e-05 7.27249e-06
0.0300159 -6.09998e-05 4.3666e-06
0.0300266 -4.58046e-05 2.47518e-06
0.0300327 -3.3751e-05 1.30973e-06
0.030036 -2.44853e-05 6.28798e-07
0.0300376 -1.75377e-05 2.53314e-07
0.0300384 -1.24307e-05 6.07043e-08
0.0300386 -8.73613e-06 -2.79653e-08
0.0300386 -6.09732e-06 -6.0953e-08
0.0300385 -4.23183e-06 -6.63474e-08
0.0300384 -2.92384e-06 -5.9668e-08
0.0300383 -2.0128e-06 -4.89736e-08
0.0300381 -1.38163e-06 -3.81026e-08
0.0300381 -9.46282e-07 -2.86211e-08
0.030038 -6.47181e-07 -2.09416e-08
0.0300379 -4.42519e-07 -1.49902e-08
0.0300379 -3.03254e-07 -1.05156e-08
0.0300379 -2.09112e-07 -7.31292e-09
0.0300378 -1.45746e-07 -5.34416e-09
0.0300378 -1.01079e-07 -4.52937e-09
0.0300378 -6.56463e-08 -1.02538e-08
0.0300378 -2.21174e-08 -2.09587e-08
0.0300377 5.1725e-09 -2.58004e-08
0.0196 -1.33637e-06 -3.5153e-06
0.0195999 -0.00370517 -0.00312879
0.0187467 -0.00814706 -0.00653096
0.0174885 -0.00820075 -0.00606058
0.0131437 -0.00438447 -0.00554596
0.0090411 0.00249676 -0.00534196
0.00613175 0.0031237 -0.00313278
7.12304e-05 -5.92272e-05 -0.00068205
2.73289e-05 -2.73289e-05 -1.25176e-07
-3.1366e-05 3.24305e-05 9.82357e-05
0.00262154 0.00180147 0.000374818
0.00681325 0.00271977 0.000278303
0.0120169 0.00118562 -0.000165077
0.0166139 0.00030753 -0.000377186
0.0201958 2.15732e-05 -0.00039618
0.0228789 -8.0289e-05 -0.000323756
0.0248779 -0.000183804 -0.000230341
0.0263677 -0.000312334 -0.000149582
0.0274677 -0.000428853 -8.96488e-05
0.0282605 -0.000498987 -4.76529e-05
0.0288108 -0.000512928 -1.91491e-05
0.029175 -0.000481274 -1.16516e-06
0.0294029 -0.000422416 8.38474e-06
0.0295365 -0.000352954 1.16777e-05
0.0296086 -0.000284094 1.10758e-05
0.0296429 -0.000221962 8.67076e-06
0.0296554 -0.000169169 5.91175e-06
0.0296563 -0.000126218 3.55889e-06
0.0296519 -9.2458e-05 1.86008e-06
0.0296456 -6.66719e-05 7.78326e-07
0.0296391 -4.74462e-05 1.66555e-07
0.0296335 -3.3399e-05 -1.32803e-07
0.0296289 -2.33051e-05 -2.46375e-07
0.0296252 -1.61492e-05 -2.61442e-07
0.0296225 -1.11301e-05 -2.31834e-07
0.0296205 -7.63908e-06 -1.87559e-07
0.029619 -5.22639e-06 -1.43498e-07
0.0296179 -3.56702e-06 -1.05799e-07
0.0296172 -2.42993e-06 -7.6032e-08
0.0296167 -1.65291e-06 -5.36623e-08
0.0296163 -1.12309e-06 -3.73903e-08
0.029616 -7.62513e-07 -2.5804e-08
0.0296159 -5.17532e-07 -1.76596e-08
0.0296157 -3.51313e-07 -1.20115e-08
0.0296156 -2.3842e-07 -8.21841e-09
0.0296156 -1.60808e-07 -5.86063e-09
0.0296155 -1.05178e-07 -4.84716e-09
0.0296155 -6.03443e-08 -4.60119e-09
0.0296155 -1.59818e-08 -9.38943e-09
0.0296154 3.98314e-08 -1.57303e-08
0.0296154 7.23788e-08 -1.71912e-08
0.018 -8.4904e-07 -3.5112e-06
0.0180009 -0.0020197 -0.00305216
0.0183095 -0.0039142 -0.00616947
0.0183556 -0.00273539 -0.0052923
0.0173282 0.000546063 -0.00418947
0.0170384 0.00700644 -0.00396588
0.0177697 0.0125441 -0.00302242
0.0109061 0.00692377 -0.00151805
7.26647e-05 -4.57897e-05 -0.000443292
-2.45357e-05 -5.33831e-05 5.47831e-07
7.78282e-06 -0.000776021 0.000759312
0.00818134 -0.00304947 0.0011058
0.015371 -0.00462873 0.000452819
0.0202547 -0.00419019 0.000107383
0.0233712 -0.00317773 -3.52839e-05
0.0253691 -0.00232153 -8.23456e-05
0.0266745 -0.00176241 -9.01808e-05
0.0275248 -0.00141998 -8.48441e-05
0.0280539 -0.00118611 -7.53114e-05
0.0283493 -0.000991267 -6.33402e-05
0.0284793 -0.000809449 -4.97077e-05
0.0285014 -0.00064051 -3.61296e-05
0.0284616 -0.000491827 -2.44867e-05
0.0283937 -0.000368388 -1.57804e-05
0.0283193 -0.000270608 -9.95185e-06
0.0282505 -0.000195752 -6.33468e-06
0.0281924 -0.000139838 -4.16141e-06
0.0281464 -9.88466e-05 -2.83546e-06
0.0281113 -6.92505e-05 -1.983e-06
0.0280855 -4.8158e-05 -1.40042e-06
0.0280668 -3.32912e-05 -9.84854e-07
0.0280536 -2.29079e-05 -6.83696e-07
0.0280444 -1.57085e-05 -4.66559e-07
0.028038 -1.07441e-05 -3.12598e-07
0.0280336 -7.33453e-06 -2.05745e-07
0.0280306 -4.99955e-06 -1.33212e-07
0.0280285 -3.40371e-06 -8.50002e-08
0.0280271 -2.31465e-06 -5.35581e-08
0.0280261 -1.57234e-06 -3.33918e-08
0.0280255 -1.06693e-06 -2.06394e-08
0.028025 -7.23204e-07 -1.26686e-08
0.0280247 -4.89685e-07 -7.72948e-09
0.0280245 -3.3108e-07 -4.69303e-09
0.0280244 -2.23007e-07 -2.8785e-09
0.0280243 -1.48356e-07 -1.90469e-09
0.0280242 -9.47473e-08 -1.50701e-09
0.0280241 -5.27771e-08 -1.61586e-09
0.0280241 -1.4767e-08 -1.61907e-09
0.0280241 2.75062e-08 -3.68932e-09
0.028024 7.80569e-08 -6.195e-09
0.028024 1.05241e-07 -6.439e-09
0.0148 -4.75377e-07 -3.11068e-06
0.0148015 -0.00104345 -0.00283345
0.0162275 -0.00167179 -0.00543435
0.0177794 -7.82814e-05 -0.00429395
0.0190792 0.00311142 -0.00305784
0.0207911 0.00730328 -0.00283148
0.0245957 0.012968 -0.00240911
0.0278871 0.0194965 -0.00152992
0.022941 0.0112709 -0.000357425
0.0234034 7.05697e-12 0.000618549
0.0265582 -0.00675129 0.00156301
0.0299169 -0.0131936 0.0021261
0.0306129 -0.0111035 0.00165023
0.0299328 -0.00771242 0.00113223
0.028911 -0.00500782 0.000659709
0.0279796 -0.00324595 0.00030251
0.0272307 -0.0021799 7.89877e-05
0.0266344 -0.00152913 -3.70764e-05
0.0261451 -0.00110234 -8.32471e-05
0.025734 -0.000797171 -8.98543e-05
0.0253882 -0.000568602 -7.73083e-05
0.0251026 -0.000398093 -5.836e-05
0.0248733 -0.00027477 -4.01239e-05
0.0246944 -0.0001885 -2.56549e-05
0.0245589 -0.000129481 -1.54745e-05
0.0244586 -8.94217e-05 -8.89301e-06
0.0243859 -6.21373e-05 -4.89566e-06
0.0243342 -4.33843e-05 -2.58005e-06
0.0242979 -3.03707e-05 -1.28857e-06
0.0242727 -2.1274e-05 -5.92591e-07
0.0242554 -1.48886e-05 -2.31491e-07
0.0242435 -1.03997e-05 -5.36395e-08
0.0242354 -7.24542e-06 2.66328e-08
0.0242299 -5.0328e-06 5.67127e-08
0.0242262 -3.48467e-06 6.23054e-08
0.0242236 -2.40473e-06 5.70312e-08
0.0242219 -1.65391e-06 4.78645e-08
0.0242207 -1.13372e-06 3.81829e-08
0.0242199 -7.74591e-07 2.94614e-08
0.0242194 -5.2753e-07 2.22029e-08
0.024219 -3.58107e-07 1.64409e-08
0.0242188 -2.42153e-07 1.20102e-08
0.0242186 -1.62666e-07 8.67897e-09
0.0242185 -1.07585e-07 6.20642e-09
0.0242184 -6.82201e-08 4.38728e-09
0.0242183 -3.81446e-08 3.10411e-09
0.0242183 -1.23243e-08 2.2993e-09
0.0242183 1.29741e-08 2.22215e-09
0.0242183 4.13163e-08 2.20571e-09
0.0242183 7.16769e-08 8.52491e-10
0.0242183 8.65845e-08 -2.72469e-10
0.01 -9.10948e-07 -2.81926e-06
0.0100008 -0.000639162 -0.00230767
0.0113164 -0.000726427 -0.00414819
0.0131634 0.000529548 -0.00290498
0.0155681 0.00249235 -0.00179377
0.0194306 0.00553806 -0.00179694
0.0253278 0.00835673 -0.00235393
0.0344492 0.0101196 -0.00209335
0.0460551 0.0048111 -0.000517501