# vtk DataFile Version 2.0
Tobias Weinzierl: CPU, Manycore and Cluster Computing
ASCII

DATASET STRUCTURED_POINTS
DIMENSIONS  51 11 6

ORIGIN 0 0 0 

SPACING 0.1 0.1 0.1 

POINT_DATA 3366

VECTORS velocity float
0 0 0
-6.24723e-12 0 0
-2.47535e-07 0 0
-4.16999e-07 0 0
-3.93488e-07 0 0
-9.47175e-08 0 0
-2.0855e-08 0 0
-6.5279e-08 0 0
-1.5972e-07 0 0
-2.50602e-07 0 0
-2.92162e-07 0 0
-2.96278e-07 0 0
-2.87755e-07 0 0
-2.79843e-07 0 0
-2.76238e-07 0 0
-2.7636e-07 0 0
-2.78402e-07 0 0
-2.80922e-07 0 0
-2.83175e-07 0 0
-2.84915e-07 0 0
-2.86148e-07 0 0
-2.86974e-07 0 0
-2.87505e-07 0 0
-2.87835e-07 0 0
-2.88036e-07 0 0
-2.88157e-07 0 0
-2.88228e-07 0 0
-2.8827e-07 0 0
-2.88295e-07 0 0
-2.88311e-07 0 0
-2.88322e-07 0 0
-2.8833e-07 0 0
-2.88337e-07 0 0
-2.88343e-07 0 0
-2.88349e-07 0 0
-2.88355e-07 0 0
-2.88361e-07 0 0
-2.88366e-07 0 0
-2.88371e-07 0 0
-2.88377e-07 0 0
-2.88382e-07 0 0
-2.88387e-07 0 0
-2.88393e-07 0 0
-2.88399e-07 0 0
-2.88404e-07 0 0
-2.88409e-07 0 0
-2.88414e-07 0 0
-2.88419e-07 0 0
-2.88429e-07 0 0
-2.88462e-07 0 0
0.00296619 0 0
0 4.81901e-07 0
7.14287e-11 1.37816e-07 0
-4.76056e-07 2.22617e-07 0
-8.21355e-07 1.34609e-07 0
-7.26173e-07 6.19858e-08 0
-2.12882e-07 7.82945e-08 0
-7.48003e-08 1.5358e-07 0
-1.09505e-07 1.62102e-07 0
-1.99622e-07 1.39593e-07 0
-3.40678e-07 1.0034e-07 0
-4.20934e-07 4.71442e-08 0
-4.44334e-07 1.31167e-08 0
-4.51286e-07 1.92958e-10 0
-4.59682e-07 -1.5408e-09 0
-4.72558e-07 6.80732e-10 0
-4.87607e-07 2.93744e-09 0
-5.01719e-07 3.89238e-09 0
-5.1316e-07 3.75368e-09 0
-5.21593e-07 3.08666e-09 0
-5.27415e-07 2.30457e-09 0
-5.31252e-07 1.61165e-09 0
-5.33696e-07 1.07401e-09 0
-5.35213e-07 6.88955e-10 0
-5.36136e-07 4.2794e-10 0
-5.36691e-07 2.58135e-10 0
-5.37021e-07 1.51233e-10 0
-5.37217e-07 8.57785e-11 0
-5.37335e-07 4.67014e-11 0
-5.37407e-07 2.39495e-11 0
-5.37453e-07 1.10652e-11 0
-5.37485e-07 4.01907e-12 0
-5.37508e-07 3.55322e-13 0
-5.37527e-07 -1.39348e-12 0
-5.37543e-07 -2.08882e-12 0
-5.37558e-07 -2.22781e-12 0
-5.37572e-07 -2.09184e-12 0
-5.37584e-07 -1.83625e-12 0
-5.37596e-07 -1.5434e-12 0
-5.37608e-07 -1.25359e-12 0
-5.37619e-07 -9.82545e-13 0
-5.3763e-07 -7.3044e-13 0
-5.37641e-07 -4.84982e-13 0
-5.37653e-07 -2.18351e-13 0
-5.37664e-07 1.28097e-13 0
-5.37676e-07 6.78019e-13 0
-5.37687e-07 1.64138e-12 0
-5.37698e-07 3.40285e-12 0
-5.37712e-07 7.75322e-12 0
-5.37736e-07 2.36748e-11 0
-5.37797e-07 7.19134e-11 0
0.00774377 -3.3755e-07 0
0 5.54975e-08 0
2.44192e-10 1.70119e-07 0
-3.60531e-07 2.10763e-07 0
-6.7637e-07 2.17033e-08 0
-4.42424e-07 1.99923e-08 0
-1.15468e-07 1.28705e-07 0
-1.6433e-07 1.6998e-07 0
-2.1879e-07 6.63861e-08 0
-2.15368e-07 -4.45624e-09 0
-2.5489e-07 3.47841e-08 0
-2.93505e-07 6.78655e-08 0
-3.02132e-07 9.44073e-08 0
-3.1233e-07 9.83891e-08 0
-3.26968e-07 8.20799e-08 0
-3.46344e-07 6.16134e-08 0
-3.67319e-07 4.43355e-08 0
-3.85893e-07 3.10016e-08 0
-4.00175e-07 2.10866e-08 0
-4.10176e-07 1.39662e-08 0
-4.16753e-07 9.02561e-09 0
-4.20893e-07 5.70505e-09 0
-4.23421e-07 3.53586e-09 0
-4.24932e-07 2.15366e-09 0
-4.25823e-07 1.29169e-09 0
-4.26346e-07 7.63986e-10 0
-4.26652e-07 4.45998e-10 0
-4.26833e-07 2.56973e-10 0
-4.26943e-07 1.45943e-10 0
-4.27012e-07 8.14306e-11 0
-4.27058e-07 4.43433e-11 0
-4.27091e-07 2.32673e-11 0
-4.27116e-07 1.14602e-11 0
-4.27137e-07 4.97644e-12 0
-4.27155e-07 1.52452e-12 0
-4.27171e-07 -2.1817e-13 0
-4.27186e-07 -1.01067e-12 0
-4.272e-07 -1.28543e-12 0
-4.27212e-07 -1.28558e-12 0
-4.27225e-07 -1.14337e-12 0
-4.27236e-07 -9.23785e-13 0
-4.27248e-07 -6.46179e-13 0
-4.27259e-07 -2.89737e-13 0
-4.27271e-07 2.15925e-13 0
-4.27283e-07 1.02185e-12 0
-4.27294e-07 2.47529e-12 0
-4.27305e-07 5.47036e-12 0
-4.27315e-07 1.19655e-11 0
-4.27325e-07 2.48432e-11 0
-4.27338e-07 4.49739e-11 0
-4.27375e-07 7.53421e-11 0
0.00991272 -4.20593e-07 0
0 -5.68224e-07 0
3.37886e-10 8.69029e-08 0
-2.44014e-07 -6.39073e-09 0
-5.63045e-07 -2.84614e-07 0
-3.26919e-07 -2.55172e-07 0
2.69466e-09 -6.39478e-08 0
-1.10347e-07 -1.00916e-10 0
-1.74561e-07 -1.50231e-07 0
-4.06056e-07 -3.0181e-07 0
-4.18926e-07 -2.09672e-07 0
-4.13293e-07 -3.07241e-08 0
-3.92523e-07 1.03534e-07 0
-3.68453e-07 1.50679e-07 0
-3.4124e-07 1.31825e-07 0
-3.24606e-07 9.8413e-08 0
-3.2049e-07 6.94198e-08 0
-3.2291e-07 4.71433e-08 0
-3.26899e-07 3.09489e-08 0
-3.30286e-07 1.97303e-08 0
-3.32595e-07 1.22736e-08 0
-3.33997e-07 7.4819e-09 0
-3.34789e-07 4.48538e-09 0
-3.35217e-07 2.65208e-09 0
-3.35442e-07 1.55008e-09 0
-3.35562e-07 8.97003e-10 0
-3.35627e-07 5.14378e-10 0
-3.35666e-07 2.92275e-10 0
-3.35692e-07 1.64337e-10 0
-3.35712e-07 9.11352e-11 0
-3.3573e-07 4.95245e-11 0
-3.35747e-07 2.60481e-11 0
-3.35762e-07 1.29366e-11 0
-3.35778e-07 5.727e-12 0
-3.35793e-07 1.8642e-12 0
-3.35807e-07 -1.1177e-13 0
-3.35821e-07 -1.0338e-12 0
-3.35834e-07 -1.37552e-12 0
-3.35847e-07 -1.40357e-12 0
-3.35859e-07 -1.26319e-12 0
-3.35871e-07 -1.02487e-12 0
-3.35882e-07 -7.07034e-13 0
-3.35893e-07 -2.80274e-13 0
-3.35905e-07 3.51282e-13 0
-3.35916e-07 1.3892e-12 0
-3.35926e-07 3.12855e-12 0
-3.35935e-07 5.85642e-12 0
-3.3594e-07 9.96345e-12 0
-3.3594e-07 1.65532e-11 0
-3.35936e-07 2.79441e-11 0
-3.35952e-07 4.64642e-11 0
0.0103209 -3.1497e-07 0
0 -1.09549e-06 0
2.70944e-10 -1.8334e-08 0
-2.47491e-07 -1.57572e-07 0
-5.98411e-07 -3.0271e-07 0
-5.07467e-07 -2.21303e-07 0
-7.80804e-11 -5.79033e-08 0
1.74315e-11 -1.63595e-10 0
8.09512e-11 -1.47212e-10 0
-2.30589e-07 -1.85642e-07 0
-4.67377e-07 -2.92341e-07 0
-4.64522e-07 -1.01524e-07 0
-4.73285e-07 6.9927e-08 0
-4.65511e-07 1.26874e-07 0
-4.21519e-07 1.09359e-07 0
-3.76274e-07 8.20184e-08 0
-3.47048e-07 5.93641e-08 0
-3.31406e-07 4.08603e-08 0
-3.23346e-07 2.6612e-08 0
-3.1898e-07 1.65581e-08 0
-3.16425e-07 9.96046e-09 0
-3.14844e-07 5.85045e-09 0
-3.13844e-07 3.38045e-09 0
-3.13214e-07 1.93194e-09 0
-3.12824e-07 1.09625e-09 0
-3.1259e-07 6.19128e-10 0
-3.12454e-07 3.48405e-10 0
-3.12379e-07 1.95276e-10 0
-3.12342e-07 1.08757e-10 0
-3.12327e-07 5.98744e-11 0
-3.12325e-07 3.22583e-11 0
-3.12331e-07 1.6684e-11 0
-3.1234e-07 7.95112e-12 0
-3.12353e-07 3.12037e-12 0
-3.12366e-07 5.22019e-13 0
-3.12379e-07 -7.98867e-13 0
-3.12393e-07 -1.39255e-12 0
-3.12406e-07 -1.57793e-12 0
-3.12418e-07 -1.53956e-12 0
-3.1243e-07 -1.38193e-12 0
-3.12442e-07 -1.15938e-12 0
-3.12453e-07 -8.92015e-13 0
-3.12464e-07 -5.76451e-13 0
-3.12475e-07 -2.04321e-13 0
-3.12486e-07 2.21405e-13 0
-3.12495e-07 7.46573e-13 0
-3.12502e-07 1.59208e-12 0
-3.12505e-07 3.22862e-12 0
-3.12503e-07 6.40338e-12 0
-3.12498e-07 1.24286e-11 0
-3.12514e-07 2.20338e-11 0
0.0103769 -1.60521e-07 0
0 -9.78736e-07 0
2.07238e-10 -6.7259e-08 0
-2.59436e-07 -1.76143e-07 0
-6.14039e-07 -2.46872e-07 0
-6.2348e-07 -2.55057e-07 0
-2.00446e-07 -1.17094e-07 0
-8.66648e-12 3.22547e-11 0
4.55888e-11 -4.55888e-11 0
3.87251e-11 -1.20614e-10 0
-2.13265e-07 -1.19821e-07 0
-3.42929e-07 -1.04339e-07 0
-4.41005e-07 1.00915e-07 0
-5.25192e-07 1.46255e-07 0
-5.02749e-07 9.49005e-08 0
-4.36678e-07 5.50117e-08 0
-3.82906e-07 3.40771e-08 0
-3.50448e-07 2.1081e-08 0
-3.32418e-07 1.23233e-08 0
-3.22391e-07 6.78498e-09 0
-3.16691e-07 3.57001e-09 0
-3.13402e-07 1.82557e-09 0
-3.11494e-07 9.22108e-10 0
-3.10391e-07 4.67417e-10 0
-3.09759e-07 2.41408e-10 0
-3.09402e-07 1.28627e-10 0
-3.09205e-07 7.11476e-11 0
-3.09099e-07 4.07276e-11 0
-3.09046e-07 2.38056e-11 0
-3.09024e-07 1.38818e-11 0
-3.09018e-07 7.79627e-12 0
-3.09021e-07 3.95981e-12 0
-3.0903e-07 1.52677e-12 0
-3.09042e-07 1.2295e-14 0
-3.09055e-07 -8.84921e-13 0
-3.09068e-07 -1.36559e-12 0
-3.09081e-07 -1.56983e-12 0
-3.09094e-07 -1.59774e-12 0
-3.09107e-07 -1.52114e-12 0
-3.09119e-07 -1.39157e-12 0
-3.0913e-07 -1.24711e-12 0
-3.09142e-07 -1.11968e-12 0
-3.09153e-07 -1.03985e-12 0
-3.09164e-07 -1.02971e-12 0
-3.09175e-07 -1.09118e-12 0
-3.09184e-07 -1.22622e-12 0
-3.09192e-07 -1.47354e-12 0
-3.09195e-07 -1.87724e-12 0
-3.09194e-07 -2.25998e-12 0
-3.09189e-07 -1.89665e-12 0
-3.09204e-07 -3.88261e-13 0
0.0103824 1.17632e-09 0
0 -6.9616e-07 0
1.90406e-10 -8.80614e-08 0
-2.47389e-07 -1.97837e-07 0
-6.00188e-07 -1.84822e-07 0
-6.49921e-07 -1.36063e-07 0
-4.43755e-07 -1.29871e-07 0
-1.57323e-07 -6.884e-08 0
-2.67379e-11 3.88571e-11 0
-1.41533e-12 1.41533e-12 0
-3.5514e-11 -1.09204e-10 0
-1.26969e-07 8.57098e-08 0
-3.27454e-07 2.46938e-07 0
-5.68759e-07 2.35927e-07 0
-6.00288e-07 8.96532e-08 0
-5.012e-07 1.32691e-08 0
-4.10928e-07 -5.62907e-09 0
-3.60254e-07 -7.77719e-09 0
-3.3565e-07 -6.77379e-09 0
-3.23915e-07 -5.19743e-09 0
-3.1819e-07 -3.6462e-09 0
-3.15323e-07 -2.37997e-09 0
-3.13859e-07 -1.46773e-09 0
-3.13101e-07 -8.6522e-10 0
-3.12706e-07 -4.91172e-10 0
-3.125e-07 -2.69497e-10 0
-3.12394e-07 -1.42983e-10 0
-3.12343e-07 -7.31924e-11 0
-3.12321e-07 -3.60065e-11 0
-3.12315e-07 -1.69712e-11 0
-3.12319e-07 -7.71737e-12 0
-3.12328e-07 -3.53857e-12 0
-3.12339e-07 -1.86284e-12 0
-3.12352e-07 -1.33061e-12 0
-3.12365e-07 -1.25445e-12 0
-3.12379e-07 -1.30969e-12 0
-3.12392e-07 -1.36097e-12 0
-3.12405e-07 -1.36714e-12 0
-3.12418e-07 -1.33083e-12 0
-3.1243e-07 -1.27328e-12 0
-3.12441e-07 -1.2227e-12 0
-3.12453e-07 -1.20935e-12 0
-3.12464e-07 -1.26552e-12 0
-3.12475e-07 -1.43441e-12 0
-3.12486e-07 -1.78973e-12 0
-3.12496e-07 -2.47273e-12 0
-3.12504e-07 -3.76738e-12 0
-3.12509e-07 -6.1853e-12 0
-3.12509e-07 -1.02829e-11 0
-3.12505e-07 -1.60769e-11 0
-3.1252e-07 -2.29973e-11 0
0.0103769 1.62212e-07 0
0 -5.01963e-07 0
1.58922e-10 -1.02745e-07 0
-2.54055e-07 -2.01428e-07 0
-5.78012e-07 -1.52602e-07 0
-6.28617e-07 -7.37245e-08 0
-4.82256e-07 -6.10348e-08 0
-3.46315e-07 -1.50659e-07 0
-2.08114e-07 -1.09441e-07 0
-1.14327e-10 -3.77344e-11 0
-1.00193e-10 -1.04706e-10 0
6.90441e-12 1.72878e-07 0
-1.49712e-07 4.51543e-07 0
-4.35519e-07 3.77915e-07 0
-5.706e-07 8.27199e-08 0
-5.10496e-07 -4.78634e-08 0
-4.20801e-07 -5.28202e-08 0
-3.68522e-07 -3.47594e-08 0
-3.46271e-07 -2.11499e-08 0
-3.38294e-07 -1.26217e-08 0
-3.35857e-07 -7.35491e-09 0
-3.35311e-07 -4.1727e-09 0
-3.35318e-07 -2.31103e-09 0
-3.35436e-07 -1.25374e-09 0
-3.35542e-07 -6.67261e-10 0
-3.35616e-07 -3.4808e-10 0
-3.35663e-07 -1.77378e-10 0
-3.35692e-07 -8.77912e-11 0
-3.35713e-07 -4.18591e-11 0
-3.35729e-07 -1.9041e-11 0
-3.35743e-07 -8.20994e-12 0
-3.35756e-07 -3.41797e-12 0
-3.35769e-07 -1.53926e-12 0
-3.35782e-07 -9.70864e-13 0
-3.35796e-07 -9.20944e-13 0
-3.35809e-07 -1.02179e-12 0
-3.35822e-07 -1.12154e-12 0
-3.35835e-07 -1.17361e-12 0
-3.35847e-07 -1.1795e-12 0
-3.35859e-07 -1.16057e-12 0
-3.3587e-07 -1.14594e-12 0
-3.35882e-07 -1.17055e-12 0
-3.35893e-07 -1.2812e-12 0
-3.35904e-07 -1.5514e-12 0
-3.35916e-07 -2.10863e-12 0
-3.35926e-07 -3.18056e-12 0
-3.35935e-07 -5.20005e-12 0
-3.35941e-07 -9.07268e-12 0
-3.35944e-07 -1.64408e-11 0
-3.35943e-07 -2.91472e-11 0
-3.35962e-07 -4.73318e-11 0
0.0103208 3.13074e-07 0
0 -4.60088e-07 0
1.20693e-10 -1.0189e-07 0
-2.90443e-07 -1.91171e-07 0
-5.8227e-07 -1.28792e-07 0
-6.37349e-07 -5.13972e-08 0
-5.32618e-07 -2.7002e-08 0
-4.02215e-07 -8.10244e-08 0
-3.80886e-07 -2.36111e-07 0
-2.76927e-07 -1.70198e-07 0
-4.24259e-07 -4.90357e-12 0
-5.18282e-07 1.65826e-07 0
-3.3274e-07 4.56628e-07 0
-2.31892e-07 4.19906e-07 0
-3.62883e-07 1.1255e-07 0
-4.38002e-07 -5.82425e-08 0
-4.3392e-07 -6.88654e-08 0
-4.22027e-07 -4.11307e-08 0
-4.19029e-07 -2.07043e-08 0
-4.20524e-07 -1.00105e-08 0
-4.22781e-07 -4.84957e-09 0
-4.24548e-07 -2.38218e-09 0
-4.25685e-07 -1.18715e-09 0
-4.2635e-07 -5.97331e-10 0
-4.26717e-07 -3.01274e-10 0
-4.26913e-07 -1.51186e-10 0
-4.27014e-07 -7.50556e-11 0
-4.27066e-07 -3.6815e-11 0
-4.27094e-07 -1.80015e-11 0
-4.2711e-07 -9.05063e-12 0
-4.27122e-07 -4.99445e-12 0
-4.27132e-07 -3.27353e-12 0
-4.27143e-07 -2.59561e-12 0
-4.27154e-07 -2.33176e-12 0
-4.27165e-07 -2.19443e-12 0
-4.27177e-07 -2.06746e-12 0
-4.27189e-07 -1.91666e-12 0
-4.27201e-07 -1.74391e-12 0
-4.27213e-07 -1.5651e-12 0
-4.27225e-07 -1.40063e-12 0
-4.27236e-07 -1.27339e-12 0
-4.27247e-07 -1.21221e-12 0
-4.27259e-07 -1.26084e-12 0
-4.27271e-07 -1.49567e-12 0
-4.27282e-07 -2.0582e-12 0
-4.27293e-07 -3.20775e-12 0
-4.27303e-07 -5.41589e-12 0
-4.27312e-07 -9.71661e-12 0
-4.27318e-07 -1.87888e-11 0
-4.27326e-07 -3.83525e-11 0
-4.27356e-07 -7.37493e-11 0
0.00991256 4.07909e-07 0
0 -4.99186e-07 0
7.96934e-11 -6.42907e-08 0
-3.22663e-07 -1.19052e-07 0
-5.76765e-07 -7.81198e-08 0
-6.42883e-07 -3.9629e-08 0
-6.18101e-07 -5.67006e-08 0
-5.42883e-07 -1.07323e-07 0
-4.941e-07 -1.32946e-07 0
-5.74068e-07 6.69856e-08 0
-5.93902e-07 2.92701e-07 0
-5.9635e-07 1.36852e-07 0
-4.35319e-07 -1.42572e-07 0
-3.45988e-07 -1.88621e-07 0
-4.68383e-07 -6.89934e-08 0
-5.59132e-07 2.61508e-08 0
-5.63763e-07 4.86507e-08 0
-5.4891e-07 3.49665e-08 0
-5.39964e-07 1.85355e-08 0
-5.36778e-07 8.46949e-09 0
-5.36167e-07 3.55974e-09 0
-5.36363e-07 1.41332e-09 0
-5.3669e-07 5.295e-10 0
-5.36957e-07 1.79052e-10 0
-5.37139e-07 4.46945e-11 0
-5.37255e-07 -4.14743e-12 0
-5.37329e-07 -1.97229e-11 0
-5.37377e-07 -2.26653e-11 0
-5.37411e-07 -2.10854e-11 0
-5.37437e-07 -1.81596e-11 0
-5.37459e-07 -1.5094e-11 0
-5.37478e-07 -1.2315e-11 0
-5.37496e-07 -9.94012e-12 0
-5.37514e-07 -7.96612e-12 0
-5.3753e-07 -6.34949e-12 0
-5.37546e-07 -5.0381e-12 0
-5.37561e-07 -3.98216e-12 0
-5.37575e-07 -3.1383e-12 0
-5.37589e-07 -2.47079e-12 0
-5.37602e-07 -1.95197e-12 0
-5.37614e-07 -1.56321e-12 0
-5.37626e-07 -1.29735e-12 0
-5.37638e-07 -1.16437e-12 0
-5.3765e-07 -1.20272e-12 0
-5.37662e-07 -1.50239e-12 0
-5.37674e-07 -2.25142e-12 0
-5.37686e-07 -3.81891e-12 0
-5.37697e-07 -7.00183e-12 0
-5.37709e-07 -1.42121e-11 0
-5.37729e-07 -3.33202e-11 0
-5.37785e-07 -7.8007e-11 0
0.00774375 3.1225e-07 0
0 0 0
3.51791e-11 0 0
-1.62836e-07 0 0
-2.78978e-07 0 0
-3.17423e-07 0 0
-3.24354e-07 0 0
-3.29647e-07 0 0
-3.21334e-07 0 0
-2.97217e-07 0 0
-1.69708e-07 0 0
-7.80585e-08 0 0
-1.31005e-07 0 0
-2.60191e-07 0 0
-3.51154e-07 0 0
-3.65412e-07 0 0
-3.39994e-07 0 0
-3.14526e-07 0 0
-2.99592e-07 0 0
-2.92572e-07 0 0
-2.89662e-07 0 0
-2.88568e-07 0 0
-2.88204e-07 0 0
-2.88112e-07 0 0
-2.88113e-07 0 0
-2.88141e-07 0 0
-2.88173e-07 0 0
-2.88203e-07 0 0
-2.88228e-07 0 0
-2.8825e-07 0 0
-2.88268e-07 0 0
-2.88284e-07 0 0
-2.88299e-07 0 0
-2.88311e-07 0 0
-2.88322e-07 0 0
-2.88333e-07 0 0
-2.88342e-07 0 0
-2.8835e-07 0 0
-2.88358e-07 0 0
-2.88365e-07 0 0
-2.88372e-07 0 0
-2.88378e-07 0 0
-2.88385e-07 0 0
-2.88391e-07 0 0
-2.88397e-07 0 0
-2.88403e-07 0 0
-2.88409e-07 0 0
-2.88416e-07 0 0
-2.88423e-07 0 0
-2.88437e-07 0 0
-2.88474e-07 0 0
0.00296626 0 0
0 0 5.23418e-07
1.37616e-10 0 1.09759e-07
-5.04055e-07 0 1.94408e-07
-9.43731e-07 0 1.13467e-08
-1.05615e-06 0 -3.84305e-07
-1.2472e-07 0 -4.50984e-07
1.68465e-07 0 -1.83064e-07
1.57105e-07 0 -2.32589e-08
1.21157e-08 0 4.57235e-08
-1.63347e-07 0 3.20987e-08
-2.84353e-07 0 -1.47776e-09
-3.56343e-07 0 -1.75395e-08
-4.03298e-07 0 -1.66448e-08
-4.36814e-07 0 -9.9895e-09
-4.62588e-07 0 -4.17345e-09
-4.83638e-07 0 -7.81996e-10
-5.00588e-07 0 6.60584e-10
-5.13509e-07 0 1.00719e-09
-5.22809e-07 0 8.899e-10
-5.29191e-07 0 6.48906e-10
-5.33409e-07 0 4.25934e-10
-5.36117e-07 0 2.60731e-10
-5.37817e-07 0 1.51386e-10
-5.38867e-07 0 8.40038e-11
-5.39507e-07 0 4.45904e-11
-5.39895e-07 0 2.2507e-11
-5.40129e-07 0 1.06224e-11
-5.40272e-07 0 4.49798e-12
-5.40361e-07 0 1.50844e-12
-5.40418e-07 0 1.61249e-13
-5.40457e-07 0 -3.63473e-13
-5.40486e-07 0 -5.01078e-13
-5.40508e-07 0 -4.73978e-13
-5.40526e-07 0 -3.90235e-13
-5.40543e-07 0 -2.9848e-13
-5.40557e-07 0 -2.17614e-13
-5.4057e-07 0 -1.52362e-13
-5.40583e-07 0 -1.0104e-13
-5.40595e-07 0 -5.91121e-14
-5.40606e-07 0 -2.04354e-14
-5.40617e-07 0 2.28596e-14
-5.40629e-07 0 8.14195e-14
-5.4064e-07 0 1.70795e-13
-5.40652e-07 0 3.17172e-13
-5.40663e-07 0 5.61196e-13
-5.40674e-07 0 8.99316e-13
-5.40685e-07 0 1.2326e-12
-5.40698e-07 0 2.54166e-12
-5.40723e-07 0 1.29558e-11
-5.40784e-07 0 5.36532e-11
0.00773857 0 -2.38912e-07
0.0036 1.86887e-07 2.27167e-07
0.00359947 -0.00191728 -0.000524814
0.00806229 -0.00557699 -0.00176726
0.0167162 -0.00882122 -0.00325533
0.0285492 -0.0125859 -0.00438109
0.0466041 -0.00837205 -0.00288758
0.0485748 -8.81134e-05 -0.000369436
0.0478886 0.0032676 0.000569038
0.0425457 0.00491532 0.000582532
0.036975 0.00462153 7.60418e-05
0.0320813 0.00373137 -0.000260853
0.0281528 0.00276316 -0.000322382
0.0253075 0.00190951 -0.000243232
0.0234136 0.00125432 -0.00014281
0.0222138 0.000799065 -7.02863e-05
0.0214756 0.000498318 -2.96633e-05
0.0210319 0.000304637 -1.04766e-05
0.0207712 0.000182579 -2.66365e-06
0.0206214 0.000107343 -1.74835e-08
0.0205373 6.19575e-05 5.88882e-07
0.0204911 3.51232e-05 5.28754e-07
0.0204666 1.95513e-05 3.30174e-07
0.020454 1.06744e-05 1.6036e-07
0.0204478 5.70294e-06 5.09172e-08
0.020445 2.96954e-06 -8.31379e-09
0.0204439 1.49691e-06 -3.46818e-08
0.0204437 7.22127e-07 -4.2345e-08
0.0204438 3.26354e-07 -4.06458e-08
0.020444 1.31999e-07 -3.50536e-08
0.0204442 4.18842e-08 -2.84711e-08
0.0204444 3.87928e-09 -2.22724e-08
0.0204446 -9.33029e-09 -1.6992e-08
0.0204447 -1.16327e-08 -1.27399e-08
0.0204448 -9.80509e-09 -9.43454e-09
0.0204449 -6.95605e-09 -6.92604e-09
0.0204449 -4.3683e-09 -5.05608e-09
0.0204449 -2.46263e-09 -3.68443e-09
0.020445 -1.28887e-09 -2.69908e-09
0.020445 -7.67508e-10 -2.01967e-09
0.020445 -8.04542e-10 -1.60045e-09
0.020445 -1.34672e-09 -1.43659e-09
0.020445 -2.41577e-09 -1.5771e-09
0.020445 -4.14737e-09 -2.14414e-09
0.020445 -6.85849e-09 -3.34833e-09
0.020445 -1.12632e-08 -5.53771e-09
0.0204451 -1.9144e-08 -9.32101e-09
0.0204451 -3.28332e-08 -1.32822e-08
0.0204453 -5.59921e-08 -1.04608e-08
0.0204455 -1.66196e-07 -5.74965e-08
0.020446 -6.04585e-07 -3.81431e-07
0.0204468 -9.47501e-07 -6.54037e-07
0.01 1.67353e-07 -7.14937e-07
0.0100012 -0.00397718 -0.00105766
0.0152619 -0.0118519 -0.00284767
0.0243509 -0.0187258 -0.00428614
0.036627 -0.0274917 -0.00430595
0.0554628 -0.0181736 -0.00113072
0.0543524 -0.000787957 0.00159074
0.0548888 0.00603017 0.00192331
0.049048 0.010878 0.00149511
0.0428659 0.0105771 0.000422179
0.037674 0.00901109 -0.000315692
0.0335173 0.00694617 -0.000490011
0.0306191 0.00485667 -0.000386959
0.0288181 0.00315909 -0.000231592
0.0277498 0.0019688 -0.000114675
0.0271322 0.00119398 -4.82349e-05
0.0267844 0.000707956 -1.66189e-05
0.0265942 0.000410926 -3.65497e-06
0.0264939 0.000233494 7.50691e-07
0.0264431 0.000129745 1.72162e-06
0.0264189 7.03214e-05 1.5392e-06
0.0264085 3.69878e-05 1.10303e-06
0.0264048 1.87026e-05 7.11933e-07
0.0264043 8.92652e-06 4.31342e-07
0.0264051 3.86493e-06 2.49925e-07
0.0264063 1.35718e-06 1.39679e-07
0.0264075 1.96197e-07 7.54928e-08
0.0264085 -2.78941e-07 3.93587e-08
0.0264093 -4.21877e-07 1.96156e-08
0.0264099 -4.16514e-07 9.15202e-09
0.0264103 -3.54863e-07 3.8016e-09
0.0264107 -2.80368e-07 1.19537e-09
0.0264109 -2.11583e-07 1.94972e-11
0.0264111 -1.54849e-07 -4.38174e-10
0.0264112 -1.10919e-07 -5.54796e-10
0.0264113 -7.82962e-08 -5.25247e-10
0.0264113 -5.48446e-08 -4.48134e-10
0.0264114 -3.85059e-08 -3.74105e-10
0.0264114 -2.75766e-08 -3.3402e-10
0.0264114 -2.07872e-08 -3.57716e-10
0.0264114 -1.73124e-08 -4.89897e-10
0.0264115 -1.67907e-08 -8.07103e-10
0.0264115 -1.94278e-08 -1.43718e-09
0.0264115 -2.6276e-08 -2.5571e-09
0.0264115 -3.97246e-08 -4.2833e-09
0.0264116 -6.56678e-08 -6.67706e-09
0.0264116 -1.25639e-07 -9.05512e-09
0.0264118 -2.71161e-07 -6.33497e-09
0.0264121 -5.34035e-07 -7.60731e-08
0.0264124 -9.30869e-07 -5.12866e-07
0.0264126 -1.16766e-06 -8.76317e-07
0.0148 -8.97817e-07 -9.56475e-07
0.0148027 -0.00589728 -0.00157042
0.019386 -0.0168369 -0.00420225
0.025253 -0.0263133 -0.00576994
0.0293624 -0.0396452 -0.00478675
0.0279662 -0.0242897 -0.000779917
0.0260656 -1.04135e-05 0.0016111
0.0264523 0.00799935 0.00174552
0.0314091 0.0166398 0.00159709
0.0312357 0.0160639 0.00072038
0.0296408 0.0133287 2.30905e-06
0.0283153 0.0100629 -0.000286055
0.0275607 0.00678051 -0.000276684
0.0273052 0.00422151 -0.000174977
0.0272606 0.00253172 -8.10694e-05
0.0272901 0.00148239 -2.54512e-05
0.0273417 0.00084821 -7.40034e-07
0.0273939 0.000473661 7.07229e-06
0.0274382 0.000257597 7.68171e-06
0.0274723 0.000135872 6.01984e-06
0.0274972 6.89355e-05 4.1166e-06
0.0275146 3.30874e-05 2.60816e-06
0.0275265 1.44867e-05 1.57289e-06
0.0275345 5.23372e-06 9.15826e-07
0.0275398 9.14776e-07 5.18923e-07
0.0275434 -8.85256e-07 2.87296e-07
0.0275457 -1.45818e-06 1.55604e-07
0.0275473 -1.47646e-06 8.2328e-08
0.0275483 -1.27778e-06 4.23496e-08
0.027549 -1.02292e-06 2.09712e-08
0.0275495 -7.81823e-07 9.79942e-09
0.0275498 -5.79608e-07 4.13171e-09
0.0275501 -4.2059e-07 1.37596e-09
0.0275502 -3.00469e-07 1.25145e-10
0.0275503 -2.12226e-07 -3.72466e-10
0.0275504 -1.48776e-07 -5.11594e-10
0.0275504 -1.04015e-07 -4.95791e-10
0.0275504 -7.30992e-08 -4.29182e-10
0.0275505 -5.24012e-08 -3.67883e-10
0.0275505 -3.93699e-08 -3.50674e-10
0.0275505 -3.2402e-08 -4.20205e-10
0.0275505 -3.08029e-08 -6.38931e-10
0.0275505 -3.49184e-08 -1.09516e-09
0.0275505 -4.67375e-08 -1.91214e-09
0.0275506 -7.17976e-08 -3.38058e-09
0.0275506 -1.21033e-07 -6.39106e-09
0.0275506 -2.04275e-07 -1.22535e-08
0.0275507 -3.25828e-07 -2.06298e-08
0.0275507 -4.97995e-07 -1.12208e-07
0.0275508 -7.36197e-07 -5.65029e-07
0.0275507 -8.72998e-07 -9.30961e-07
0.018 -2.00487e-06 -1.32349e-06
0.0180025 -0.00660887 -0.0023542
0.0197704 -0.0172661 -0.00624397
0.0197616 -0.0219454 -0.00731232
0.0160033 -0.023461 -0.0059277
-9.77159e-07 -0.0121809 -0.00250616
0.000104766 3.67711e-05 4.93605e-07
-4.16733e-05 4.41423e-05 0.000323414
0.00786664 0.0056492 0.000639329
0.0164276 0.0122537 0.000513617
0.0196414 0.0120402 0.000213713
0.0211962 0.00918446 -7.08892e-05
0.0228981 0.00599386 -0.000170345
0.0244687 0.00353506 -0.000125049
0.0256376 0.00201794 -5.12328e-05
0.0264213 0.00112299 -3.97675e-06
0.0269226 0.00060383 1.46259e-05
0.027235 0.00031096 1.72286e-05
0.0274261 0.000151532 1.38716e-05
0.0275414 6.80692e-05 9.54772e-06
0.02761 2.62937e-05 6.02103e-06
0.0276506 6.59503e-06 3.58913e-06
0.0276744 -1.84069e-06 2.0553e-06
0.0276884 -4.78715e-06 1.14016e-06
0.0276965 -5.23124e-06 6.14729e-07
0.0277013 -4.66335e-06 3.2177e-07
0.0277041 -3.79167e-06 1.62488e-07
0.0277057 -2.9273e-06 7.80035e-08
0.0277067 -2.18704e-06 3.44408e-08
0.0277073 -1.59777e-06 1.27974e-08
0.0277077 -1.14854e-06 2.62985e-09
0.0277079 -8.15626e-07 -1.69718e-09
0.027708 -5.73769e-07 -3.16746e-09
0.0277081 -4.00668e-07 -3.32622e-09
0.0277081 -2.78263e-07 -2.95073e-09
0.0277082 -1.92645e-07 -2.41597e-09
0.0277082 -1.33451e-07 -1.89166e-09
0.0277082 -9.31623e-08 -1.4477e-09
0.0277082 -6.64633e-08 -1.11114e-09
0.0277082 -4.97435e-08 -8.99234e-10
0.0277082 -4.07495e-08 -8.43212e-10
0.0277082 -3.84197e-08 -1.01548e-09
0.0277082 -4.29238e-08 -1.57634e-09
0.0277082 -5.56484e-08 -2.85689e-09
0.0277082 -7.8238e-08 -5.63437e-09
0.0277082 -1.11301e-07 -1.18627e-08
0.0277082 -1.55192e-07 -2.29535e-08
0.0277082 -2.09945e-07 -3.55533e-08
0.0277081 -2.83131e-07 -1.30578e-07
0.027708 -3.86492e-07 -5.79908e-07
0.0277079 -4.46694e-07 -9.40165e-07
0.0196 -2.41966e-06 -2.37629e-06
0.0196009 -0.00503383 -0.00307507
0.0190442 -0.011441 -0.00748954
0.0165158 -0.0134357 -0.00771734
0.0121405 -0.0116109 -0.00587976
0.00277177 -0.00458486 -0.00320117
7.99459e-05 -7.38648e-05 -0.000621983
3.21915e-05 -3.21915e-05 -5.43573e-08
-4.03604e-05 4.29862e-05 7.28863e-05
0.00562607 0.00416995 0.000161308
0.0122117 0.00853955 0.000129675
0.0150968 0.00686492 -5.37881e-05
0.0187181 0.00359253 -0.000209348
0.0220054 0.0015415 -0.000181916
0.0243329 0.000604335 -8.87149e-05
0.025778 0.00020082 -1.8756e-05
0.0266252 2.91188e-05 1.13498e-05
0.0271101 -3.68884e-05 1.73074e-05
0.0273841 -5.45559e-05 1.42166e-05
0.0275373 -5.20369e-05 9.55479e-06
0.0276223 -4.28162e-05 5.79567e-06
0.027669 -3.27826e-05 3.29806e-06
0.0276945 -2.41091e-05 1.79119e-06
0.0277084 -1.73073e-05 9.33757e-07
0.0277158 -1.22386e-05 4.65629e-07
0.0277198 -8.57079e-06 2.18708e-07
0.0277218 -5.96344e-06 9.29402e-08
0.0277229 -4.13052e-06 3.16032e-08
0.0277234 -2.8513e-06 3.57739e-09
0.0277237 -1.96286e-06 -7.78154e-09
0.0277238 -1.348e-06 -1.1172e-08
0.0277238 -9.23671e-07 -1.10253e-08
0.0277238 -6.31571e-07 -9.52554e-09
0.0277238 -4.3102e-07 -7.697e-09
0.0277238 -2.93752e-07 -5.98043e-09
0.0277238 -2.00198e-07 -4.53385e-09
0.0277238 -1.36858e-07 -3.38708e-09
0.0277238 -9.44668e-08 -2.52041e-09
0.0277238 -6.67249e-08 -1.90582e-09
0.0277238 -4.94228e-08 -1.53273e-09
0.0277238 -3.98438e-08 -1.43314e-09
0.0277237 -3.63116e-08 -1.71944e-09
0.0277237 -3.77258e-08 -2.65112e-09
0.0277237 -4.3048e-08 -4.72421e-09
0.0277237 -5.09127e-08 -8.75182e-09
0.0277237 -5.89761e-08 -1.62653e-08
0.0277236 -6.30589e-08 -2.82289e-08
0.0277236 -5.6423e-08 -4.05566e-08
0.0277235 -3.66373e-08 -1.34495e-07
0.0277234 -1.17065e-08 -5.81598e-07
0.0277233 4.62281e-10 -9.40129e-07
0.0196 -1.25739e-06 -3.25812e-06
0.0196004 -0.00288849 -0.00335886
0.0190919 -0.00597932 -0.00752116
0.0180272 -0.00545589 -0.00736096
0.0149038 -0.00191909 -0.00532374
0.0111105 0.00396787 -0.0033249
0.00683876 0.00352315 -0.00147538
8.002e-05 -6.77097e-05 -0.00027896
2.73492e-05 -2.73492e-05 -1.28268e-07
-3.87607e-05 4.19601e-05 1.91807e-05
0.004161 0.00254492 0.00029033
0.00901041 0.0027234 0.000272745
0.0152536 -0.000806642 -0.000166752
0.0206001 -0.00198903 -0.000317722
0.0240187 -0.00170853 -0.000220198
0.0258535 -0.00115648 -9.10447e-05
0.0267789 -0.000730666 -2.1316e-05
0.0272434 -0.000454142 2.23134e-06
0.0274779 -0.000281209 6.3739e-06
0.0275963 -0.000173976 5.06599e-06
0.0276556 -0.000107775 3.12804e-06
0.027685 -6.70134e-05 1.70816e-06
0.0276991 -4.19148e-05 8.52571e-07
0.0277057 -2.64123e-05 3.8592e-07
0.0277085 -1.6782e-05 1.48933e-07
0.0277095 -1.07539e-05 3.68742e-08
0.0277097 -6.94752e-06 -1.10517e-08
0.0277096 -4.52192e-06 -2.7802e-08
0.0277094 -2.96224e-06 -3.04095e-08
0.0277091 -1.9509e-06 -2.73075e-08
0.0277089 -1.29021e-06 -2.24672e-08
0.0277087 -8.55873e-07 -1.76226e-08
0.0277086 -5.68915e-07 -1.34275e-08
0.0277085 -3.78668e-07 -1.00412e-08
0.0277084 -2.52314e-07 -7.41634e-09
0.0277084 -1.68431e-07 -5.43597e-09
0.0277083 -1.1294e-07 -3.97533e-09
0.0277083 -7.65449e-08 -2.92929e-09
0.0277083 -5.30874e-08 -2.22561e-09
0.0277082 -3.84574e-08 -1.83642e-09
0.0277082 -2.98422e-08 -1.79614e-09
0.0277082 -2.51555e-08 -2.23029e-09
0.0277082 -2.25546e-08 -3.39153e-09
0.0277082 -1.99353e-08 -5.70287e-09
0.0277082 -1.43081e-08 -9.89133e-09
0.0277082 -9.50101e-10 -1.74679e-08
0.0277081 2.82657e-08 -2.93694e-08
0.0277081 8.81625e-08 -4.06561e-08
0.027708 1.97541e-07 -1.31213e-07
0.027708 3.57052e-07 -5.76645e-07
0.0277078 4.47237e-07 -9.35917e-07
0.018 -7.66299e-07 -3.21681e-06
0.0180011 -0.00116334 -0.00330346
0.0186345 -0.00174914 -0.0071261
0.0194179 -0.000205193 -0.00660296
0.0192618 0.00246397 -0.00456164
0.0192167 0.00782754 -0.00284698
0.0195504 0.0129035 -0.00151193
0.0120441 0.00715857 -0.000689655
8.18975e-05 -5.35218e-05 -0.000239984
-3.15041e-05 -6.10262e-05 4.93492e-07
8.21199e-06 -0.000576584 0.000874459
0.00952318 -0.00428514 0.00118204
0.0174503 -0.00787127 0.000204838
0.0227118 -0.00705702 -0.000291555
0.025576 -0.00453942 -0.000304527
0.0268492 -0.0025118 -0.000164963
0.0273433 -0.00134713 -6.59429e-05
0.0275186 -0.000734792 -2.22766e-05
0.0275733 -0.00040937 -6.77409e-06
0.0275847 -0.000231669 -1.91252e-06
0.0275819 -0.000132744 -5.36822e-07
0.0275756 -7.69564e-05 -1.94203e-07
0.0275693 -4.51491e-05 -1.21665e-07
0.0275642 -2.68139e-05 -1.04265e-07
0.0275603 -1.61214e-05 -9.13627e-08
0.0275575 -9.80958e-06 -7.60631e-08
0.0275554 -6.03712e-06 -6.02766e-08
0.027554 -3.75425e-06 -4.60725e-08
0.0275529 -2.3561e-06 -3.43627e-08
0.0275522 -1.49008e-06 -2.52196e-08
0.0275517 -9.48153e-07 -1.83192e-08
0.0275513 -6.06006e-07 -1.32211e-08
0.0275511 -3.88422e-07 -9.50471e-09
0.0275509 -2.49316e-07 -6.81878e-09
0.0275508 -1.60112e-07 -4.88997e-09
0.0275507 -1.02898e-07 -3.51485e-09
0.0275506 -6.63336e-08 -2.54794e-09
0.0275506 -4.31612e-08 -1.89178e-09
0.0275506 -2.86736e-08 -1.49178e-09
0.0275505 -1.97267e-08 -1.33752e-09
0.0275505 -1.40715e-08 -1.47237e-09
0.0275505 -9.84398e-09 -2.01401e-09
0.0275505 -5.09738e-09 -3.18959e-09
0.0275505 2.7259e-09 -5.37831e-09
0.0275505 1.75104e-08 -9.22836e-09
0.0275505 4.54892e-08 -1.61772e-08
0.0275504 9.72905e-08 -2.72128e-08
0.0275504 1.95179e-07 -3.64859e-08
0.0275505 3.84257e-07 -1.1915e-07
0.0275505 6.90378e-07 -5.57768e-07
0.0275504 8.71821e-07 -9.16583e-07
0.0148 -5.0966e-07 -2.78426e-06
0.0148016 -0.00023981 -0.00311134
0.0168754 0.000309994 -0.00641071
0.0196458 0.00207008 -0.00555237
0.0220495 0.00449976 -0.00366886
0.0240971 0.00753903 -0.0024299
0.0273532 0.0126678 -0.00155895
0.0303757 0.0202727 -0.000853313
0.0246471 0.012165 -0.000126723
0.0254962 -1.69679e-11 0.000520514
0.0300133 -0.00730798 0.00172711
0.0347567 -0.0151268 0.00234358
0.0342483 -0.0139843 0.00117709
0.0315602 -0.00993216 3.65951e-05
0.0293115 -0.00568623 -0.00037211
0.0279881 -0.00283758 -0.000290717
0.0272805 -0.00136412 -0.000143722
0.0269019 -0.000671335 -5.91577e-05
0.0266944 -0.000343228 -2.2521e-05
0.0265778 -0.000181394 -8.28156e-06
0.026511 -9.83405e-05 -2.99128e-06
0.026472 -5.43704e-05 -1.06307e-06
0.0264489 -3.05343e-05 -3.65624e-07
0.0264349 -1.73717e-05 -1.14467e-07
0.0264263 -9.99282e-06 -2.515e-08
0.026421 -5.80258e-06 5.1526e-09
0.0264177 -3.39583e-06 1.38412e-08
0.0264155 -1.99928e-06 1.4718e-08
0.0264141 -1.18153e-06 1.29755e-08
0.0264132 -6.9897e-07 1.05901e-08
0.0264126 -4.12476e-07 8.2977e-09
0.0264122 -2.41711e-07 6.34083e-09
0.026412 -1.3981e-07 4.76389e-09
0.0264118 -7.91618e-08 3.53445e-09
0.0264117 -4.33475e-08 2.59421e-09
0.0264116 -2.25229e-08 1.88071e-09
0.0264116 -1.07347e-08 1.33513e-09
0.0264115 -4.34125e-09 9.02772e-10
0.0264115 -1.05893e-09 5.28892e-10
0.0264115 6.37796e-10 1.50256e-10
0.0264115 1.93011e-09 -3.1936e-10
0.0264115 3.99071e-09 -1.01187e-09
0.0264115 8.33027e-09 -2.13752e-09
0.0264114 1.7245e-08 -4.02464e-09
0.0264114 3.45364e-08 -7.2045e-09
0.0264115 6.67406e-08 -1.28269e-08
0.0264115 1.24945e-07 -2.17171e-08
0.0264115 2.33306e-07 -2.84467e-08
0.0264117 4.65004e-07 -9.857e-08
0.0264119 8.9394e-07 -5.09979e-07
0.0264121 1.16231e-06 -8.52851e-07
0.01 -9.49851e-07 -2.51345e-06
0.0100007 -0.000116976 -0.00264087
0.0125 0.000432996 -0.00505689
0.0160272 0.00161805 -0.00392254