# vtk DataFile Version 2.0
Tobias Weinzierl: CPU, Manycore and Cluster Computing
ASCII

DATASET STRUCTURED_POINTS
DIMENSIONS  51 11 6

ORIGIN 0 0 0 

SPACING 0.1 0.1 0.1 

POINT_DATA 3366

VECTORS velocity float
0 0 0
1.38664e-11 0 0
-4.945e-07 0 0
-6.43512e-07 0 0
-5.50609e-07 0 0
-2.58878e-07 0 0
-3.32336e-07 0 0
-4.7278e-07 0 0
-5.74893e-07 0 0
-6.07176e-07 0 0
-5.9581e-07 0 0
-5.80224e-07 0 0
-5.73026e-07 0 0
-5.73383e-07 0 0
-5.783e-07 0 0
-5.84995e-07 0 0
-5.91617e-07 0 0
-5.9729e-07 0 0
-6.01783e-07 0 0
-6.05181e-07 0 0
-6.07681e-07 0 0
-6.09492e-07 0 0
-6.10791e-07 0 0
-6.11722e-07 0 0
-6.12387e-07 0 0
-6.12864e-07 0 0
-6.13208e-07 0 0
-6.13456e-07 0 0
-6.13637e-07 0 0
-6.13769e-07 0 0
-6.13868e-07 0 0
-6.13941e-07 0 0
-6.13997e-07 0 0
-6.14041e-07 0 0
-6.14076e-07 0 0
-6.14104e-07 0 0
-6.14127e-07 0 0
-6.14147e-07 0 0
-6.14165e-07 0 0
-6.1418e-07 0 0
-6.14194e-07 0 0
-6.14206e-07 0 0
-6.14218e-07 0 0
-6.14229e-07 0 0
-6.1424e-07 0 0
-6.14252e-07 0 0
-6.14266e-07 0 0
-6.14286e-07 0 0
-6.14325e-07 0 0
-6.14422e-07 0 0
0.003853 0 0
0 4.97147e-07 0
1.20869e-10 3.21719e-07 0
-9.79962e-07 4.66753e-07 0
-1.20253e-06 2.09286e-07 0
-9.28242e-07 1.1002e-08 0
-3.43258e-07 7.12342e-08 0
-3.83016e-07 2.45674e-07 0
-5.73397e-07 1.88543e-07 0
-6.76277e-07 8.90091e-08 0
-7.44941e-07 1.75693e-08 0
-7.55058e-07 -8.67481e-09 0
-7.77617e-07 -3.62026e-09 0
-8.15254e-07 5.73053e-09 0
-8.54302e-07 1.15566e-08 0
-8.89381e-07 1.39842e-08 0
-9.18437e-07 1.38221e-08 0
-9.40986e-07 1.21326e-08 0
-9.57663e-07 9.88384e-09 0
-9.69604e-07 7.67479e-09 0
-9.77985e-07 5.77729e-09 0
-9.83806e-07 4.26338e-09 0
-9.87834e-07 3.10786e-09 0
-9.90625e-07 2.24966e-09 0
-9.92568e-07 1.62278e-09 0
-9.93929e-07 1.16922e-09 0
-9.9489e-07 8.42663e-10 0
-9.95574e-07 6.07961e-10 0
-9.96064e-07 4.3926e-10 0
-9.96419e-07 3.17852e-10 0
-9.96679e-07 2.30328e-10 0
-9.96872e-07 1.67113e-10 0
-9.97016e-07 1.21372e-10 0
-9.97126e-07 8.82208e-11 0
-9.97212e-07 6.41612e-11 0
-9.9728e-07 4.66808e-11 0
-9.97336e-07 3.39705e-11 0
-9.97383e-07 2.47252e-11 0
-9.97422e-07 1.80026e-11 0
-9.97457e-07 1.31242e-11 0
-9.97488e-07 9.60649e-12 0
-9.97515e-07 7.11544e-12 0
-9.9754e-07 5.44291e-12 0
-9.97563e-07 4.50561e-12 0
-9.97585e-07 4.37643e-12 0
-9.97608e-07 5.36519e-12 0
-9.97631e-07 8.22817e-12 0
-9.97659e-07 1.49608e-11 0
-9.97697e-07 3.13819e-11 0
-9.97767e-07 7.58965e-11 0
-9.97918e-07 1.92904e-10 0
0.00928106 -7.05769e-07 0
0 6.38887e-08 0
3.92826e-10 4.25957e-07 0
-9.23844e-07 5.68216e-07 0
-1.00917e-06 2.27984e-07 0
-5.08037e-07 1.99536e-08 0
-3.6896e-07 3.08292e-08 0
-4.80416e-07 1.82419e-07 0
-6.60507e-07 4.16403e-08 0
-4.21237e-07 -2.12137e-08 0
-3.32619e-07 6.80976e-08 0
-3.18152e-07 1.19115e-07 0
-3.64345e-07 1.50314e-07 0
-4.36965e-07 1.37586e-07 0
-5.00409e-07 1.07158e-07 0
-5.50735e-07 7.94171e-08 0
-5.88571e-07 5.77078e-08 0
-6.15593e-07 4.12526e-08 0
-6.34167e-07 2.90836e-08 0
-6.46638e-07 2.03039e-08 0
-6.54919e-07 1.40988e-08 0
-6.60409e-07 9.77678e-09 0
-6.6407e-07 6.79216e-09 0
-6.66536e-07 4.73791e-09 0
-6.68217e-07 3.32288e-09 0
-6.69379e-07 2.34445e-09 0
-6.70192e-07 1.66405e-09 0
-6.70769e-07 1.18773e-09 0
-6.71183e-07 8.51965e-10 0
-6.71484e-07 6.13708e-10 0
-6.71705e-07 4.43626e-10 0
-6.7187e-07 3.21577e-10 0
-6.71995e-07 2.33612e-10 0
-6.72092e-07 1.69986e-10 0
-6.72168e-07 1.23834e-10 0
-6.72229e-07 9.02831e-11 0
-6.7228e-07 6.58534e-11 0
-6.72323e-07 4.80467e-11 0
-6.7236e-07 3.50652e-11 0
-6.72393e-07 2.56158e-11 0
-6.72422e-07 1.87775e-11 0
-6.72449e-07 1.39147e-11 0
-6.72473e-07 1.06321e-11 0
-6.72495e-07 8.77367e-12 0
-6.72516e-07 8.49247e-12 0
-6.72536e-07 1.04534e-11 0
-6.72556e-07 1.61496e-11 0
-6.72576e-07 2.80207e-11 0
-6.72599e-07 5.00973e-11 0
-6.72639e-07 8.86516e-11 0
-6.72721e-07 1.56761e-10 0
0.0110394 -7.10083e-07 0
0 -5.48315e-07 0
6.42718e-10 2.95486e-07 0
-9.0224e-07 2.72177e-07 0
-9.84379e-07 -7.52363e-08 0
-3.89928e-07 8.79991e-08 0
-2.84586e-07 1.39904e-07 0
-4.29636e-07 2.92197e-11 0
-5.59883e-07 -4.9485e-07 0
-9.13528e-07 -7.08297e-07 0
-6.73352e-07 -1.93958e-07 0
-5.36114e-07 1.44632e-07 0
-4.89694e-07 2.63197e-07 0
-4.86174e-07 2.43434e-07 0
-4.93189e-07 1.80539e-07 0
-5.0776e-07 1.27575e-07 0
-5.23302e-07 8.87101e-08 0
-5.35948e-07 6.0903e-08 0
-5.4504e-07 4.14589e-08 0
-5.51231e-07 2.81358e-08 0
-5.55374e-07 1.91284e-08 0
-5.58158e-07 1.3075e-08 0
-5.60057e-07 9.00579e-09 0
-5.61376e-07 6.25706e-09 0
-5.6231e-07 4.38563e-09 0
-5.6298e-07 3.09938e-09 0
-5.63468e-07 2.20649e-09 0
-5.63827e-07 1.58069e-09 0
-5.64093e-07 1.13825e-09 0
-5.64292e-07 8.23056e-10 0
-5.64442e-07 5.97078e-10 0
-5.64557e-07 4.3422e-10 0
-5.64647e-07 3.16363e-10 0
-5.64718e-07 2.30798e-10 0
-5.64776e-07 1.68521e-10 0
-5.64824e-07 1.2311e-10 0
-5.64866e-07 8.99514e-11 0
-5.64902e-07 6.57159e-11 0
-5.64934e-07 4.79946e-11 0
-5.64963e-07 3.50437e-11 0
-5.6499e-07 2.56074e-11 0
-5.65014e-07 1.87987e-11 0
-5.65037e-07 1.40252e-11 0
-5.65057e-07 1.09541e-11 0
-5.65076e-07 9.49418e-12 0
-5.65093e-07 9.77058e-12 0
-5.65108e-07 1.23011e-11 0
-5.65119e-07 1.88492e-11 0
-5.65128e-07 3.27842e-11 0
-5.65144e-07 5.87172e-11 0
-5.65199e-07 9.99423e-11 0
0.0112373 -4.93166e-07 0
0 -1.02728e-06 0
6.96866e-10 1.09598e-07 0
-9.80692e-07 -1.13829e-08 0
-1.15177e-06 -1.96226e-07 0
-6.56739e-07 -2.2754e-08 0
-4.57306e-11 5.2481e-08 0
-1.18034e-10 -3.52516e-10 0
2.53512e-10 -4.32013e-10 0
-5.93671e-07 -3.89237e-07 0
-8.87403e-07 -5.06518e-07 0
-7.13073e-07 -4.77524e-08 0
-6.78931e-07 1.87099e-07 0
-6.41889e-07 2.14832e-07 0
-5.98234e-07 1.71351e-07 0
-5.72432e-07 1.2751e-07 0
-5.59907e-07 9.06834e-08 0
-5.53969e-07 6.24425e-08 0
-5.51128e-07 4.23804e-08 0
-5.49801e-07 2.87351e-08 0
-5.4925e-07 1.96168e-08 0
-5.49103e-07 1.35327e-08 0
-5.49161e-07 9.44194e-09 0
-5.4931e-07 6.65822e-09 0
-5.4949e-07 4.73856e-09 0
-5.49667e-07 3.39784e-09 0
-5.49825e-07 2.45092e-09 0
-5.4996e-07 1.77592e-09 0
-5.50072e-07 1.29118e-09 0
-5.50163e-07 9.41072e-10 0
-5.50237e-07 6.87104e-10 0
-5.50298e-07 5.02284e-10 0
-5.50349e-07 3.67467e-10 0
-5.50392e-07 2.68957e-10 0
-5.5043e-07 1.9689e-10 0
-5.50463e-07 1.44122e-10 0
-5.50494e-07 1.05458e-10 0
-5.50522e-07 7.71142e-11 0
-5.50549e-07 5.63233e-11 0
-5.50574e-07 4.10626e-11 0
-5.50597e-07 2.98534e-11 0
-5.50619e-07 2.16168e-11 0
-5.50639e-07 1.55716e-11 0
-5.50658e-07 1.11657e-11 0
-5.50676e-07 8.07099e-12 0
-5.50691e-07 6.30202e-12 0
-5.50704e-07 6.36448e-12 0
-5.50714e-07 9.27545e-12 0
-5.5072e-07 1.66042e-11 0
-5.50732e-07 3.01569e-11 0
-5.50783e-07 5.00501e-11 0
0.0112528 -2.47313e-07 0
0 -8.99267e-07 0
7.41689e-10 -7.68177e-09 0
-1.01339e-06 -9.8971e-08 0
-1.2498e-06 -1.95247e-07 0
-8.67835e-07 -1.93771e-07 0
-2.91828e-07 -8.98227e-08 0
-1.87893e-10 2.51068e-10 0
-3.59733e-12 3.59733e-12 0
2.21997e-10 -2.77956e-10 0
-4.08902e-07 -2.07314e-07 0
-5.48473e-07 -1.22293e-07 0
-7.56153e-07 2.09221e-07 0
-7.85168e-07 2.07086e-07 0
-7.0886e-07 1.41251e-07 0
-6.42058e-07 9.95348e-08 0
-6.01091e-07 6.94419e-08 0
-5.77997e-07 4.77091e-08 0
-5.65211e-07 3.28578e-08 0
-5.58131e-07 2.29203e-08 0
-5.54194e-07 1.62299e-08 0
-5.51999e-07 1.16442e-08 0
-5.50773e-07 8.43709e-09 0
-5.50089e-07 6.15469e-09 0
-5.49709e-07 4.5088e-09 0
-5.495e-07 3.31116e-09 0
-5.49386e-07 2.43468e-09 0
-5.49327e-07 1.79109e-09 0
-5.49298e-07 1.31767e-09 0
-5.49287e-07 9.69153e-10 0
-5.49286e-07 7.12541e-10 0
-5.49292e-07 5.23629e-10 0
-5.49303e-07 3.84604e-10 0
-5.49316e-07 2.82334e-10 0
-5.49332e-07 2.07132e-10 0
-5.49349e-07 1.51853e-10 0
-5.49368e-07 1.11228e-10 0
-5.49387e-07 8.13698e-11 0
-5.49408e-07 5.94121e-11 0
-5.49428e-07 4.32381e-11 0
-5.49448e-07 3.12812e-11 0
-5.49467e-07 2.23774e-11 0
-5.49486e-07 1.56599e-11 0
-5.49504e-07 1.04912e-11 0
-5.4952e-07 6.41936e-12 0
-5.49536e-07 3.13779e-12 0
-5.49548e-07 4.8645e-13 0
-5.49557e-07 -1.50151e-12 0
-5.49561e-07 -2.46204e-12 0
-5.49571e-07 -1.97435e-12 0
-5.49619e-07 -5.53441e-13 0
0.0112537 2.9465e-10 0
0 -6.33559e-07 0
7.44565e-10 -1.02068e-07 0
-9.68926e-07 -2.0668e-07 0
-1.24273e-06 -1.63148e-07 0
-9.3113e-07 -1.20662e-07 0
-6.21632e-07 -2.51878e-07 0
-3.35166e-07 -1.89733e-07 0
-2.85982e-10 2.16468e-10 0
3.18041e-12 -3.18041e-12 0
2.51425e-10 -1.92436e-10 0
-2.12606e-07 2.62652e-07 0
-8.46278e-07 4.37264e-07 0
-1.00655e-06 2.27455e-07 0
-8.38721e-07 7.54642e-08 0
-6.94004e-07 3.83951e-08 0
-6.20972e-07 2.81173e-08 0
-5.87075e-07 2.22748e-08 0
-5.70709e-07 1.78467e-08 0
-5.62317e-07 1.42589e-08 0
-5.57757e-07 1.12883e-08 0
-5.5514e-07 8.83246e-09 0
-5.53561e-07 6.8304e-09 0
-5.52564e-07 5.22725e-09 0
-5.51912e-07 3.96537e-09 0
-5.51474e-07 2.98664e-09 0
-5.51173e-07 2.23657e-09 0
-5.50964e-07 1.6672e-09 0
-5.50818e-07 1.23825e-09 0
-5.50717e-07 9.16984e-10 0
-5.50648e-07 6.77483e-10 0
-5.50602e-07 4.99586e-10 0
-5.50573e-07 3.67824e-10 0
-5.50558e-07 2.70452e-10 0
-5.50552e-07 1.98619e-10 0
-5.50553e-07 1.45696e-10 0
-5.5056e-07 1.06739e-10 0
-5.50571e-07 7.80707e-11 0
-5.50585e-07 5.6962e-11 0
-5.506e-07 4.13856e-11 0
-5.50617e-07 2.98311e-11 0
-5.50634e-07 2.11636e-11 0
-5.50651e-07 1.45138e-11 0
-5.50668e-07 9.18303e-12 0
-5.50684e-07 4.55154e-12 0
-5.50699e-07 -3.03303e-14 0
-5.50712e-07 -5.36529e-12 0
-5.50722e-07 -1.24459e-11 0
-5.50727e-07 -2.2188e-11 0
-5.50739e-07 -3.51379e-11 0
-5.50788e-07 -5.17763e-11 0
0.0112528 2.47593e-07 0
0 -4.58861e-07 0
6.1488e-10 -1.77482e-07 0
-9.11613e-07 -2.87163e-07 0
-1.16958e-06 -1.60967e-07 0
-9.23393e-07 -9.96576e-08 0
-6.89803e-07 -1.40707e-07 0
-6.46773e-07 -3.87029e-07 0
-4.54788e-07 -2.94722e-07 0
-4.47194e-10 -2.485e-11 0
2.28938e-10 -3.08456e-10 0
2.6692e-10 6.26191e-07 0
-7.69496e-07 9.1257e-07 0
-1.0763e-06 2.59876e-07 0
-8.87704e-07 -7.14569e-08 0
-7.02234e-07 -6.17953e-08 0
-6.19877e-07 -1.89709e-08 0
-5.89948e-07 1.76786e-10 0
-5.78936e-07 6.66747e-09 0
-5.74245e-07 8.2324e-09 0
-5.71729e-07 7.85179e-09 0
-5.70067e-07 6.75742e-09 0
-5.68835e-07 5.5067e-09 0
-5.67882e-07 4.34256e-09 0
-5.67141e-07 3.35284e-09 0
-5.66569e-07 2.55195e-09 0
-5.66131e-07 1.92305e-09 0
-5.65801e-07 1.43877e-09 0
-5.65554e-07 1.07077e-09 0
-5.65372e-07 7.93744e-10 0
-5.6524e-07 5.86615e-10 0
-5.65146e-07 4.32519e-10 0
-5.65081e-07 3.18305e-10 0
-5.65038e-07 2.3389e-10 0
-5.65011e-07 1.71632e-10 0
-5.64998e-07 1.25786e-10 0
-5.64993e-07 9.20601e-11 0
-5.64996e-07 6.7259e-11 0
-5.65003e-07 4.90087e-11 0
-5.65014e-07 3.5544e-11 0
-5.65028e-07 2.55459e-11 0
-5.65043e-07 1.80122e-11 0
-5.65058e-07 1.21513e-11 0
-5.65074e-07 7.28038e-12 0
-5.6509e-07 2.7087e-12 0
-5.65106e-07 -2.42795e-12 0
-5.65121e-07 -9.43497e-12 0
-5.65134e-07 -2.03951e-11 0
-5.65146e-07 -3.81275e-11 0
-5.65165e-07 -6.52507e-11 0
-5.65222e-07 -1.03303e-10 0
0.0112373 4.91839e-07 0
0 -4.37618e-07 0
4.33726e-10 -2.14233e-07 0
-8.66392e-07 -3.28213e-07 0
-1.09618e-06 -1.48852e-07 0
-9.43452e-07 -6.10738e-08 0
-7.89977e-07 -9.38891e-08 0
-6.90515e-07 -2.03757e-07 0
-8.51345e-07 -5.34965e-07 0
-7.70844e-07 -3.98882e-07 0
-8.87831e-07 -1.48823e-11 0
-8.2495e-07 7.43361e-07 0
-5.17135e-07 1.13311e-06 0
-5.15596e-07 3.10657e-07 0
-6.12267e-07 -1.81851e-07 0
-6.51658e-07 -1.41325e-07 0
-6.67563e-07 -4.63097e-08 0
-6.75788e-07 -5.88828e-09 0
-6.79545e-07 5.91739e-09 0
-6.80522e-07 8.03909e-09 0
-6.80036e-07 7.33252e-09 0
-6.78943e-07 5.98664e-09 0
-6.77714e-07 4.67029e-09 0
-6.76568e-07 3.56178e-09 0
-6.75592e-07 2.68155e-09 0
-6.74799e-07 2.0025e-09 0
-6.74177e-07 1.48718e-09 0
-6.73698e-07 1.10014e-09 0
-6.73336e-07 8.11471e-10 0
-6.73066e-07 5.97227e-10 0
-6.72867e-07 4.38792e-10 0
-6.72724e-07 3.21943e-10 0
-6.72622e-07 2.35941e-10 0
-6.72552e-07 1.72741e-10 0
-6.72505e-07 1.26353e-10 0
-6.72477e-07 9.23339e-11 0
-6.72462e-07 6.73978e-11 0
-6.72456e-07 4.91185e-11 0
-6.72458e-07 3.57048e-11 0
-6.72465e-07 2.58309e-11 0
-6.72476e-07 1.85069e-11 0
-6.72488e-07 1.29756e-11 0
-6.72503e-07 8.62457e-12 0
-6.72518e-07 4.89432e-12 0
-6.72534e-07 1.16421e-12 0
-6.72551e-07 -3.42555e-12 0
-6.72568e-07 -1.03281e-11 0
-6.72587e-07 -2.23603e-11 0
-6.72608e-07 -4.48742e-11 0
-6.72645e-07 -8.66779e-11 0
-6.72723e-07 -1.58949e-10 0
0.0110392 7.03208e-07 0
0 -5.01741e-07 0
2.76305e-10 -1.57344e-07 0
-8.55942e-07 -2.36836e-07 0
-1.11928e-06 -1.09076e-07 0
-1.09966e-06 -5.01783e-08 0
-1.05342e-06 -5.39169e-08 0
-9.85105e-07 -8.14907e-08 0
-9.30792e-07 -5.11711e-08 0
-1.21338e-06 1.20908e-07 0
-1.27918e-06 -3.82148e-09 0
-1.40613e-06 -3.19106e-07 0
-9.9239e-07 -2.15624e-07 0
-8.71459e-07 5.52342e-08 0
-9.84117e-07 1.59405e-07 0
-1.03606e-06 1.30405e-07 0
-1.03788e-06 7.75131e-08 0
-1.02931e-06 4.11683e-08 0
-1.02143e-06 2.19072e-08 0
-1.01543e-06 1.23736e-08 0
-1.01094e-06 7.51772e-09 0
-1.00754e-06 4.85509e-09 0
-1.00496e-06 3.27204e-09 0
-1.00301e-06 2.26613e-09 0
-1.00154e-06 1.59639e-09 0
-1.00044e-06 1.13669e-09 0
-9.99622e-07 8.15e-10 0
-9.99018e-07 5.87042e-10 0
-9.98573e-07 4.24165e-10 0
-9.98249e-07 3.07131e-10 0
-9.98014e-07 2.2271e-10 0
-9.97846e-07 1.61646e-10 0
-9.97727e-07 1.17393e-10 0
-9.97645e-07 8.52794e-11 0
-9.97591e-07 6.19522e-11 0
-9.97557e-07 4.4995e-11 0
-9.97538e-07 3.26598e-11 0
-9.9753e-07 2.36778e-11 0
-9.9753e-07 1.71249e-11 0
-9.97536e-07 1.23241e-11 0
-9.97546e-07 8.77183e-12 0
-9.97558e-07 6.081e-12 0
-9.97572e-07 3.92924e-12 0
-9.97588e-07 2.00185e-12 0
-9.97604e-07 -8.72499e-14 0
-9.97622e-07 -2.92969e-12 0
-9.97643e-07 -7.60755e-12 0
-9.97668e-07 -1.64855e-11 0
-9.97703e-07 -3.55929e-11 0
-9.97767e-07 -8.30448e-11 0
-9.97913e-07 -2.0063e-10 0
0.00928102 6.88637e-07 0
0 0 0
1.14611e-10 0 0
-4.28796e-07 0 0
-5.82207e-07 0 0
-6.19096e-07 0 0
-6.23402e-07 0 0
-6.06167e-07 0 0
-5.34198e-07 0 0
-4.42766e-07 0 0
-3.91369e-07 0 0
-5.80918e-07 0 0
-7.98438e-07 0 0
-8.60329e-07 0 0
-8.05157e-07 0 0
-7.3036e-07 0 0
-6.78585e-07 0 0
-6.50146e-07 0 0
-6.35435e-07 0 0
-6.27583e-07 0 0
-6.23078e-07 0 0
-6.20291e-07 0 0
-6.18462e-07 0 0
-6.17211e-07 0 0
-6.16335e-07 0 0
-6.15713e-07 0 0
-6.15268e-07 0 0
-6.14948e-07 0 0
-6.14717e-07 0 0
-6.14552e-07 0 0
-6.14434e-07 0 0
-6.14351e-07 0 0
-6.14292e-07 0 0
-6.14253e-07 0 0
-6.14227e-07 0 0
-6.14211e-07 0 0
-6.14202e-07 0 0
-6.14199e-07 0 0
-6.14199e-07 0 0
-6.14203e-07 0 0
-6.14208e-07 0 0
-6.14214e-07 0 0
-6.14222e-07 0 0
-6.14229e-07 0 0
-6.14238e-07 0 0
-6.14248e-07 0 0
-6.14259e-07 0 0
-6.14273e-07 0 0
-6.14294e-07 0 0
-6.14334e-07 0 0
-6.14433e-07 0 0
0.0038531 0 0
0 0 4.51667e-07
2.3242e-10 0 1.72962e-07
-1.05505e-06 0 1.76912e-07
-1.35272e-06 0 -1.53134e-07
-1.09418e-06 0 -3.95672e-07
-8.31773e-08 0 -2.89534e-07
-9.50165e-08 0 -3.17293e-08
-2.98008e-07 0 5.41163e-08
-4.78455e-07 0 4.55055e-08
-5.81821e-07 0 3.44819e-09
-6.46423e-07 0 -1.82066e-08
-7.11651e-07 0 -1.91167e-08
-7.75595e-07 0 -1.25371e-08
-8.30413e-07 0 -6.25515e-09
-8.74782e-07 0 -2.34907e-09
-9.09401e-07 0 -4.84511e-10
-9.35404e-07 0 1.80615e-10
-9.54302e-07 0 2.99838e-10
-9.67706e-07 0 2.32812e-10
-9.77065e-07 0 1.35746e-10
-9.83544e-07 0 5.99266e-11
-9.88015e-07 0 1.29526e-11
-9.91105e-07 0 -1.14482e-11
-9.93249e-07 0 -2.14502e-11
-9.94747e-07 0 -2.34446e-11
-9.958e-07 0 -2.15725e-11
-9.96547e-07 0 -1.82226e-11
-9.97081e-07 0 -1.46375e-11
-9.97466e-07 0 -1.13837e-11
-9.97748e-07 0 -8.66177e-12
-9.97955e-07 0 -6.49062e-12
-9.9811e-07 0 -4.81077e-12
-9.98228e-07 0 -3.53741e-12
-9.9832e-07 0 -2.58583e-12
-9.98392e-07 0 -1.88183e-12
-9.98451e-07 0 -1.36464e-12
-9.98499e-07 0 -9.86371e-13
-9.98541e-07 0 -7.10197e-13
-9.98577e-07 0 -5.08133e-13
-9.98608e-07 0 -3.59008e-13
-9.98636e-07 0 -2.46712e-13
-9.98662e-07 0 -1.58623e-13
-9.98685e-07 0 -8.37597e-14
-9.98708e-07 0 -1.00709e-14
-9.9873e-07 0 8.23592e-14
-9.98754e-07 0 3.11318e-13
-9.98783e-07 0 1.61258e-12
-9.98824e-07 0 8.57064e-12
-9.98897e-07 0 3.87997e-11
-9.99051e-07 0 1.37226e-10
0.00928017 0 -5.23967e-07
0.0036 4.60654e-07 3.10929e-07
0.00359899 -0.00323347 -0.00141921
0.0105587 -0.00744388 -0.00310362
0.0202859 -0.00908837 -0.00320387
0.0314829 -0.0104135 -0.00270049
0.0462051 -0.0062052 -0.00137711
0.0473795 -5.83658e-05 -0.000126695
0.0467311 0.00266337 0.00018841
0.0413729 0.00425159 7.432e-05
0.0360753 0.00411401 -0.000146435
0.0315598 0.00338304 -0.000188143
0.0281514 0.00249384 -0.000140548
0.02585 0.00169337 -8.36571e-05
0.0244015 0.00108566 -4.31438e-05
0.0235269 0.000668459 -1.99619e-05
0.023016 0.000398104 -8.45496e-06
0.0227269 0.000229877 -3.32892e-06
0.0225689 0.000128693 -1.24959e-06
0.022486 6.96633e-05 -4.81316e-07
0.0224447 3.62102e-05 -2.24604e-07
0.0224259 1.78071e-05 -1.45935e-07
0.0224185 8.01705e-06 -1.19662e-07
0.0224167 3.02503e-06 -1.04454e-07
0.0224174 6.30009e-07 -8.97473e-08
0.0224191 -4.06304e-07 -7.45655e-08
0.0224208 -7.63136e-07 -6.00213e-08
0.0224224 -8.0265e-07 -4.70948e-08
0.0224237 -7.11274e-07 -3.6234e-08
0.0224248 -5.80373e-07 -2.74681e-08
0.0224255 -4.51337e-07 -2.05926e-08
0.0224261 -3.40248e-07 -1.53098e-08
0.0224266 -2.51048e-07 -1.13111e-08
0.0224269 -1.82377e-07 -8.31781e-09
0.0224271 -1.30968e-07 -6.09655e-09
0.0224273 -9.32447e-08 -4.46074e-09
0.0224274 -6.59917e-08 -3.26666e-09
0.0224275 -4.65685e-08 -2.40777e-09
0.0224275 -3.2924e-08 -1.81003e-09
0.0224276 -2.35301e-08 -1.42976e-09
0.0224276 -1.73e-08 -1.25565e-09
0.0224276 -1.35235e-08 -1.31685e-09
0.0224276 -1.18421e-08 -1.69919e-09
0.0224277 -1.22922e-08 -2.57152e-09
0.0224277 -1.54817e-08 -4.22381e-09
0.0224277 -2.30391e-08 -7.11127e-09
0.0224278 -3.84912e-08 -1.17076e-08
0.0224279 -6.84039e-08 -1.73663e-08
0.0224281 -1.34214e-07 -3.04404e-08
0.0224285 -3.77794e-07 -1.69232e-07
0.0224292 -1.16533e-06 -7.92485e-07
0.0224303 -1.75575e-06 -1.28735e-06
0.01 5.04822e-07 -1.2464e-07
0.010001 -0.00572879 -0.00244179
0.0161726 -0.0140257 -0.00510541
0.0252551 -0.0183062 -0.00475562
0.0360864 -0.023821 -0.00325493
0.0542232 -0.014676 -0.000826308
0.0536402 -9.4484e-05 0.000781775
0.0542384 0.00618015 0.000846408
0.047098 0.0107712 0.000411444
0.0401866 0.00993789 -0.000154216
0.0350425 0.0080291 -0.000305199
0.0314505 0.00578099 -0.000227295
0.0292683 0.00379127 -0.000131288
0.0280416 0.0023444 -6.52972e-05
0.0273746 0.00139541 -2.84816e-05
0.0270243 0.000804235 -1.07778e-05
0.0268487 0.00044874 -3.25408e-06
0.0267665 0.000241556 -4.64944e-07
0.0267322 0.000124414 3.58248e-07
0.0267215 6.02328e-05 4.66292e-07
0.0267213 2.63056e-05 3.67942e-07
0.0267252 9.17625e-06 2.44997e-07
0.0267303 1.09523e-06 1.48749e-07
0.0267351 -2.2844e-06 8.46488e-08
0.0267392 -3.3373e-06 4.55068e-08
0.0267425 -3.32299e-06 2.29698e-08
0.026745 -2.88521e-06 1.06084e-08
0.0267469 -2.33606e-06 4.15357e-09
0.0267483 -1.81423e-06 9.83992e-10
0.0267494 -1.37122e-06 -4.30275e-10
0.0267501 -1.01715e-06 -9.48707e-10
0.0267506 -7.44435e-07 -1.03804e-09
0.026751 -5.39481e-07 -9.43008e-10
0.0267513 -3.88091e-07 -7.86735e-10
0.0267515 -2.77696e-07 -6.27994e-10
0.0267517 -1.98016e-07 -4.93343e-10
0.0267518 -1.41038e-07 -3.95258e-10
0.0267518 -1.00717e-07 -3.43146e-10
0.0267519 -7.2626e-08 -3.51618e-10
0.0267519 -5.36451e-08 -4.49185e-10
0.0267519 -4.17481e-08 -6.90015e-10
0.026752 -3.59215e-08 -1.17086e-09
0.026752 -3.62942e-08 -2.05324e-09
0.026752 -4.46418e-08 -3.58337e-09
0.0267521 -6.57391e-08 -6.08779e-09
0.0267521 -1.11573e-07 -9.89572e-09
0.0267522 -2.13989e-07 -1.49731e-08
0.0267524 -4.35743e-07 -3.01588e-08
0.0267527 -8.15994e-07 -2.01535e-07
0.026753 -1.40354e-06 -9.5988e-07
0.0267531 -1.76161e-06 -1.55944e-06
0.0148 -7.8741e-07 -5.48244e-08
0.0148026 -0.00712307 -0.00319983
0.0191491 -0.0177059 -0.00682457
0.0247748 -0.0242091 -0.00622607
0.0279132 -0.0359503 -0.00375866
0.0272647 -0.0223418 -0.000745299
0.0263377 -1.00749e-05 0.000786468
0.0269997 0.00918522 0.000804064
0.0323284 0.0183476 0.000591847
0.0310602 0.0163071 0.000120505
0.0289761 0.012259 -0.000131901
0.0276088 0.00836482 -0.000158246
0.0269843 0.00515843 -0.000105265
0.0268129 0.00300801 -5.25842e-05
0.0268279 0.0016987 -1.95217e-05
0.0269053 0.000929126 -4.00327e-06
0.0269905 0.000489356 1.56631e-06
0.0270628 0.000245484 2.73072e-06
0.0271177 0.000114612 2.36103e-06
0.0271569 4.70373e-05 1.67067e-06
0.0271842 1.38934e-05 1.07089e-06
0.0272028 -1.10815e-06 6.46498e-07
0.0272154 -6.91504e-06 3.74456e-07
0.0272239 -8.31232e-06 2.10013e-07
0.0272296 -7.78126e-06 1.14474e-07
0.0272335 -6.55762e-06 6.06008e-08
0.0272362 -5.22038e-06 3.09845e-08
0.0272381 -4.01281e-06 1.50998e-08
0.0272393 -3.01383e-06 6.81254e-09
0.0272402 -2.22727e-06 2.64027e-09
0.0272408 -1.62693e-06 6.47071e-10
0.0272413 -1.1782e-06 -2.23476e-10
0.0272416 -8.47731e-07 -5.37285e-10
0.0272418 -6.06995e-07 -5.91397e-10
0.0272419 -4.33107e-07 -5.38146e-10
0.027242 -3.08396e-07 -4.53958e-10
0.0272421 -2.19571e-07 -3.77471e-10
0.0272422 -1.56846e-07 -3.31328e-10
0.0272422 -1.13161e-07 -3.36169e-10
0.0272422 -8.35931e-08 -4.22231e-10
0.0272423 -6.49452e-08 -6.42446e-10
0.0272423 -5.55766e-08 -1.0901e-09
0.0272423 -5.55438e-08 -1.92474e-09
0.0272423 -6.72858e-08 -3.42001e-09
0.0272423 -9.7135e-08 -6.07053e-09
0.0272423 -1.5655e-07 -1.07293e-08
0.0272424 -2.58673e-07 -1.87537e-08
0.0272424 -4.18024e-07 -4.22337e-08
0.0272424 -6.62261e-07 -2.27514e-07
0.0272423 -1.01738e-06 -9.94348e-07
0.0272421 -1.22448e-06 -1.59453e-06
0.018 -1.9193e-06 -4.51944e-07
0.0180022 -0.00701218 -0.00397869
0.0195647 -0.016909 -0.00860371
0.0201807 -0.0198755 -0.00744091
0.0162714 -0.0211894 -0.00436702
-5.88308e-07 -0.0112179 -0.00155144
0.00011182 4.46389e-05 2.67828e-07
-4.81297e-05 5.17486e-05 0.000125491
0.00913764 0.00662266 0.000264453
0.0182728 0.0133148 0.00022043
0.0207931 0.0115528 6.93474e-05
0.0221236 0.00784025 -5.5068e-05
0.0236067 0.00463197 -7.05721e-05
0.0248452 0.0025242 -3.66218e-05
0.0257323 0.00131259 -8.8545e-06
0.0263243 0.000644419 3.47046e-06
0.0267014 0.000291342 6.4287e-06
0.0269341 0.000113676 5.64783e-06
0.0270746 2.95099e-05 3.9973e-06
0.0271584 -6.85929e-06 2.53962e-06
0.0272079 -1.98877e-05 1.51054e-06
0.0272372 -2.22077e-05 8.57859e-07
0.0272545 -2.0118e-05 4.69344e-07
0.0272648 -1.66226e-05 2.47805e-07
0.027271 -1.30581e-05 1.25605e-07
0.0272748 -9.94407e-06 6.01865e-08
0.0272771 -7.41908e-06 2.62663e-08
0.0272785 -5.4573e-06 9.37703e-09
0.0272794 -3.97365e-06 1.46144e-09
0.02728 -2.87174e-06 -1.86847e-09
0.0272803 -2.06369e-06 -2.95174e-09
0.0272806 -1.47657e-06 -3.00585e-09
0.0272808 -1.05294e-06 -2.64546e-09
0.0272809 -7.48934e-07 -2.1676e-09
0.0272809 -5.31752e-07 -1.70623e-09
0.027281 -3.77248e-07 -1.31492e-09
0.027281 -2.67841e-07 -1.01101e-09
0.0272811 -1.90868e-07 -7.99756e-10
0.0272811 -1.37321e-07 -6.89362e-10
0.0272811 -1.0093e-07 -7.03656e-10
0.0272811 -7.75347e-08 -8.98104e-10
0.0272811 -6.46986e-08 -1.38547e-09
0.0272811 -6.15465e-08 -2.38151e-09
0.0272811 -6.86517e-08 -4.2928e-09
0.0272811 -8.76647e-08 -7.89288e-09
0.0272811 -1.20946e-07 -1.44416e-08
0.027281 -1.72256e-07 -2.48444e-08
0.027281 -2.46842e-07 -4.93117e-08
0.0272809 -3.59309e-07 -2.34946e-07
0.0272807 -5.2154e-07 -9.99239e-07
0.0272805 -6.15177e-07 -1.59637e-06
0.0196 -2.19072e-06 -1.48919e-06
0.0196008 -0.00490905 -0.0045377
0.019262 -0.0108606 -0.00962439
0.0176105 -0.0118288 -0.00790034
0.0133716 -0.0096471 -0.00443146
0.00346584 -0.00377209 -0.00198953
8.66633e-05 -8.03964e-05 -0.000370307
3.22667e-05 -3.22667e-05 -5.98651e-08
-4.64063e-05 4.98532e-05 2.11779e-05
0.00661235 0.00460715 6.28721e-05
0.0132964 0.0084065 4.64019e-05
0.016674 0.00558029 -4.74902e-05
0.0203813 0.00246808 -9.04658e-05
0.0231625 0.000900244 -5.21038e-05
0.0249227 0.000225907 -1.45069e-05
0.0259606 -3.95072e-05 2.70474e-06
0.0265518 -0.000121963 6.86928e-06
0.0268824 -0.000129375 6.00461e-06
0.0270651 -0.000110924 4.09276e-06
0.0271653 -8.71135e-05 2.47846e-06
0.0272199 -6.54544e-05 1.39624e-06
0.0272496 -4.79958e-05 7.45001e-07
0.0272655 -3.4702e-05 3.77505e-07
0.0272741 -2.48816e-05 1.79481e-07
0.0272787 -1.77504e-05 7.70674e-08
0.027281 -1.26235e-05 2.64968e-08
0.0272823 -8.95955e-06 3.11314e-09
0.0272829 -6.35046e-06 -6.50464e-09
0.0272832 -4.49674e-06 -9.46287e-09
0.0272833 -3.18162e-06 -9.42265e-09
0.0272834 -2.24959e-06 -8.20868e-09
0.0272834 -1.5896e-06 -6.68792e-09
0.0272834 -1.12261e-06 -5.24034e-09
0.0272834 -7.92466e-07 -4.00672e-09
0.0272834 -5.59305e-07 -3.01691e-09
0.0272834 -3.94881e-07 -2.25499e-09
0.0272834 -2.79201e-07 -1.69197e-09
0.0272834 -1.98145e-07 -1.30295e-09
0.0272834 -1.41774e-07 -1.07818e-09
0.0272834 -1.03144e-07 -1.03456e-09
0.0272834 -7.74515e-08 -1.23329e-09
0.0272833 -6.14056e-08 -1.81009e-09
0.0272833 -5.27047e-08 -3.0259e-09
0.0272833 -4.9521e-08 -5.34273e-09
0.0272833 -4.9946e-08 -9.51546e-09
0.0272833 -5.1237e-08 -1.65902e-08
0.0272832 -4.92578e-08 -2.71829e-08
0.0272831 -3.91174e-08 -5.09447e-08
0.027283 -2.22156e-08 -2.35565e-07
0.0272828 -6.42306e-09 -9.98937e-07
0.0272826 1.90592e-10 -1.59548e-06
0.0196 -1.23963e-06 -2.37949e-06
0.0196005 -0.00243962 -0.00467643
0.0194757 -0.00493816 -0.00959746
0.0190526 -0.00429086 -0.00772576
0.0163158 -0.000978466 -0.00421474
0.0122925 0.00475075 -0.00213592
0.00744904 0.00393814 -0.000910527
8.68878e-05 -7.3905e-05 -0.000187111
2.74987e-05 -2.74987e-05 -1.03379e-07
-4.44838e-05 4.83287e-05 5.83586e-06
0.00460202 0.00148514 0.000123307
0.0109091 0.000778301 5.20437e-05
0.0179116 -0.00181902 -0.000154869
0.0225251 -0.0019932 -0.000133627
0.0249351 -0.00147613 -5.73882e-05
0.0261231 -0.000983169 -1.48201e-05
0.0267109 -0.000631683 -4.54205e-07
0.0270039 -0.000401177 2.44948e-06
0.0271499 -0.000254646 2.12931e-06
0.027222 -0.00016251 1.32813e-06
0.0272571 -0.000104626 7.12896e-07
0.0272735 -6.80732e-05 3.40639e-07
0.0272807 -4.47872e-05 1.40117e-07
0.0272835 -2.97901e-05 4.10562e-08
0.0272843 -2.00163e-05 -3.34068e-09
0.0272841 -1.35708e-05 -2.01889e-08
0.0272837 -9.27224e-06 -2.40738e-08
0.0272832 -6.37615e-06 -2.24374e-08
0.0272827 -4.40758e-06 -1.88901e-08
0.0272823 -3.0594e-06 -1.50712e-08
0.027282 -2.13038e-06 -1.1645e-08
0.0272818 -1.48704e-06 -8.81498e-09
0.0272816 -1.03985e-06 -6.58204e-09
0.0272815 -7.28133e-07 -4.87012e-09
0.0272814 -5.10458e-07 -3.58454e-09
0.0272813 -3.58322e-07 -2.63757e-09
0.0272812 -2.52011e-07 -1.95891e-09
0.0272812 -1.77831e-07 -1.50041e-09
0.0272812 -1.26219e-07 -1.24053e-09
0.0272812 -9.04438e-08 -1.19249e-09
0.0272811 -6.56609e-08 -1.41995e-09
0.0272811 -4.81792e-08 -2.06432e-09
0.0272811 -3.48037e-08 -3.38774e-09
0.0272811 -2.21244e-08 -5.83962e-09
0.0272811 -5.60791e-09 -1.01564e-08
0.027281 2.1701e-08 -1.73427e-08
0.027281 7.11146e-08 -2.78427e-08
0.0272809 1.59871e-07 -5.07378e-08
0.0272808 3.05361e-07 -2.33608e-07
0.0272807 5.04708e-07 -9.96942e-07
0.0272805 6.15384e-07 -1.59446e-06
0.018 -7.67218e-07 -2.4951e-06
0.0180011 -0.000453272 -0.00450508
0.0191282 -0.000446485 -0.00900344
0.0205723 0.000701787 -0.00704019
0.0205319 0.00293272 -0.00381738
0.0202442 0.00802744 -0.00196076
0.0205733 0.0134558 -0.00100021
0.0127762 0.00766531 -0.000456529
8.89772e-05 -5.88328e-05 -0.000138849
-3.66547e-05 -6.53527e-05 6.86742e-07
7.55073e-06 -0.00254266 0.000482184
0.0104747 -0.00773256 0.00047726
0.0193357 -0.00908818 -0.000126501
0.0241947 -0.00607232 -0.000194955
0.0261843 -0.00334719 -0.000100743
0.02691 -0.00180659 -3.6618e-05
0.027169 -0.00100072 -1.12059e-05
0.0272574 -0.000568464 -3.03892e-06
0.0272822 -0.000329554 -7.2041e-07
0.0272839 -0.000194646 -1.51268e-07
0.027278 -0.000117106 -4.75194e-08
0.0272706 -7.17684e-05 -4.32316e-08
0.0272639 -4.47899e-05 -4.8092e-08
0.0272584 -2.84444e-05 -4.68185e-08
0.0272541 -1.83597e-05 -4.08211e-08
0.0272508 -1.20257e-05 -3.31846e-08
0.0272485 -7.9793e-06 -2.5826e-08
0.0272467 -5.3532e-06 -1.9557e-08
0.0272455 -3.62462e-06 -1.45552e-08
0.0272446 -2.47268e-06 -1.07127e-08
0.0272439 -1.69695e-06 -7.8279e-09
0.0272434 -1.17003e-06 -5.69287e-09
0.0272431 -8.09622e-07 -4.12774e-09
0.0272429 -5.6178e-07 -2.98889e-09
0.0272427 -3.90669e-07 -2.16714e-09
0.0272426 -2.7221e-07 -1.58302e-09
0.0272425 -1.90064e-07 -1.18244e-09
0.0272424 -1.33034e-07 -9.34532e-10
0.0272424 -9.33479e-08 -8.33132e-10
0.0272424 -6.54869e-08 -9.03354e-10
0.0272423 -4.53353e-08 -1.21593e-09
0.0272423 -2.94853e-08 -1.91266e-09
0.0272423 -1.45649e-08 -3.2479e-09
0.0272423 3.55846e-09 -5.65407e-09
0.0272423 3.08988e-08 -9.847e-09
0.0272423 7.71661e-08 -1.68366e-08
0.0272422 1.59338e-07 -2.70396e-08
0.0272422 3.09002e-07 -4.87634e-08
0.0272422 5.76978e-07 -2.27401e-07
0.0272422 9.85945e-07 -9.8869e-07
0.027242 1.22392e-06 -1.58741e-06
0.0148 -5.97143e-07 -2.26992e-06
0.0148016 0.000606576 -0.00414948
0.0177134 0.00172936 -0.00797582
0.0211696 0.00279081 -0.00594316
0.0235373 0.0045838 -0.00322323
0.0253092 0.00744246 -0.00181754
0.0283286 0.0127498 -0.00110777
0.0317452 0.0210741 -0.000583711
0.0262961 0.0128516 1.25376e-05
0.0280814 5.86207e-11 0.000629197
0.0327964 -0.0091226 0.00126978
0.0348686 -0.0186789 0.00101192
0.0323112 -0.0154848 5.73229e-05
0.029852 -0.0087681 -0.000220017
0.0284583 -0.00414955 -0.000150327
0.0277283 -0.00195014 -6.43231e-05
0.0273311 -0.000972515 -2.32143e-05
0.027105 -0.000512222 -7.76983e-06
0.0269718 -0.000280467 -2.45686e-06
0.0268914 -0.00015809 -7.06356e-07
0.0268419 -9.12934e-05 -1.51986e-07
0.0268108 -5.38885e-05 1.12667e-08
0.026791 -3.24735e-05 5.02111e-08
0.0267782 -1.9957e-05 5.17461e-08
0.0267698 -1.24937e-05 4.36052e-08
0.0267642 -7.95602e-06 3.43002e-08
0.0267604 -5.14468e-06 2.61833e-08
0.0267578 -3.37171e-06 1.96821e-08
0.026756 -2.23517e-06 1.46615e-08
0.0267548 -1.49587e-06 1.08566e-08
0.026754 -1.00881e-06 8.00527e-09
0.0267534 -6.84474e-07 5.8844e-09
0.026753 -4.66582e-07 4.31462e-09
0.0267527 -3.19178e-07 3.15568e-09
0.0267525 -2.18929e-07 2.29923e-09
0.0267523 -1.50482e-07 1.66128e-09
0.0267522 -1.03604e-07 1.17484e-09
0.0267522 -7.13749e-08 7.82529e-10
0.0267521 -4.90157e-08 4.27808e-10
0.0267521 -3.30937e-08 4.35273e-11
0.026752 -2.09298e-08 -4.65091e-10
0.026752 -1.00879e-08 -1.24637e-09
0.026752 2.17713e-09 -2.54106e-09
0.026752 1.96545e-08 -4.74345e-09
0.026752 4.83307e-08 -8.50282e-09
0.026752 9.84134e-08 -1.4777e-08
0.0267521 1.88685e-07 -2.41331e-08
0.0267521 3.60661e-07 -4.43105e-08
0.0267523 7.15556e-07 -2.12526e-07
0.0267525 1.35777e-06 -9.54711e-07
0.0267526 1.75899e-06 -1.54363e-06
0.01 -1.00751e-06 -2.22e-06
0.0100006 0.000526259 -0.00346923
0.0140302 0.00143727 -0.00623823
0.018438 0.00208451 -0.00425146
0.0221437 0.00319482 -0.0022722
0.0261901 0.00565033 -0.00141381
0.0314013 0.00829869 -0.00121728