# vtk DataFile Version 2.0
Tobias Weinzierl: CPU, Manycore and Cluster Computing
ASCII

DATASET STRUCTURED_POINTS
DIMENSIONS  51 11 6

ORIGIN 0 0 0 

SPACING 0.1 0.1 0.1 

POINT_DATA 3366

VECTORS velocity float
0 0 0
-1.4952e-12 0 0
-1.05225e-10 0 0
3.74503e-11 0 0
-2.15008e-09 0 0
2.08599e-09 0 0
3.06336e-09 0 0
3.14439e-09 0 0
3.37063e-09 0 0
3.86199e-09 0 0
4.28993e-09 0 0
4.34668e-09 0 0
3.96482e-09 0 0
3.16502e-09 0 0
1.91752e-09 0 0
3.85153e-10 0 0
-1.03659e-09 0 0
-2.04739e-09 0 0
-2.68117e-09 0 0
-3.18928e-09 0 0
-3.79123e-09 0 0
-4.54972e-09 0 0
-5.39797e-09 0 0
-6.22521e-09 0 0
-6.94247e-09 0 0
-7.5068e-09 0 0
-7.91574e-09 0 0
-8.19091e-09 0 0
-8.36287e-09 0 0
-8.46148e-09 0 0
-8.51148e-09 0 0
-8.53139e-09 0 0
-8.53409e-09 0 0
-8.52801e-09 0 0
-8.51832e-09 0 0
-8.50796e-09 0 0
-8.49845e-09 0 0
-8.49041e-09 0 0
-8.48399e-09 0 0
-8.47907e-09 0 0
-8.47542e-09 0 0
-8.47279e-09 0 0
-8.47094e-09 0 0
-8.4697e-09 0 0
-8.46893e-09 0 0
-8.4685e-09 0 0
-8.46833e-09 0 0
-8.46833e-09 0 0
-8.46844e-09 0 0
-8.46862e-09 0 0
0.00190857 0 0
0 3.80108e-07 0
-3.01994e-12 -1.76174e-10 0
-1.83975e-10 -9.23351e-10 0
7.81067e-10 -2.77445e-10 0
-8.0397e-10 -1.77065e-09 0
6.44759e-09 -2.06509e-09 0
7.5775e-09 8.11989e-10 0
7.62961e-09 5.62629e-10 0
9.06708e-09 -9.34238e-10 0
1.12349e-08 -2.19027e-09 0
1.28763e-08 -2.82333e-09 0
1.33644e-08 -2.73776e-09 0
1.24503e-08 -1.70145e-09 0
1.0217e-08 1.19395e-10 0
7.08316e-09 1.83352e-09 0
3.75298e-09 2.5691e-09 0
8.82467e-10 2.26437e-09 0
-1.33292e-09 1.52081e-09 0
-3.21285e-09 9.4295e-10 0
-5.22635e-09 7.41436e-10 0
-7.62375e-09 7.98196e-10 0
-1.03385e-08 9.09084e-10 0
-1.31056e-08 9.43493e-10 0
-1.56357e-08 8.72139e-10 0
-1.77323e-08 7.26706e-10 0
-1.93249e-08 5.54006e-10 0
-2.0443e-08 3.90259e-10 0
-2.11705e-08 2.5458e-10 0
-2.16064e-08 1.52355e-10 0
-2.18415e-08 8.10078e-11 0
-2.19477e-08 3.46199e-11 0
-2.19775e-08 6.71759e-12 0
-2.1966e-08 -8.40556e-12 0
-2.19356e-08 -1.5249e-11 0
-2.18994e-08 -1.71015e-11 0
-2.18645e-08 -1.62201e-11 0
-2.1834e-08 -1.40622e-11 0
-2.18091e-08 -1.15051e-11 0
-2.17896e-08 -9.03096e-12 0
-2.17749e-08 -6.86753e-12 0
-2.1764e-08 -5.09037e-12 0
-2.17562e-08 -3.69097e-12 0
-2.17508e-08 -2.6203e-12 0
-2.17471e-08 -1.81566e-12 0
-2.17447e-08 -1.21441e-12 0
-2.17433e-08 -7.58634e-13 0
-2.17426e-08 -3.92477e-13 0
-2.17425e-08 -4.28288e-14 0
-2.17428e-08 4.68363e-13 0
-2.17435e-08 1.59805e-12 0
0.00549355 -1.60638e-08 0
0 -1.90844e-08 0
-2.31695e-12 -2.87608e-10 0
6.4719e-10 -2.34617e-09 0
3.63586e-09 -4.94017e-09 0
6.46146e-09 -8.7375e-09 0
1.16327e-08 -6.36378e-09 0
9.01415e-09 -5.87348e-11 0
7.95424e-09 -5.90438e-10 0
9.82331e-09 -3.67475e-09 0
1.38192e-08 -6.60861e-09 0
1.63749e-08 -9.15144e-09 0
1.64224e-08 -1.06095e-08 0
1.45999e-08 -9.49346e-09 0
1.13338e-08 -5.74537e-09 0
7.42333e-09 -1.06167e-09 0
3.66212e-09 2.93063e-09 0
5.23211e-10 5.60445e-09 0
-1.96844e-09 6.9924e-09 0
-4.11444e-09 7.37159e-09 0
-6.27659e-09 7.07824e-09 0
-8.66763e-09 6.39557e-09 0
-1.12716e-08 5.50444e-09 0
-1.38896e-08 4.51489e-09 0
-1.62645e-08 3.51514e-09 0
-1.82023e-08 2.58627e-09 0
-1.96274e-08 1.7902e-09 0
-2.05705e-08 1.15778e-09 0
-2.11236e-08 6.89455e-10 0
-2.1396e-08 3.65009e-10 0
-2.14866e-08 1.54944e-10 0
-2.14717e-08 2.90579e-11 0
-2.14043e-08 -3.88745e-11 0
-2.13179e-08 -6.94204e-11 0
-2.12315e-08 -7.75402e-11 0
-2.11544e-08 -7.34432e-11 0
-2.10904e-08 -6.36782e-11 0
-2.10396e-08 -5.21643e-11 0
-2.10006e-08 -4.10417e-11 0
-2.09716e-08 -3.13171e-11 0
-2.09504e-08 -2.33223e-11 0
-2.09352e-08 -1.70215e-11 0
-2.09246e-08 -1.22044e-11 0
-2.09172e-08 -8.60005e-12 0
-2.09122e-08 -5.93791e-12 0
-2.0909e-08 -3.97586e-12 0
-2.09071e-08 -2.50018e-12 0
-2.09062e-08 -1.29755e-12 0
-2.09061e-08 -6.9125e-14 0
-2.09065e-08 1.54578e-12 0
-2.09073e-08 3.87523e-12 0
0.00792404 -3.89753e-08 0
0 -6.28684e-07 0
-1.13642e-12 -1.35341e-09 0
1.60022e-09 -4.9429e-09 0
5.51657e-09 -9.53148e-09 0
7.47139e-09 -1.31728e-08 0
7.27142e-09 -7.23099e-09 0
4.48963e-09 -6.40655e-12 0
3.46878e-09 -1.22823e-09 0
2.86998e-09 -5.10273e-09 0
4.4624e-09 -1.05836e-08 0
6.594e-09 -1.57533e-08 0
6.65226e-09 -1.8858e-08 0
5.4109e-09 -1.79376e-08 0
2.56431e-09 -1.29329e-08 0
-1.39785e-09 -5.47766e-09 0
-5.66278e-09 2.64502e-09 0
-9.33469e-09 9.46423e-09 0
-1.17057e-08 1.34285e-08 0
-1.25341e-08 1.42767e-08 0
-1.2139e-08 1.29229e-08 0
-1.11826e-08 1.0582e-08 0
-1.02704e-08 8.10783e-09 0
-9.688e-09 5.89275e-09 0
-9.415e-09 4.05324e-09 0
-9.29412e-09 2.59897e-09 0
-9.18197e-09 1.50567e-09 0
-9.00898e-09 7.31775e-10 0
-8.77035e-09 2.22749e-10 0
-8.49392e-09 -8.19036e-11 0
-8.21331e-09 -2.40206e-10 0
-7.95427e-09 -3.01588e-10 0
-7.73122e-09 -3.04302e-10 0
-7.54898e-09 -2.75611e-10 0
-7.406e-09 -2.3348e-10 0
-7.29736e-09 -1.88784e-10 0
-7.21694e-09 -1.47414e-10 0
-7.15865e-09 -1.12008e-10 0
-7.11714e-09 -8.32471e-11 0
-7.08804e-09 -6.07497e-11 0
-7.06791e-09 -4.36499e-11 0
-7.05415e-09 -3.09396e-11 0
-7.04486e-09 -2.16532e-11 0
-7.03869e-09 -1.49505e-11 0
-7.0347e-09 -1.01403e-11 0
-7.03225e-09 -6.66705e-12 0
-7.03092e-09 -4.07097e-12 0
-7.03039e-09 -1.94454e-12 0
-7.03033e-09 8.38217e-14 0
-7.0304e-09 2.25881e-12 0
-7.0304e-09 4.44979e-12 0
0.008992 -4.28739e-08 0
0 -1.2338e-06 0
-1.95713e-12 -2.63219e-09 0
4.38937e-10 -7.41718e-09 0
1.90611e-09 -9.84879e-09 0
1.79751e-09 -7.95014e-09 0
-7.11965e-13 -2.88924e-09 0
-9.99629e-11 -8.4773e-11 0
8.03119e-11 -8.31716e-11 0
-1.25706e-09 -3.1159e-09 0
-6.0139e-09 -1.10326e-08 0
-8.57082e-09 -1.95904e-08 0
-7.92104e-09 -2.50631e-08 0
-8.28447e-09 -2.47613e-08 0
-1.04486e-08 -1.79704e-08 0
-1.36879e-08 -7.06259e-09 0
-1.70737e-08 4.71756e-09 0
-1.96972e-08 1.38226e-08 0
-2.06878e-08 1.80345e-08 0
-1.94827e-08 1.75372e-08 0
-1.62591e-08 1.42106e-08 0
-1.19225e-08 1.00828e-08 0
-7.55787e-09 6.38626e-09 0
-3.88568e-09 3.53905e-09 0
-1.11915e-09 1.52215e-09 0
8.60581e-10 1.84473e-10 0
2.27432e-09 -6.29732e-10 0
3.31063e-09 -1.0556e-09 0
4.09165e-09 -1.20912e-09 0
4.68781e-09 -1.18747e-09 0
5.14099e-09 -1.06706e-09 0
5.48025e-09 -9.02963e-10 0
5.72908e-09 -7.3108e-10 0
5.90767e-09 -5.7201e-10 0
6.03322e-09 -4.35469e-10 0
6.11982e-09 -3.24184e-10 0
6.17854e-09 -2.36895e-10 0
6.21776e-09 -1.70427e-10 0
6.24359e-09 -1.20995e-10 0
6.26039e-09 -8.493e-11 0
6.27117e-09 -5.90229e-11 0
6.278e-09 -4.06449e-11 0
6.28224e-09 -2.77321e-11 0
6.28482e-09 -1.87121e-11 0
6.28628e-09 -1.24095e-11 0
6.287e-09 -7.94867e-12 0
6.28722e-09 -4.6776e-12 0
6.2872e-09 -2.13379e-12 0
6.28728e-09 -5.70561e-14 0
6.28782e-09 1.64533e-12 0
6.28871e-09 2.88696e-12 0
0.00941333 -2.3331e-08 0
0 -1.11826e-06 0
-3.56369e-12 -2.63375e-09 0
-1.3052e-09 -6.04368e-09 0
-1.547e-09 -7.57902e-09 0
-2.54873e-09 -7.67243e-09 0
-1.81795e-09 -3.50421e-09 0
-9.05313e-11 8.83091e-11 0
-7.91366e-12 7.91366e-12 0
8.06689e-11 -8.00918e-11 0
-4.0302e-09 -5.52638e-09 0
-1.36466e-08 -1.83189e-08 0
-1.6956e-08 -2.76339e-08 0
-1.92242e-08 -2.70811e-08 0
-2.13165e-08 -1.88425e-08 0
-2.26702e-08 -6.35726e-09 0
-2.3117e-08 6.36486e-09 0
-2.27572e-08 1.53941e-08 0
-2.14178e-08 1.86177e-08 0
-1.85706e-08 1.66452e-08 0
-1.40372e-08 1.18692e-08 0
-8.45095e-09 6.6914e-09 0
-2.88914e-09 2.47745e-09 0
1.78963e-09 -4.08962e-10 0
5.25578e-09 -2.12282e-09 0
7.60381e-09 -2.95828e-09 0
9.1071e-09 -3.19044e-09 0
1.00405e-08 -3.04164e-09 0
1.06114e-08 -2.68279e-09 0
1.09568e-08 -2.2378e-09 0
1.11624e-08 -1.78843e-09 0
1.12814e-08 -1.38158e-09 0
1.13472e-08 -1.03839e-09 0
1.13807e-08 -7.63132e-10 0
1.13955e-08 -5.50564e-10 0
1.13998e-08 -3.91172e-10 0
1.13988e-08 -2.74406e-10 0
1.13954e-08 -1.90452e-10 0
1.13913e-08 -1.30997e-10 0
1.13873e-08 -8.94043e-11 0
1.13838e-08 -6.05947e-11 0
1.13809e-08 -4.07926e-11 0
1.13785e-08 -2.72544e-11 0
1.13766e-08 -1.80181e-11 0
1.13751e-08 -1.16956e-11 0
1.1374e-08 -7.32098e-12 0
1.13731e-08 -4.25373e-12 0
1.13726e-08 -2.10997e-12 0
1.13727e-08 -6.90063e-13 0
1.13734e-08 6.8741e-14 0
1.13745e-08 2.40551e-13 0
0.00952078 8.59404e-09 0
0 -7.70359e-07 0
-2.97471e-12 -1.53932e-09 0
-1.29887e-09 -3.93389e-09 0
-1.26244e-09 -5.17092e-09 0
-3.18367e-09 -5.55566e-09 0
-4.27349e-09 -4.3056e-09 0
-1.96883e-09 -1.52598e-09 0
-9.0141e-11 8.6334e-11 0
-5.72161e-12 5.72161e-12 0
8.19388e-11 -7.94686e-11 0
-6.27066e-09 -1.02198e-08 0
-1.58877e-08 -2.3892e-08 0
-2.24485e-08 -2.46068e-08 0
-2.5765e-08 -1.6064e-08 0
-2.62169e-08 -3.84255e-09 0
-2.41224e-08 7.4826e-09 0
-2.04851e-08 1.4526e-08 0
-1.63592e-08 1.59647e-08 0
-1.20251e-08 1.28254e-08 0
-7.35416e-09 7.54375e-09 0
-2.55469e-09 2.38718e-09 0
1.76491e-09 -1.45003e-09 0
5.05018e-09 -3.75395e-09 0
7.12201e-09 -4.79639e-09 0
8.14899e-09 -4.96148e-09 0
8.45251e-09 -4.59057e-09 0
8.34252e-09 -3.94638e-09 0
8.04547e-09 -3.21387e-09 0
7.69905e-09 -2.5096e-09 0
7.37413e-09 -1.8953e-09 0
7.09969e-09 -1.39357e-09 0
6.88179e-09 -1.00288e-09 0
6.71564e-09 -7.09379e-10 0
6.59245e-09 -4.9487e-10 0
6.50294e-09 -3.41391e-10 0
6.43886e-09 -2.33384e-10 0
6.39347e-09 -1.58356e-10 0
6.36157e-09 -1.06767e-10 0
6.33928e-09 -7.15775e-11 0
6.32377e-09 -4.77263e-11 0
6.313e-09 -3.16361e-11 0
6.30556e-09 -2.08137e-11 0
6.30042e-09 -1.35419e-11 0
6.29689e-09 -8.65772e-12 0
6.29449e-09 -5.39473e-12 0
6.29293e-09 -3.26559e-12 0
6.29204e-09 -1.97721e-12 0
6.29179e-09 -1.37904e-12 0
6.29219e-09 -1.50498e-12 0
6.29288e-09 -2.34674e-12 0
0.00941332 3.75013e-08 0
0 -5.39669e-07 0
-1.79978e-12 -9.16873e-10 0
-4.82515e-10 -2.53523e-09 0
-6.10996e-10 -3.88402e-09 0
-2.22239e-09 -4.1529e-09 0
-5.02591e-09 -2.56463e-09 0
-5.68581e-09 -4.83165e-10 0
-3.53591e-09 1.93769e-10 0
-9.15034e-11 8.1028e-11 0
8.04602e-11 7.89579e-11 0
1.66939e-12 -5.67983e-09 0
-9.24495e-09 -1.53103e-08 0
-2.04812e-08 -1.66305e-08 0
-2.79283e-08 -8.48466e-09 0
-2.9456e-08 1.87933e-09 0
-2.51995e-08 9.34655e-09 0
-1.77661e-08 1.21187e-08 0
-1.04272e-08 1.0579e-08 0
-4.98356e-09 6.42301e-09 0
-1.5092e-09 1.75916e-09 0
5.53453e-10 -1.90856e-09 0
1.58305e-09 -4.08001e-09 0
1.73355e-09 -4.95424e-09 0
1.15757e-09 -4.95851e-09 0
9.59387e-11 -4.47634e-09 0
-1.17975e-09 -3.77768e-09 0
-2.44755e-09 -3.03354e-09 0
-3.57113e-09 -2.34284e-09 0
-4.49304e-09 -1.75372e-09 0
-5.20943e-09 -1.28023e-09 0
-5.74465e-09 -9.16106e-10 0
-6.13324e-09 -6.45284e-10 0
-6.40953e-09 -4.48896e-10 0
-6.60303e-09 -3.09195e-10 0
-6.73709e-09 -2.11259e-10 0
-6.82926e-09 -1.43364e-10 0
-6.89231e-09 -9.67045e-11 0
-6.93529e-09 -6.48626e-11 0
-6.96451e-09 -4.32589e-11 0
-6.98435e-09 -2.8674e-11 0
-6.9978e-09 -1.88698e-11 0
-7.0069e-09 -1.23072e-11 0
-7.01302e-09 -7.94156e-12 0
-7.01712e-09 -5.07338e-12 0
-7.01987e-09 -3.24163e-12 0
-7.0217e-09 -2.15349e-12 0
-7.02289e-09 -1.64637e-12 0
-7.02355e-09 -1.683e-12 0
-7.02377e-09 -2.41366e-12 0
-7.02383e-09 -3.92048e-12 0
0.00899199 4.95282e-08 0
0 -4.57334e-07 0
-1.60527e-12 -4.75712e-10 0
9.56708e-11 -1.39641e-09 0
-3.58104e-10 -2.24766e-09 0
-2.67901e-09 -2.53198e-09 0
-6.47188e-09 -8.41959e-10 0
-8.56167e-09 1.53536e-09 0
-8.27381e-09 -6.79171e-10 0
-5.49471e-09 -1.85156e-09 0
-4.34426e-09 -3.79368e-14 0
-3.04605e-09 -4.04204e-09 0
-9.8558e-09 -8.58774e-09 0
-2.24483e-08 -6.4589e-09 0
-3.12918e-08 -9.80581e-11 0
-3.10317e-08 6.00343e-09 0
-2.28823e-08 8.62162e-09 0
-1.22744e-08 7.44121e-09 0
-4.41502e-09 3.88601e-09 0
-1.26091e-09 -7.30363e-11 0
-1.79177e-09 -2.88663e-09 0
-4.08021e-09 -4.06361e-09 0
-6.77073e-09 -4.007e-09 0
-9.30639e-09 -3.37968e-09 0
-1.15667e-08 -2.65332e-09 0
-1.35487e-08 -2.02894e-09 0
-1.52493e-08 -1.54219e-09 0
-1.66607e-08 -1.17004e-09 0
-1.77889e-08 -8.83424e-10 0
-1.86593e-08 -6.61173e-10 0
-1.93105e-08 -4.89253e-10 0
-1.97859e-08 -3.576e-10 0
-2.01263e-08 -2.58177e-10 0
-2.03665e-08 -1.84208e-10 0
-2.05342e-08 -1.29968e-10 0
-2.06503e-08 -9.07299e-11 0
-2.07303e-08 -6.26973e-11 0
-2.0785e-08 -4.28999e-11 0
-2.08224e-08 -2.90678e-11 0
-2.08478e-08 -1.95004e-11 0
-2.08651e-08 -1.29468e-11 0
-2.08767e-08 -8.50215e-12 0
-2.08846e-08 -5.52289e-12 0
-2.08899e-08 -3.55881e-12 0
-2.08935e-08 -2.30094e-12 0
-2.08959e-08 -1.54572e-12 0
-2.08976e-08 -1.17426e-12 0
-2.08989e-08 -1.13988e-12 0
-2.08999e-08 -1.46246e-12 0
-2.09008e-08 -2.25128e-12 0
-2.09019e-08 -3.57219e-12 0
0.00792405 3.82718e-08 0
0 -4.71233e-07 0
-1.05898e-12 -4.72413e-11 0
3.84327e-10 -2.26078e-10 0
-3.15756e-10 -4.69094e-10 0
-3.13011e-09 -5.73445e-10 0
-7.58187e-09 -4.18109e-10 0
-1.0358e-08 6.44616e-10 0
-1.01499e-08 3.71407e-10 0
-1.18577e-08 -8.25334e-10 0
-1.10008e-08 -9.50195e-10 0
-9.35511e-09 -1.09958e-09 0
-1.2748e-08 3.15866e-11 0
-1.82736e-08 2.09259e-09 0
-2.12284e-08 3.33048e-09 0
-1.83104e-08 3.43016e-09 0
-1.10233e-08 2.4331e-09 0
-3.89573e-09 7.11225e-10 0
-5.53994e-10 -9.97264e-10 0
-1.52363e-09 -2.00566e-09 0
-5.03088e-09 -2.13485e-09 0
-9.02929e-09 -1.69353e-09 0
-1.23745e-08 -1.10975e-09 0
-1.48173e-08 -6.48053e-10 0
-1.65368e-08 -3.7223e-10 0
-1.77792e-08 -2.38045e-10 0
-1.8719e-08 -1.80847e-10 0
-1.94524e-08 -1.54559e-10 0
-2.00291e-08 -1.36094e-10 0
-2.04784e-08 -1.17472e-10 0
-2.08224e-08 -9.78113e-11 0
-2.10809e-08 -7.84668e-11 0
-2.12717e-08 -6.08664e-11 0
-2.14103e-08 -4.5854e-11 0
-2.15096e-08 -3.36828e-11 0
-2.158e-08 -2.42026e-11 0
-2.16294e-08 -1.70528e-11 0
-2.16638e-08 -1.18022e-11 0
-2.16876e-08 -8.03242e-12 0
-2.1704e-08 -5.37913e-12 0
-2.17152e-08 -3.54558e-12 0
-2.17228e-08 -2.30137e-12 0
-2.17279e-08 -1.47455e-12 0
-2.17314e-08 -9.41595e-13 0
-2.17338e-08 -6.17646e-13 0
-2.17355e-08 -4.4938e-13 0
-2.17368e-08 -4.09262e-13 0
-2.1738e-08 -4.89274e-13 0
-2.17391e-08 -6.86278e-13 0
-2.17403e-08 -9.85359e-13 0
-2.17417e-08 -1.44309e-12 0
0.00549358 1.34405e-08 0
0 0 0
-2.29541e-13 0 0
2.35147e-10 0 0
-1.34983e-10 0 0
-1.48002e-09 0 0
-3.67937e-09 0 0
-5.51428e-09 0 0
-5.41029e-09 0 0
-6.36796e-09 0 0
-6.65816e-09 0 0
-6.30712e-09 0 0
-6.03681e-09 0 0
-5.50128e-09 0 0
-4.68535e-09 0 0
-3.15565e-09 0 0
-1.21853e-09 0 0
9.87831e-11 0 0
4.02296e-11 0 0
-1.26042e-09 0 0
-3.07171e-09 0 0
-4.71688e-09 0 0
-5.90441e-09 0 0
-6.65824e-09 0 0
-7.12064e-09 0 0
-7.42195e-09 0 0
-7.64178e-09 0 0
-7.81755e-09 0 0
-7.96331e-09 0 0
-8.08364e-09 0 0
-8.18075e-09 0 0
-8.25699e-09 0 0
-8.31528e-09 0 0
-8.35883e-09 0 0
-8.39073e-09 0 0
-8.41372e-09 0 0
-8.43007e-09 0 0
-8.44157e-09 0 0
-8.44957e-09 0 0
-8.45511e-09 0 0
-8.4589e-09 0 0
-8.46149e-09 0 0
-8.46326e-09 0 0
-8.46446e-09 0 0
-8.46531e-09 0 0
-8.46594e-09 0 0
-8.46648e-09 0 0
-8.46697e-09 0 0
-8.46749e-09 0 0
-8.46806e-09 0 0
-8.46869e-09 0 0
0.00190859 0 0
0 0 5.27348e-07
-3.01769e-12 0 2.79421e-10
-7.09237e-10 0 8.82596e-10
7.80191e-11 0 2.32149e-09
-7.5341e-09 0 -2.76904e-10
3.44082e-09 0 -3.14742e-09
6.82277e-09 0 -1.87135e-09
7.87755e-09 0 -8.71747e-10
8.55192e-09 0 2.14938e-10
9.34425e-09 0 1.26949e-09
1.07042e-08 0 2.33732e-09
1.29744e-08 0 3.06147e-09
1.56022e-08 0 2.88153e-09
1.72886e-08 0 1.92625e-09
1.67071e-08 0 9.44708e-10
1.36465e-08 0 3.83403e-10
9.14798e-09 0 1.66629e-10
4.50407e-09 0 1.22282e-10
3.28055e-10 0 1.97422e-10
-3.45946e-09 0 3.66995e-10
-7.11443e-09 0 5.60443e-10
-1.07032e-08 0 6.95713e-10
-1.40795e-08 0 7.30023e-10
-1.70326e-08 0 6.70462e-10
-1.9419e-08 0 5.53135e-10
-2.12067e-08 0 4.17688e-10
-2.24545e-08 0 2.9244e-10
-2.32677e-08 0 1.91259e-10
-2.376e-08 0 1.16993e-10
-2.40321e-08 0 6.64263e-11
-2.41624e-08 0 3.41553e-11
-2.42076e-08 0 1.48105e-11
-2.42059e-08 0 4.00622e-12
-2.41814e-08 0 -1.47247e-12
-2.41486e-08 0 -3.81713e-12
-2.41154e-08 0 -4.43858e-12
-2.40859e-08 0 -4.19924e-12
-2.40613e-08 0 -3.59838e-12
-2.40419e-08 0 -2.90645e-12
-2.4027e-08 0 -2.25642e-12
-2.4016e-08 0 -1.70296e-12
-2.40081e-08 0 -1.25864e-12
-2.40025e-08 0 -9.15014e-13
-2.39986e-08 0 -6.56092e-13
-2.39962e-08 0 -4.65455e-13
-2.39947e-08 0 -3.29392e-13
-2.39939e-08 0 -2.41578e-13
-2.39937e-08 0 -2.14225e-13
-2.3994e-08 0 -2.39759e-13
-2.39946e-08 0 -1.85909e-14
0.00542526 0 -8.20174e-10
0.0036 -3.01792e-07 -6.11441e-08
0.0035998 -0.0013899 -2.22489e-05
0.00670197 -0.00393658 0.000112067
0.0136122 -0.00587961 -0.000496678
0.0235036 -0.0144794 -0.0042695
0.0463883 -0.0134426 -0.00488789
0.0499221 -0.00194065 -0.00164615
0.0496641 0.00262984 -0.000163385
0.0446822 0.00495375 0.000573062
0.039082 0.00511725 0.000566881
0.0339885 0.00444594 0.000305591
0.0297156 0.00356075 3.5756e-05
0.0263265 0.00269217 -0.00015911
0.0237491 0.00193894 -0.000261203
0.0218295 0.00134545 -0.000282494
0.0203966 0.000915228 -0.000247868
0.0193113 0.000623778 -0.000184763
0.018479 0.000434972 -0.000116679
0.0178404 0.000313174 -5.94153e-05
0.0173568 0.000230791 -1.9738e-05
0.0169992 0.000170644 2.86596e-06
0.0167426 0.000124085 1.26864e-05
0.0165649 8.74861e-05 1.47003e-05
0.0164466 5.9296e-05 1.28977e-05
0.0163713 3.8414e-05 9.83338e-06
0.0163258 2.36385e-05 6.83954e-06
0.0162999 1.36664e-05 4.43876e-06
0.0162865 7.25153e-06 2.71601e-06
0.0162805 3.33074e-06 1.56989e-06
0.0162787 1.07436e-06 8.50825e-07
0.0162791 -1.22286e-07 4.22302e-07
0.0162804 -6.76437e-07 1.79874e-07
0.0162821 -8.62851e-07 5.10246e-08
0.0162837 -8.54724e-07 -1.15667e-08
0.0162851 -7.56264e-07 -3.73512e-08
0.0162862 -6.2676e-07 -4.39218e-08
0.0162871 -4.97441e-07 -4.13644e-08
0.0162878 -3.82776e-07 -3.51925e-08
0.0162883 -2.87763e-07 -2.82337e-08
0.0162887 -2.12446e-07 -2.17982e-08
0.0162889 -1.54592e-07 -1.63763e-08
0.0162891 -1.11186e-07 -1.20435e-08
0.0162893 -7.92246e-08 -8.69794e-09
0.0162894 -5.60746e-08 -6.18468e-09
0.0162894 -3.95856e-08 -4.3366e-09
0.0162895 -2.8079e-08 -2.95818e-09
0.0162895 -2.02933e-08 -1.73722e-09
0.0162896 -1.54597e-08 1.98207e-10
0.0162896 -1.47517e-08 3.54498e-09
0.0162896 -3.16202e-08 5.86157e-10
0.0162897 -4.7462e-08 -4.40602e-09
0.01 -1.3477e-07 -1.43302e-06
0.0100007 -0.00298534 -0.000599038
0.0147858 -0.00996699 -0.000794189
0.0241882 -0.0177568 -0.00123223
0.0386151 -0.0326226 -0.00333728
0.0593275 -0.0249394 -0.000814881
0.056552 -0.00276637 0.00318605
0.055987 0.00506544 0.00338913
0.0502109 0.0100315 0.0030078
0.0447531 0.0101648 0.00213055
0.0402685 0.00906685 0.00120081
0.0365767 0.00763882 0.000464738
0.033621 0.0061761 -5.28887e-05
0.0313524 0.00484624 -0.000360754
0.0296166 0.00373434 -0.000479907
0.0282625 0.002847 -0.000460056
0.0271903 0.00215021 -0.000362492
0.0263453 0.00160522 -0.000241634
0.0256954 0.00118095 -0.000134102
0.0252128 0.000853752 -5.63089e-05
0.0248684 0.000604642 -9.30592e-06
0.0246327 0.000417907 1.37057e-05
0.0244787 0.000280592 2.13438e-05
0.0243836 0.000182041 2.08264e-05
0.024329 0.000113376 1.69909e-05
0.024301 6.71445e-05 1.25282e-05
0.0242893 3.71877e-05 8.63992e-06
0.024287 1.85957e-05 5.67678e-06
0.0242894 7.62953e-06 3.59154e-06
0.0242939 1.57426e-06 2.20062e-06
0.0242988 -1.4542e-06 1.30859e-06
0.0243033 -2.70883e-06 7.54342e-07
0.0243072 -2.98928e-06 4.19561e-07
0.0243103 -2.78421e-06 2.22917e-07
0.0243128 -2.37781e-06 1.10883e-07
0.0243146 -1.92502e-06 4.93505e-08
0.024316 -1.50256e-06 1.71541e-08
0.0243169 -1.14205e-06 1.48189e-09
0.0243177 -8.50711e-07 -5.23054e-09
0.0243182 -6.23813e-07 -7.32906e-09
0.0243185 -4.51785e-07 -7.22897e-09
0.0243188 -3.24e-07 -6.21109e-09
0.024319 -2.30635e-07 -4.92822e-09
0.0243191 -1.63412e-07 -3.70514e-09
0.0243192 -1.15749e-07 -2.667e-09
0.0243192 -8.26865e-08 -1.74111e-09
0.0243193 -6.08259e-08 -4.94172e-10
0.0243193 -5.04295e-08 1.8609e-09
0.0243194 -5.56295e-08 5.02484e-09
0.0243194 -8.89606e-08 -4.13925e-09
0.0243195 -1.15162e-07 -1.49024e-08
0.0148 -9.44411e-07 -1.72213e-06
0.0148023 -0.00529914 -0.00112529
0.0204031 -0.0164523 -0.0024493
0.0276046 -0.0289099 -0.00394229
0.0322775 -0.0463384 -0.00577666
0.0307307 -0.0286011 -0.00142226
0.0269224 -1.21701e-05 0.00330637
0.0263599 0.00705036 0.00352514
0.0298473 0.0143669 0.00343879
0.0301951 0.0137552 0.00248363
0.0294061 0.0119499 0.00153258
0.0285855 0.0100951 0.000704326
0.0279719 0.00822915 0.000104428
0.0276679 0.00651199 -0.000256725
0.0275458 0.0050785 -0.000399431
0.0275003 0.00391294 -0.000389797
0.0274862 0.00296162 -0.000300815
0.0274933 0.00218819 -0.000189672
0.0275201 0.00157336 -9.12777e-05
0.0275629 0.00110054 -2.05569e-05
0.0276157 0.000748698 2.11992e-05
0.0276727 0.000494061 3.97456e-05
0.0277292 0.00031424 4.29854e-05
0.0277825 0.000190522 3.80579e-05
0.0278305 0.000108068 3.008e-05
0.027872 5.5276e-05 2.2039e-05
0.0279066 2.31573e-05 1.52859e-05
0.0279345 4.8949e-06 1.01675e-05
0.0279562 -4.49973e-06 6.539e-06
0.0279726 -8.52017e-06 4.08597e-06
0.0279848 -9.49888e-06 2.48654e-06
0.0279937 -8.91646e-06 1.47418e-06
0.028 -7.66169e-06 8.50029e-07
0.0280044 -6.23296e-06 4.74731e-07
0.0280075 -4.8841e-06 2.54783e-07
0.0280096 -3.72399e-06 1.29452e-07
0.0280111 -2.78118e-06 6.03605e-08
0.0280121 -2.04378e-06 2.38487e-08
0.0280127 -1.48279e-06 5.67856e-09
0.0280132 -1.06484e-06 -2.51398e-09
0.0280135 -7.58483e-07 -5.51381e-09
0.0280137 -5.36867e-07 -5.96714e-09
0.0280139 -3.78344e-07 -5.29367e-09
0.028014 -2.66184e-07 -4.242e-09
0.028014 -1.87882e-07 -3.11821e-09
0.0280141 -1.34785e-07 -1.93305e-09
0.0280141 -1.01689e-07 -2.24508e-10
0.0280141 -8.742e-08 1.9174e-09
0.0280142 -9.43123e-08 9.62537e-10
0.0280142 -1.17767e-07 -1.53242e-08
0.0280142 -1.32078e-07 -2.9607e-08
0.018 -1.90388e-06 -1.66914e-06
0.0180029 -0.00701444 -0.00187414
0.0207958 -0.0190549 -0.00492625
0.0207594 -0.0250873 -0.00634828
0.0161127 -0.0271027 -0.00763624
-1.58261e-06 -0.0140654 -0.00434106
9.56057e-05 2.56317e-05 9.13099e-07
-3.25834e-05 3.39065e-05 0.000655865
0.00655707 0.00405026 0.0014471
0.0133715 0.00916456 0.00142174
0.0167664 0.00992165 0.00101735
0.0185543 0.00892618 0.000486187
0.020264 0.00739188 3.79025e-06
0.0219624 0.0058192 -0.000269
0.0234822 0.00450523 -0.000347314
0.0247602 0.00342814 -0.000309219
0.0258077 0.00253124 -0.000222671
0.0266593 0.00179343 -0.00012999
0.0273466 0.00121239 -5.19797e-05
0.0278934 0.000780013 3.87277e-06
0.0283196 0.000474948 3.72058e-05
0.0286447 0.000268904 5.15514e-05
0.0288882 0.00013494 5.24277e-05
0.0290679 5.15385e-05 4.56318e-05
0.0291988 2.79988e-06 3.58786e-05
0.029293 -2.28117e-05 2.6201e-05
0.0293597 -3.36554e-05 1.80771e-05
0.0294062 -3.56914e-05 1.1916e-05
0.0294382 -3.3004e-05 7.55875e-06
0.0294597 -2.82286e-05 4.63318e-06
0.0294741 -2.29366e-05 2.74829e-06
0.0294835 -1.79679e-05 1.5758e-06
0.0294895 -1.36966e-05 8.69496e-07
0.0294934 -1.02235e-05 4.5729e-07
0.0294959 -7.50616e-06 2.24725e-07
0.0294974 -5.43925e-06 9.85884e-08
0.0294984 -3.90025e-06 3.35761e-08
0.029499 -2.77313e-06 2.48944e-09
0.0294994 -1.95835e-06 -1.05215e-08
0.0294996 -1.37548e-06 -1.44127e-08
0.0294998 -9.62031e-07 -1.40692e-08
0.0294999 -6.70878e-07 -1.20295e-08
0.0294999 -4.67215e-07 -9.53323e-09
0.0295 -3.25861e-07 -7.15436e-09
0.0295 -2.29045e-07 -5.03664e-09
0.0295 -1.64729e-07 -3.19856e-09
0.0295 -1.25215e-07 -1.49984e-09
0.0295 -1.04331e-07 -4.93219e-10
0.0295 -9.8225e-08 -6.70395e-09
0.0295 -9.09707e-08 -2.59235e-08
0.0295 -8.32356e-08 -3.87913e-08
0.0196 -2.76907e-06 -2.51679e-06
0.019601 -0.00592985 -0.00274394
0.0190536 -0.0132344 -0.00648582
0.0159293 -0.0162811 -0.00669704
0.010861 -0.0152686 -0.00669448
0.00170724 -0.00629478 -0.00504724
7.11454e-05 -6.53186e-05 -0.0013055
3.27352e-05 -3.27352e-05 -4.1401e-08
-3.19899e-05 3.31769e-05 0.000263959
0.00387365 0.0027043 0.000565702
0.00883857 0.00629486 0.000498621
0.0117403 0.00652917 0.000149003
0.0149836 0.00509319 -0.000235765
0.0181327 0.00373899 -0.000405145
0.0208291 0.00274384 -0.000404193
0.0230122 0.00197283 -0.000324062
0.0247434 0.00133271 -0.000225617
0.0261046 0.000806923 -0.000137264
0.027163 0.000407342 -6.72062e-05
0.0279696 0.000135102 -1.59792e-05
0.028568 -2.8908e-05 1.73363e-05
0.028999 -0.000114165 3.45638e-05
0.029301 -0.000148591 3.91618e-05
0.0295076 -0.000153026 3.57092e-05
0.0296459 -0.000141231 2.85479e-05
0.0297365 -0.000121852 2.07792e-05
0.0297946 -0.000100208 1.40635e-05
0.0298311 -7.94213e-05 8.96285e-06
0.0298533 -6.11206e-05 5.41564e-06
0.0298666 -4.59315e-05 3.10765e-06
0.0298742 -3.38594e-05 1.68615e-06
0.0298784 -2.45759e-05 8.53049e-07
0.0298806 -1.76172e-05 3.8857e-07
0.0298817 -1.25042e-05 1.43943e-07
0.0298821 -8.80576e-06 2.44753e-08
0.0298823 -6.16302e-06 -2.71689e-08
0.0298823 -4.29263e-06 -4.41844e-08
0.0298822 -2.97869e-06 -4.49455e-08
0.0298821 -2.06102e-06 -3.91236e-08
0.029882 -1.42307e-06 -3.14935e-08
0.029882 -9.81245e-07 -2.41918e-08
0.0298819 -6.76299e-07 -1.79921e-08
0.0298819 -4.66617e-07 -1.30237e-08
0.0298818 -3.2324e-07 -9.19695e-09
0.0298818 -2.26207e-07 -6.34155e-09
0.0298818 -1.61487e-07 -4.39675e-09
0.0298818 -1.18747e-07 -3.47323e-09
0.0298817 -8.8271e-08 -3.68726e-09
0.0298817 -6.16449e-08 -1.23395e-08
0.0298817 -2.19672e-08 -2.92792e-08
0.0298816 4.58002e-09 -3.79749e-08
0.0196 -1.33508e-06 -3.51597e-06
0.0195999 -0.00369987 -0.00312812
0.0187538 -0.00813045 -0.00652704
0.0174989 -0.00817555 -0.006057
0.0131622 -0.00435291 -0.00554447
0.00906195 0.00252838 -0.00533815
0.00613834 0.00313765 -0.00312642
7.13197e-05 -5.93175e-05 -0.000678339
2.73276e-05 -2.73276e-05 -1.25051e-07
-3.14642e-05 3.25155e-05 9.71142e-05
0.00265755 0.00185822 0.000368031
0.00689972 0.00285663 0.000268395
0.0121369 0.00133576 -0.000167042
0.0167551 0.000414111 -0.00036633
0.0203498 4.92771e-05 -0.000376627
0.0230366 -0.000139427 -0.00030408
0.0250279 -0.000308255 -0.000217613
0.0264962 -0.00046132 -0.000145296
0.027561 -0.000560964 -9.03592e-05
0.028309 -0.000588494 -4.89859e-05
0.0288118 -0.000554495 -1.90077e-05
0.0291327 -0.000483827 9.69127e-08
0.0293263 -0.000399844 9.5739e-06
0.0294357 -0.000317769 1.20642e-05
0.0294928 -0.000245164 1.06552e-05
0.029519 -0.000184671 7.82022e-06
0.0295282 -0.000136322 5.01875e-06
0.0295287 -9.89125e-05 2.8524e-06
0.0295253 -7.0735e-05 1.40851e-06
0.0295207 -4.99855e-05 5.52364e-07
0.0295162 -3.49894e-05 1.00199e-07
0.0295122 -2.43139e-05 -1.05139e-07
0.029509 -1.68038e-05 -1.74524e-07
0.0295066 -1.15679e-05 -1.77255e-07
0.0295047 -7.94161e-06 -1.52615e-07
0.0295034 -5.44202e-06 -1.20791e-07
0.0295024 -3.72469e-06 -9.091e-08
0.0295017 -2.54741e-06 -6.62372e-08
0.0295012 -1.74155e-06 -4.72255e-08
0.0295008 -1.19053e-06 -3.31776e-08
0.0295006 -8.14114e-07 -2.30686e-08
0.0295004 -5.5728e-07 -1.59005e-08
0.0295003 -3.82338e-07 -1.08623e-08
0.0295002 -2.63386e-07 -7.40762e-09
0.0295002 -1.82329e-07 -5.20408e-09
0.0295001 -1.25923e-07 -4.06921e-09
0.0295001 -8.38726e-08 -4.0379e-09
0.0295 -4.6789e-08 -4.6666e-09
0.0295 -4.61416e-09 -1.18164e-08
0.0294999 5.49721e-08 -2.34209e-08
0.0294999 9.08963e-08 -2.8225e-08
0.018 -8.48974e-07 -3.51056e-06
0.0180009 -0.0020169 -0.00305118
0.0183124 -0.00390351 -0.00616602
0.0183624 -0.00271342 -0.00528982
0.0173383 0.00057572 -0.00419143
0.0170532 0.0070348 -0.00396567
0.0177868 0.0125605 -0.00301439
0.0109199 0.00692741 -0.0015091
7.27597e-05 -4.58752e-05 -0.000440191
-2.46352e-05 -5.34573e-05 5.47274e-07
7.77007e-06 -0.00074859 0.000752054
0.00822026 -0.00296674 0.00109208
0.0154649 -0.00452364 0.000446918
0.0203985 -0.00412052 0.000116877
0.0235459 -0.00317583 -1.23668e-05
0.0255481 -0.00238713 -5.55329e-05
0.0268318 -0.00186852 -7.05666e-05
0.0276407 -0.0015282 -7.79952e-05
0.0281179 -0.00126457 -7.90265e-05
0.0283611 -0.00102629 -7.13422e-05
0.0284477 -0.000805255 -5.67284e-05
0.0284405 -0.0006106 -4.01221e-05
0.0283862 -0.000450175 -2.58271e-05
0.0283158 -0.00032499 -1.56224e-05
0.0282467 -0.000231007 -9.22548e-06
0.0281871 -0.000162276 -5.52487e-06
0.0281394 -0.000112937 -3.44409e-06
0.0281032 -7.80233e-05 -2.24573e-06
0.0280766 -5.36013e-05 -1.51191e-06
0.0280575 -3.66771e-05 -1.03145e-06
0.0280441 -2.50328e-05 -7.02337e-07
0.0280347 -1.70616e-05 -4.7302e-07
0.0280282 -1.16223e-05 -3.13818e-07
0.0280238 -7.91704e-06 -2.0489e-07
0.0280208 -5.39447e-06 -1.31744e-07
0.0280187 -3.67695e-06 -8.35604e-08
0.0280172 -2.50707e-06 -5.23836e-08
0.0280163 -1.70982e-06 -3.25274e-08
0.0280156 -1.1663e-06 -2.00489e-08
0.0280152 -7.95731e-07 -1.2291e-08
0.0280148 -5.43128e-07 -7.50711e-09
0.0280146 -3.70993e-07 -4.57127e-09
0.0280145 -2.5357e-07 -2.79809e-09
0.0280144 -1.72911e-07 -1.81941e-09
0.0280143 -1.16186e-07 -1.43496e-09
0.0280142 -7.38172e-08 -1.48686e-09
0.0280142 -3.81051e-08 -1.92559e-09
0.0280142 -2.13166e-09 -2.22758e-09
0.0280141 4.31078e-08 -5.52716e-09
0.0280141 1.02713e-07 -1.17632e-08
0.0280141 1.35987e-07 -1.46802e-08
0.0148 -4.76012e-07 -3.11014e-06
0.0148015 -0.00104118 -0.0028318
0.0162284 -0.00166322 -0.00543083
0.0177846 -6.09593e-05 -0.00429226
0.0190939 0.00313588 -0.00306153
0.0208168 0.00732504 -0.00283787
0.0246268 0.0129742 -0.00241048
0.0279197 0.0195037 -0.00152405
0.0229636 0.0112803 -0.000351701
0.0234212 2.61761e-11 0.000621476
0.0265697 -0.00672897 0.00156093
0.0299531 -0.0131447 0.00211665
0.0307105 -0.0110614 0.00164143
0.03009 -0.00770186 0.00113391
0.029094 -0.00503773 0.000675962
0.0281458 -0.00330584 0.000326009
0.0273514 -0.00224594 9.67197e-05
0.0267023 -0.00157672 -3.27752e-05
0.0261693 -0.00111825 -9.03474e-05
0.0257307 -0.000783514 -0.000101177
0.0253744 -0.00053715 -8.68727e-05
0.0250919 -0.000361474 -6.39351e-05
0.0248743 -0.000241171 -4.225e-05
0.0247113 -0.000161166 -2.57813e-05
0.0245924 -0.000108566 -1.48149e-05
0.0245075 -7.3853e-05 -8.12784e-06
0.024448 -5.06678e-05 -4.29118e-06
0.0244068 -3.49705e-05 -2.18245e-06
0.0243786 -2.42227e-05 -1.05997e-06
0.0243595 -1.68064e-05 -4.78886e-07
0.0243465 -1.16651e-05 -1.87318e-07
0.0243378 -8.0923e-06 -4.74719e-08
0.0243319 -5.60754e-06 1.45025e-08
0.0243279 -3.87989e-06 3.7637e-08
0.0243251 -2.67981e-06 4.2294e-08
0.0243233 -1.84742e-06 3.89083e-08
0.0243221 -1.2711e-06 3.26741e-08
0.0243212 -8.72896e-07 2.60476e-08
0.0243206 -5.98366e-07 2.00788e-08
0.0243202 -4.09518e-07 1.51166e-08
0.0243199 -2.79837e-07 1.11794e-08
0.0243198 -1.9077e-07 8.15074e-09
0.0243196 -1.29243e-07 5.86139e-09
0.0243195 -8.59097e-08 4.13465e-09
0.0243195 -5.39058e-08 2.84329e-09
0.0243194 -2.79396e-08 1.93309e-09
0.0243194 -3.52524e-09 1.43037e-09
0.0243194 2.30437e-08 1.56361e-09
0.0243194 5.60854e-08 1.29904e-09
0.0243194 9.51044e-08 -2.4039e-09
0.0243195 1.15304e-07 -5.57003e-09
0.01 -9.1077e-07 -2.81845e-06
0.0100008 -0.00063775 -0.00230615
0.0113184 -0.000721759 -0.00414606
0.013172 0.00053793 -0.00290662
0.0155896 0.00250387 -0.00180167
0.0194695 0.00555098 -0.00180861
0.025378 0.00836111 -0.00236218
0.0344961 0.0101202 -0.00209551
0.0461076 0.00481694 -0.000515963