# vtk DataFile Version 2.0
Tobias Weinzierl: CPU, Manycore and Cluster Computing
ASCII

DATASET STRUCTURED_POINTS
DIMENSIONS  51 11 6

ORIGIN 0 0 0 

SPACING 0.1 0.1 0.1 

POINT_DATA 3366

VECTORS velocity float
0 0 0
-5.17302e-13 0 0
7.15629e-10 0 0
1.65769e-09 0 0
-3.67247e-09 0 0
4.11794e-09 0 0
5.67201e-09 0 0
5.08218e-09 0 0
4.81186e-09 0 0
4.57118e-09 0 0
3.84947e-09 0 0
2.95633e-09 0 0
2.05258e-09 0 0
6.25948e-10 0 0
-1.57929e-09 0 0
-3.89355e-09 0 0
-5.49394e-09 0 0
-6.25877e-09 0 0
-6.66251e-09 0 0
-7.19144e-09 0 0
-8.01917e-09 0 0
-9.05195e-09 0 0
-1.01053e-08 0 0
-1.10314e-08 0 0
-1.17596e-08 0 0
-1.22836e-08 0 0
-1.2633e-08 0 0
-1.28494e-08 0 0
-1.29726e-08 0 0
-1.3035e-08 0 0
-1.30602e-08 0 0
-1.30645e-08 0 0
-1.3058e-08 0 0
-1.30472e-08 0 0
-1.30356e-08 0 0
-1.30248e-08 0 0
-1.30157e-08 0 0
-1.30084e-08 0 0
-1.30027e-08 0 0
-1.29984e-08 0 0
-1.29952e-08 0 0
-1.29929e-08 0 0
-1.29911e-08 0 0
-1.29899e-08 0 0
-1.2989e-08 0 0
-1.29885e-08 0 0
-1.29883e-08 0 0
-1.29883e-08 0 0
-1.29884e-08 0 0
-1.2989e-08 0 0
0.0019369 0 0
0 3.79874e-07 0
-1.37702e-12 -9.19633e-10 0
1.05898e-09 -2.83385e-09 0
4.08407e-09 -9.03736e-10 0
-1.35518e-09 -4.7005e-09 0
1.23504e-08 -6.3582e-09 0
1.4613e-08 7.36018e-11 0
1.3519e-08 8.19683e-10 0
1.36485e-08 -1.78925e-10 0
1.39597e-08 -7.00639e-10 0
1.30633e-08 -1.07798e-09 0
1.11461e-08 -9.66253e-10 0
8.3547e-09 6.01723e-10 0
4.35311e-09 3.01161e-09 0
-5.35858e-10 4.3834e-09 0
-4.95172e-09 3.8818e-09 0
-7.92403e-09 2.38929e-09 0
-9.82097e-09 1.17087e-09 0
-1.17092e-08 7.37969e-10 0
-1.43046e-08 8.62588e-10 0
-1.76146e-08 1.11874e-09 0
-2.11976e-08 1.24259e-09 0
-2.45499e-08 1.17965e-09 0
-2.73377e-08 9.8921e-10 0
-2.94436e-08 7.52166e-10 0
-3.09097e-08 5.26887e-10 0
-3.18565e-08 3.4197e-10 0
-3.24221e-08 2.04376e-10 0
-3.27293e-08 1.09537e-10 0
-3.28727e-08 4.85601e-11 0
-3.29197e-08 1.2193e-11 0
-3.29149e-08 -7.45907e-12 0
-3.28857e-08 -1.64551e-11 0
-3.28483e-08 -1.9119e-11 0
-3.28114e-08 -1.83532e-11 0
-3.27788e-08 -1.59925e-11 0
-3.27519e-08 -1.31206e-11 0
-3.27308e-08 -1.0322e-11 0
-3.27147e-08 -7.86899e-12 0
-3.27026e-08 -5.85098e-12 0
-3.26938e-08 -4.25917e-12 0
-3.26873e-08 -3.03881e-12 0
-3.26826e-08 -2.12026e-12 0
-3.26792e-08 -1.43572e-12 0
-3.26769e-08 -9.23562e-13 0
-3.26756e-08 -5.299e-13 0
-3.2675e-08 -2.02192e-13 0
-3.26751e-08 1.37119e-13 0
-3.26756e-08 7.34832e-13 0
-3.26774e-08 2.32108e-12 0
0.00556554 -2.38575e-08 0
0 -2.01056e-08 0
-4.95643e-13 -1.00222e-09 0
1.84118e-09 -5.2197e-09 0
8.39724e-09 -9.10356e-09 0
1.15423e-08 -1.66604e-08 0
2.17983e-08 -1.34187e-08 0
1.82e-08 -1.21692e-09 0
1.78162e-08 -7.32161e-10 0
1.84043e-08 -4.55203e-09 0
1.84057e-08 -8.92949e-09 0
1.49194e-08 -1.21287e-08 0
1.05166e-08 -1.16423e-08 0
6.86951e-09 -6.7506e-09 0
2.6902e-09 -3.57123e-10 0
-2.16529e-09 4.53014e-09 0
-6.44495e-09 7.36486e-09 0
-9.2731e-09 8.8521e-09 0
-1.10186e-08 9.4756e-09 0
-1.26686e-08 9.40784e-09 0
-1.49412e-08 8.77141e-09 0
-1.79349e-08 7.70936e-09 0
-2.12775e-08 6.3852e-09 0
-2.44626e-08 4.97756e-09 0
-2.71144e-08 3.6505e-09 0
-2.90805e-08 2.51757e-09 0
-3.03912e-08 1.62804e-09 0
-3.11742e-08 9.78206e-10 0
-3.15808e-08 5.33344e-10 0
-3.1745e-08 2.47532e-10 0
-3.1768e-08 7.63056e-11 0
-3.17185e-08 -1.74077e-11 0
-3.16395e-08 -6.17618e-11 0
-3.15553e-08 -7.67133e-11 0
-3.14781e-08 -7.55932e-11 0
-3.1413e-08 -6.6806e-11 0
-3.13609e-08 -5.53187e-11 0
-3.13206e-08 -4.38307e-11 0
-3.12904e-08 -3.36273e-11 0
-3.12682e-08 -2.51659e-11 0
-3.1252e-08 -1.84583e-11 0
-3.12405e-08 -1.33058e-11 0
-3.12322e-08 -9.43391e-12 0
-3.12263e-08 -6.56433e-12 0
-3.12221e-08 -4.44945e-12 0
-3.12194e-08 -2.87787e-12 0
-3.12178e-08 -1.66003e-12 0
-3.12172e-08 -5.83344e-13 0
-3.12174e-08 7.07481e-13 0
-3.12182e-08 2.62302e-12 0
-3.12201e-08 5.46754e-12 0
0.00799302 -5.54933e-08 0
0 -6.29304e-07 0
2.12772e-12 -2.61483e-09 0
3.36641e-09 -9.26518e-09 0
1.1421e-08 -1.76079e-08 0
1.32017e-08 -2.44805e-08 0
1.35657e-08 -1.35265e-08 0
9.26177e-09 -3.59493e-12 0
9.37967e-09 -1.49735e-09 0
6.43342e-09 -7.96446e-09 0
2.9887e-09 -1.66227e-08 0
-2.26902e-10 -2.22519e-08 0
-3.25947e-09 -2.36804e-08 0
-5.1501e-09 -1.96786e-08 0
-8.94728e-09 -1.0946e-08 0
-1.45207e-08 -4.14364e-11 0
-1.96852e-08 1.00519e-08 0
-2.25136e-08 1.65616e-08 0
-2.24994e-08 1.85554e-08 0
-2.04809e-08 1.71889e-08 0
-1.78834e-08 1.42823e-08 0
-1.5832e-08 1.11099e-08 0
-1.47171e-08 8.22494e-09 0
-1.43455e-08 5.78668e-09 0
-1.43298e-08 3.82445e-09 0
-1.43657e-08 2.3273e-09 0
-1.43115e-08 1.25414e-09 0
-1.41475e-08 5.37725e-10 0
-1.39103e-08 9.785e-11 0
-1.36468e-08 -1.43841e-10 0
-1.33933e-08 -2.53974e-10 0
-1.31706e-08 -2.83657e-10 0
-1.29869e-08 -2.68971e-10 0
-1.2842e-08 -2.33537e-10 0
-1.27316e-08 -1.91641e-10 0
-1.26497e-08 -1.51124e-10 0
-1.25901e-08 -1.15674e-10 0
-1.25475e-08 -8.6511e-11 0
-1.25174e-08 -6.35087e-11 0
-1.24964e-08 -4.59134e-11 0
-1.24819e-08 -3.27599e-11 0
-1.24717e-08 -2.30946e-11 0
-1.24647e-08 -1.60778e-11 0
-1.24598e-08 -1.10164e-11 0
-1.24565e-08 -7.35729e-12 0
-1.24543e-08 -4.6584e-12 0
-1.24532e-08 -2.53318e-12 0
-1.24529e-08 -6.05997e-13 0
-1.2453e-08 1.44838e-12 0
-1.24531e-08 3.75046e-12 0
-1.24537e-08 5.97286e-12 0
0.00901738 -5.95537e-08 0
0 -1.23236e-06 0
1.06799e-12 -5.10912e-09 0
1.28202e-09 -1.42072e-08 0
4.33433e-09 -1.87809e-08 0
2.97982e-09 -1.52246e-08 0
-5.68377e-13 -5.54172e-09 0
-1.02963e-11 -1.47395e-11 0
1.50392e-11 -1.60211e-11 0
-3.13399e-09 -5.99915e-09 0
-1.47127e-08 -1.95934e-08 0
-2.02393e-08 -3.14895e-08 0
-1.92908e-08 -3.58896e-08 0
-2.01482e-08 -3.02764e-08 0
-2.4053e-08 -1.5957e-08 0
-2.90148e-08 1.1349e-09 0
-3.29774e-08 1.52316e-08 0
-3.44107e-08 2.24253e-08 0
-3.23631e-08 2.25291e-08 0
-2.70847e-08 1.83413e-08 0
-2.01478e-08 1.30199e-08 0
-1.34415e-08 8.37189e-09 0
-8.11898e-09 4.88161e-09 0
-4.386e-09 2.42546e-09 0
-1.90589e-09 7.70291e-10 0
-2.41787e-10 -2.74239e-10 0
9.30285e-10 -8.58346e-10 0
1.79669e-09 -1.11199e-09 0
2.45271e-09 -1.14806e-09 0
2.94914e-09 -1.05762e-09 0
3.31909e-09 -9.07143e-10 0
3.58905e-09 -7.40174e-10 0
3.78182e-09 -5.8191e-10 0
3.91675e-09 -4.4453e-10 0
4.00957e-09 -3.31941e-10 0
4.07251e-09 -2.43363e-10 0
4.11467e-09 -1.75772e-10 0
4.14264e-09 -1.25397e-10 0
4.16105e-09 -8.85419e-11 0
4.17312e-09 -6.19685e-11 0
4.18103e-09 -4.30257e-11 0
4.18624e-09 -2.96353e-11 0
4.18974e-09 -2.02167e-11 0
4.19213e-09 -1.35923e-11 0
4.19374e-09 -8.89054e-12 0
4.19475e-09 -5.45504e-12 0
4.19525e-09 -2.79751e-12 0
4.19544e-09 -6.04549e-13 0
4.19578e-09 1.22942e-12 0
4.19676e-09 2.67516e-12 0
4.19729e-09 3.66801e-12 0
0.00939848 -3.32289e-08 0
0 -1.11598e-06 0
-2.48481e-12 -5.44846e-09 0
-2.10491e-09 -1.21783e-08 0
-2.3086e-09 -1.45529e-08 0
-4.769e-09 -1.43555e-08 0
-3.74459e-09 -6.53278e-09 0
-1.38386e-11 1.26268e-11 0
2.33658e-12 -2.33658e-12 0
1.43746e-11 -1.56812e-11 0
-8.68425e-09 -1.06268e-08 0
-2.65991e-08 -3.17064e-08 0
-2.98193e-08 -4.18506e-08 0
-3.19877e-08 -3.42888e-08 0
-3.39603e-08 -1.70651e-08 0
-3.46846e-08 2.1997e-09 0
-3.45235e-08 1.71531e-08 0
-3.37068e-08 2.37034e-08 0
-3.11044e-08 2.19972e-08 0
-2.56202e-08 1.56441e-08 0
-1.78797e-08 8.61953e-09 0
-9.77798e-09 3.11201e-09 0
-2.95363e-09 -4.51128e-10 0
1.97702e-09 -2.44432e-09 0
5.20061e-09 -3.35665e-09 0
7.19708e-09 -3.57179e-09 0
8.41052e-09 -3.36555e-09 0
9.14904e-09 -2.93708e-09 0
9.60093e-09 -2.42599e-09 0
9.87693e-09 -1.92163e-09 0
1.00432e-08 -1.47297e-09 0
1.01408e-08 -1.1e-09 0
1.01959e-08 -8.04525e-10 0
1.02251e-08 -5.78664e-10 0
1.02393e-08 -4.10665e-10 0
1.02451e-08 -2.88315e-10 0
1.02464e-08 -2.00666e-10 0
1.02455e-08 -1.3868e-10 0
1.02438e-08 -9.52801e-11 0
1.0242e-08 -6.51276e-11 0
1.02403e-08 -4.42967e-11 0
1.0239e-08 -2.99561e-11 0
1.02381e-08 -2.00913e-11 0
1.02375e-08 -1.32791e-11 0
1.02371e-08 -8.52252e-12 0
1.0237e-08 -5.14673e-12 0
1.02369e-08 -2.73829e-12 0
1.0237e-08 -1.07682e-12 0
1.02376e-08 -5.13451e-14 0
1.02388e-08 3.48283e-13 0
1.02394e-08 2.55419e-13 0
0.00949094 8.19868e-09 0
0 -7.69587e-07 0
-1.08305e-12 -3.22748e-09 0
-2.18207e-09 -8.21639e-09 0
-1.93984e-09 -1.08013e-08 0
-6.60205e-09 -1.10268e-08 0
-9.3301e-09 -7.32448e-09 0
-4.27034e-09 -2.11023e-09 0
-1.23908e-11 1.28721e-11 0
1.44259e-12 -1.44259e-12 0
1.2485e-11 -1.58344e-11 0
-1.22923e-08 -1.84621e-08 0
-2.52638e-08 -3.8263e-08 0
-3.2384e-08 -3.19943e-08 0
-3.46803e-08 -1.45556e-08 0
-3.28226e-08 3.73665e-09 0
-2.85311e-08 1.69002e-08 0
-2.43749e-08 2.17139e-08 0
-2.08638e-08 1.86437e-08 0
-1.66212e-08 1.13078e-08 0
-1.10131e-08 3.74904e-09 0
-5.01164e-09 -1.78227e-09 0
1.11764e-11 -4.91732e-09 0
3.37687e-09 -6.18506e-09 0
5.18596e-09 -6.25205e-09 0
5.90085e-09 -5.65015e-09 0
5.99113e-09 -4.74973e-09 0
5.79123e-09 -3.78896e-09 0
5.49602e-09 -2.90427e-09 0
5.20213e-09 -2.15828e-09 0
4.94899e-09 -1.56577e-09 0
4.7467e-09 -1.11497e-09 0
4.5922e-09 -7.82672e-10 0
4.47764e-09 -5.43448e-10 0
4.39443e-09 -3.74229e-10 0
4.33485e-09 -2.56084e-10 0
4.29264e-09 -1.74392e-10 0
4.26296e-09 -1.18305e-10 0
4.24221e-09 -7.99963e-11 0
4.2278e-09 -5.39246e-11 0
4.21786e-09 -3.62213e-11 0
4.2111e-09 -2.42091e-11 0
4.2066e-09 -1.6049e-11 0
4.20372e-09 -1.04927e-11 0
4.20195e-09 -6.71158e-12 0
4.20093e-09 -4.17222e-12 0
4.20037e-09 -2.54013e-12 0
4.2001e-09 -1.61701e-12 0
4.20027e-09 -1.32152e-12 0
4.201e-09 -1.77742e-12 0
4.20114e-09 -3.00033e-12 0
0.00939846 4.65145e-08 0
0 -5.39495e-07 0
1.4304e-12 -2.18714e-09 0
-8.22553e-10 -5.78808e-09 0
-1.41609e-09 -8.16856e-09 0
-5.76233e-09 -7.92034e-09 0
-1.17914e-08 -4.05502e-09 0
-1.22448e-08 -3.55403e-10 0
-7.2269e-09 3.47514e-10 0
-1.48768e-11 1.11318e-11 0
1.22397e-11 8.95895e-12 0
2.19905e-12 -1.02422e-08 0
-1.55017e-08 -2.31807e-08 0
-3.01364e-08 -1.91967e-08 0
-3.70632e-08 -4.52088e-09 0
-3.46832e-08 8.60003e-09 0
-2.54339e-08 1.53115e-08 0
-1.55612e-08 1.5448e-08 0
-9.41309e-09 1.08194e-08 0
-6.69324e-09 4.34875e-09 0
-5.30824e-09 -1.27933e-09 0
-4.25634e-09 -4.81431e-09 0
-3.69773e-09 -6.33488e-09 0
-3.91444e-09 -6.46831e-09 0
-4.83094e-09 -5.83392e-09 0
-6.13378e-09 -4.87172e-09 0
-7.50592e-09 -3.85299e-09 0
-8.74242e-09 -2.92558e-09 0
-9.75533e-09 -2.15341e-09 0
-1.0535e-08 -1.54817e-09 0
-1.11105e-08 -1.09368e-09 0
-1.15232e-08 -7.62747e-10 0
-1.18136e-08 -5.2703e-10 0
-1.20151e-08 -3.61725e-10 0
-1.21538e-08 -2.4705e-10 0
-1.22487e-08 -1.68096e-10 0
-1.23134e-08 -1.14021e-10 0
-1.23574e-08 -7.71248e-11 0
-1.23873e-08 -5.20196e-11 0
-1.24076e-08 -3.49729e-11 0
-1.24213e-08 -2.34154e-11 0
-1.24304e-08 -1.55886e-11 0
-1.24365e-08 -1.02992e-11 0
-1.24403e-08 -6.74524e-12 0
-1.24427e-08 -4.39189e-12 0
-1.24441e-08 -2.8897e-12 0
-1.24451e-08 -2.0263e-12 0
-1.24459e-08 -1.70477e-12 0
-1.24463e-08 -1.95882e-12 0
-1.24463e-08 -3.057e-12 0
-1.2447e-08 -5.18136e-12 0
0.00901736 6.47143e-08 0
0 -4.57529e-07 0
1.76034e-12 -1.14122e-09 0
2.06859e-11 -3.21714e-09 0
-1.64454e-09 -4.91019e-09 0
-7.49885e-09 -5.11851e-09 0
-1.5312e-08 -1.27863e-09 0
-1.80646e-08 2.82323e-09 0
-1.65624e-08 -2.31026e-09 0
-1.06608e-08 -4.12822e-09 0
-8.75401e-09 -3.6335e-14 0
-8.45522e-09 -4.93624e-09 0
-2.13352e-08 -9.10338e-09 0
-3.7314e-08 -3.40558e-09 0
-4.3236e-08 5.95406e-09 0
-3.5733e-08 1.14255e-08 0
-2.06699e-08 1.07014e-08 0
-8.04521e-09 6.02021e-09 0
-3.608e-09 5.3276e-10 0
-5.88642e-09 -3.42337e-09 0
-1.05317e-08 -5.05898e-09 0
-1.47655e-08 -4.95762e-09 0
-1.8005e-08 -4.11652e-09 0
-2.05749e-08 -3.20516e-09 0
-2.27781e-08 -2.46132e-09 0
-2.47032e-08 -1.89393e-09 0
-2.63329e-08 -1.45567e-09 0
-2.76479e-08 -1.10923e-09 0
-2.86622e-08 -8.33921e-10 0
-2.94165e-08 -6.17655e-10 0
-2.99624e-08 -4.50993e-10 0
-3.03496e-08 -3.25124e-10 0
-3.06205e-08 -2.31789e-10 0
-3.08081e-08 -1.63654e-10 0
-3.09372e-08 -1.14566e-10 0
-3.10257e-08 -7.95924e-11 0
-3.10861e-08 -5.491e-11 0
-3.11273e-08 -3.76337e-11 0
-3.11553e-08 -2.56284e-11 0
-3.11743e-08 -1.73399e-11 0
-3.11871e-08 -1.16522e-11 0
-3.11956e-08 -7.7742e-12 0
-3.12012e-08 -5.15229e-12 0
-3.12047e-08 -3.40428e-12 0
-3.1207e-08 -2.27287e-12 0
-3.12084e-08 -1.59713e-12 0
-3.12096e-08 -1.2949e-12 0
-3.12106e-08 -1.3565e-12 0
-3.12115e-08 -1.85159e-12 0
-3.12124e-08 -2.99443e-12 0
-3.12144e-08 -4.98191e-12 0
0.00799302 5.23244e-08 0
0 -4.71771e-07 0
3.30869e-12 -1.62038e-10 0
4.96103e-10 -6.99461e-10 0
-1.90709e-09 -1.37786e-09 0
-8.70235e-09 -1.60287e-09 0
-1.74939e-08 -1.11626e-09 0
-2.11912e-08 6.33016e-10 0
-1.98129e-08 -4.3733e-10 0
-2.29706e-08 -2.10901e-09 0
-2.126e-08 -3.88947e-10 0
-1.92311e-08 1.53101e-09 0
-2.35593e-08 3.9032e-09 0
-2.83281e-08 5.62416e-09 0
-2.72285e-08 5.39449e-09 0
-1.86446e-08 3.79901e-09 0
-7.74322e-09 1.21982e-09 0
-1.78191e-09 -1.62229e-09 0
-3.51081e-09 -3.48642e-09 0
-1.00098e-08 -3.70331e-09 0
-1.69449e-08 -2.74686e-09 0
-2.20408e-08 -1.54513e-09 0
-2.5178e-08 -6.81376e-10 0
-2.70596e-08 -2.51405e-10 0
-2.83105e-08 -1.11894e-10 0
-2.92623e-08 -1.02134e-10 0
-3.00408e-08 -1.24134e-10 0
-3.06817e-08 -1.37866e-10 0
-3.11969e-08 -1.35389e-10 0
-3.15984e-08 -1.20944e-10 0
-3.19024e-08 -1.00874e-10 0
-3.21273e-08 -8.00166e-11 0
-3.22904e-08 -6.1136e-11 0
-3.2407e-08 -4.53892e-11 0
-3.24893e-08 -3.29486e-11 0
-3.25468e-08 -2.34889e-11 0
-3.25867e-08 -1.64962e-11 0
-3.26143e-08 -1.1438e-11 0
-3.26332e-08 -7.84164e-12 0
-3.2646e-08 -5.32063e-12 0
-3.26547e-08 -3.57505e-12 0
-3.26605e-08 -2.38068e-12 0
-3.26642e-08 -1.57546e-12 0
-3.26665e-08 -1.04626e-12 0
-3.2668e-08 -7.18109e-13 0
-3.2669e-08 -5.48401e-13 0
-3.26699e-08 -5.20055e-13 0
-3.26709e-08 -6.40792e-13 0
-3.26721e-08 -9.25722e-13 0
-3.26735e-08 -1.38023e-12 0
-3.26761e-08 -2.13476e-12 0
0.00556557 1.91858e-08 0
0 0 0
2.27265e-12 0 0
3.16599e-10 0 0
-9.31571e-10 0 0
-4.13587e-09 0 0
-8.38723e-09 0 0
-1.11019e-08 0 0
-1.04774e-08 0 0
-1.2312e-08 0 0
-1.25062e-08 0 0
-1.07736e-08 0 0
-8.57689e-09 0 0
-6.32339e-09 0 0
-4.19303e-09 0 0
-1.754e-09 0 0
1.79292e-10 0 0
1.1039e-10 0 0
-2.23638e-09 0 0
-5.58983e-09 0 0
-8.49568e-09 0 0
-1.03491e-08 0 0
-1.13019e-08 0 0
-1.17406e-08 0 0
-1.19643e-08 0 0
-1.21241e-08 0 0
-1.22713e-08 0 0
-1.2412e-08 0 0
-1.25401e-08 0 0
-1.26496e-08 0 0
-1.27384e-08 0 0
-1.28075e-08 0 0
-1.28595e-08 0 0
-1.28976e-08 0 0
-1.29251e-08 0 0
-1.29445e-08 0 0
-1.29582e-08 0 0
-1.29676e-08 0 0
-1.29741e-08 0 0
-1.29786e-08 0 0
-1.29815e-08 0 0
-1.29835e-08 0 0
-1.29848e-08 0 0
-1.29855e-08 0 0
-1.2986e-08 0 0
-1.29863e-08 0 0
-1.29867e-08 0 0
-1.29871e-08 0 0
-1.29877e-08 0 0
-1.29884e-08 0 0
-1.29896e-08 0 0
0.00193692 0 0
0 0 5.27293e-07
-1.72913e-12 0 2.04228e-10
2.50025e-10 0 1.17812e-09
3.86984e-09 0 5.29523e-09
-1.30115e-08 0 2.24124e-09
6.59021e-09 0 -2.98639e-09
1.23316e-08 0 -1.03598e-09
1.22686e-08 0 4.35895e-11
1.20385e-08 0 6.9329e-10
1.28302e-08 0 1.66645e-09
1.47478e-08 0 2.69608e-09
1.76603e-08 0 2.76616e-09
2.0233e-08 0 1.7314e-09
2.00452e-08 0 6.22804e-10
1.5743e-08 0 1.3856e-10
8.75412e-09 0 3.51399e-11
1.66514e-09 0 -2.2131e-11
-4.17896e-09 0 -8.04457e-13
-9.03198e-09 0 1.95748e-10
-1.3603e-08 0 4.94732e-10
-1.8183e-08 0 7.42207e-10
-2.25871e-08 0 8.4404e-10
-2.64757e-08 0 8.00551e-10
-2.96137e-08 0 6.6615e-10
-3.19473e-08 0 5.01407e-10
-3.35609e-08 0 3.48025e-10
-3.46035e-08 0 2.25273e-10
-3.52316e-08 0 1.36512e-10
-3.55793e-08 0 7.70485e-11
-3.57489e-08 0 3.96804e-11
-3.58126e-08 0 1.75789e-11
-3.58179e-08 0 5.35572e-12
-3.57948e-08 0 -8.21019e-13
-3.57608e-08 0 -3.49592e-12
-3.57256e-08 0 -4.26988e-12
-3.56937e-08 0 -4.10173e-12
-3.56671e-08 0 -3.5367e-12
-3.56458e-08 0 -2.86561e-12
-3.56295e-08 0 -2.22964e-12
-3.56172e-08 0 -1.68642e-12
-3.56081e-08 0 -1.24968e-12
-3.56015e-08 0 -9.1157e-13
-3.55966e-08 0 -6.55863e-13
-3.55931e-08 0 -4.66129e-13
-3.55907e-08 0 -3.26723e-13
-3.55893e-08 0 -2.25494e-13
-3.55887e-08 0 -1.59367e-13
-3.55886e-08 0 -1.48056e-13
-3.5589e-08 0 -1.59718e-13
-3.55906e-08 0 3.439e-13
0.00550417 0 -2.1477e-09
0.0036 -3.0285e-07 -6.16435e-08
0.0035998 -0.00138898 -2.30526e-05
0.00670941 -0.00392768 0.000108229
0.013611 -0.00589393 -0.000518325
0.0235149 -0.014449 -0.00428345
0.0463333 -0.0133694 -0.00488114
0.0498472 -0.00190817 -0.00164364
0.0495844 0.00265396 -0.00016348
0.0445949 0.00498027 0.000568212
0.0389876 0.005148 0.000551195
0.0338813 0.00448067 0.000276266
0.0295848 0.00359677 -2.21202e-06
0.0261737 0.00271977 -0.000196006
0.0235889 0.00194514 -0.000289622
0.021677 0.00132605 -0.000299353
0.0202613 0.000879337 -0.00025243
0.0192001 0.000585023 -0.000178844
0.0183992 0.000401553 -0.000105146
0.017799 0.000286075 -4.79839e-05
0.0173578 0.000207761 -1.21289e-05
0.0170428 0.000149898 5.7916e-06
0.0168254 0.000105335 1.19906e-05
0.0166812 7.12898e-05 1.20427e-05
0.0165895 4.61955e-05 9.6736e-06
0.0165339 2.85223e-05 6.88468e-06
0.0165019 1.66469e-05 4.51634e-06
0.0164848 9.03062e-06 2.78068e-06
0.0164766 4.3757e-06 1.61756e-06
0.0164735 1.6822e-06 8.86446e-07
0.0164731 2.3041e-07 4.50428e-07
0.016474 -4.70693e-07 2.03096e-07
0.0164753 -7.41276e-07 7.05199e-08
0.0164767 -7.81545e-07 4.7146e-09
0.0164779 -7.11322e-07 -2.39876e-08
0.016479 -5.98703e-07 -3.31936e-08
0.0164798 -4.79792e-07 -3.29484e-08
0.0164804 -3.71735e-07 -2.87348e-08
0.0164809 -2.81016e-07 -2.33786e-08
0.0164813 -2.08523e-07 -1.82149e-08
0.0164815 -1.52527e-07 -1.3777e-08
0.0164817 -1.10335e-07 -1.01896e-08
0.0164818 -7.91494e-08 -7.39319e-09
0.0164819 -5.64833e-08 -5.27438e-09
0.016482 -4.02873e-08 -3.70936e-09
0.016482 -2.89695e-08 -2.57502e-09
0.0164821 -2.13454e-08 -1.71356e-09
0.0164821 -1.65758e-08 -7.85541e-10
0.0164821 -1.43276e-08 1.2846e-09
0.0164822 -1.72228e-08 5.02653e-09
0.0164822 -4.52872e-08 -1.33855e-09
0.0164823 -6.9968e-08 -9.91746e-09
0.01 -1.36169e-07 -1.43317e-06
0.0100007 -0.0029882 -0.000599914
0.014786 -0.00995628 -0.000792736
0.0241709 -0.0177287 -0.00124537
0.0385491 -0.0325288 -0.00335006
0.0592202 -0.0248348 -0.000820254
0.0564609 -0.00272786 0.00317464
0.0558967 0.00510058 0.00338705
0.0501128 0.0100838 0.00300437
0.0446367 0.0102377 0.00210564
0.0401344 0.00916634 0.00114896
0.0364242 0.00775294 0.000398333
0.0334538 0.00627077 -0.00012042
0.0311778 0.00489122 -0.000419327
0.0294379 0.00372164 -0.000518848
0.0280855 0.0027869 -0.000471447
0.02703 0.00205969 -0.000348259
0.026221 0.00150093 -0.000213201
0.0256206 0.00107589 -0.000104753
0.0251916 0.000756262 -3.45883e-05
0.0248969 0.000519232 2.39709e-06
0.0247031 0.000346655 1.71014e-05
0.0245818 0.000224003 1.95987e-05
0.0245105 0.000139378 1.68106e-05
0.024472 8.29263e-05 1.26021e-05
0.0244538 4.66245e-05 8.71713e-06
0.0244473 2.41948e-05 5.71111e-06
0.0244471 1.09527e-05 3.59468e-06
0.0244499 3.56418e-06 2.1905e-06
0.0244536 -2.42205e-07 1.29679e-06
0.0244574 -1.95326e-06 7.45916e-07
0.0244607 -2.50575e-06 4.15599e-07
0.0244635 -2.46701e-06 2.22684e-07
0.0244656 -2.16559e-06 1.13108e-07
0.0244673 -1.78128e-06 5.2846e-08
0.0244685 -1.4048e-06 2.10409e-08
0.0244694 -1.07578e-06 5.20645e-09
0.0244701 -8.06235e-07 -1.9586e-09
0.0244706 -5.94462e-07 -4.61756e-09
0.0244709 -4.32882e-07 -5.07649e-09
0.0244711 -3.12257e-07 -4.56203e-09
0.0244713 -2.23744e-07 -3.69369e-09
0.0244714 -1.59773e-07 -2.79047e-09
0.0244715 -1.14278e-07 -2.00312e-09
0.0244716 -8.26201e-08 -1.35488e-09
0.0244716 -6.15247e-08 -6.97408e-10
0.0244716 -4.91916e-08 5.75054e-10
0.0244717 -4.84579e-08 3.36865e-09
0.0244717 -6.70311e-08 6.47259e-09
0.0244718 -1.22184e-07 -9.55642e-09
0.0244719 -1.62141e-07 -2.68063e-08
0.0148 -9.45924e-07 -1.72125e-06
0.0148023 -0.00529493 -0.00112747
0.020384 -0.0164246 -0.00244597
0.0275473 -0.0288245 -0.00394026
0.0321955 -0.0461971 -0.00576866
0.0306652 -0.0285216 -0.0014179
0.0268804 -1.21397e-05 0.00329677
0.0263216 0.00706664 0.00352253
0.0298295 0.0144305 0.00343422
0.030178 0.0138715 0.00246265
0.0293742 0.0121035 0.00148801
0.0285436 0.0102658 0.000643949
0.027916 0.00837983 3.93188e-05
0.0276005 0.00660251 -0.000315785
0.0274739 0.00508328 -0.000438363
0.0274379 0.00382885 -0.000399613
0.0274491 0.00281053 -0.000284458
0.0274896 0.00200681 -0.000159055
0.0275466 0.00139557 -5.95147e-05
0.0276092 0.00094643 3.51183e-06
0.0276708 0.000624905 3.43832e-05
0.027728 0.000399569 4.31944e-05
0.0277799 0.000245219 3.99375e-05
0.0278257 0.000142535 3.18994e-05
0.027865 7.67118e-05 2.32963e-05
0.0278975 3.64075e-05 1.60055e-05
0.0279236 1.31067e-05 1.0518e-05
0.0279438 6.46991e-07 6.67852e-06
0.0279591 -5.23602e-06 4.12196e-06
0.0279703 -7.35801e-06 2.48069e-06
0.0279784 -7.49135e-06 1.45723e-06
0.0279841 -6.6966e-06 8.3483e-07
0.0279882 -5.57186e-06 4.65066e-07
0.027991 -4.42888e-06 2.50461e-07
0.0279929 -3.41069e-06 1.28982e-07
0.0279942 -2.5667e-06 6.21634e-08
0.0279951 -1.89831e-06 2.66993e-08
0.0279957 -1.38536e-06 8.77349e-09
0.0279962 -1.00061e-06 3.73839e-10
0.0279965 -7.17e-07 -3.03938e-09
0.0279966 -5.10788e-07 -3.9663e-09
0.0279968 -3.62591e-07 -3.7349e-09
0.0279969 -2.57274e-07 -3.05275e-09
0.0279969 -1.83466e-07 -2.27553e-09
0.027997 -1.32943e-07 -1.45226e-09
0.027997 -1.00623e-07 -4.33079e-10
0.0279971 -8.46152e-08 1.40422e-09
0.0279971 -8.69641e-08 3.63733e-09
0.0279971 -1.12423e-07 5.94279e-10
0.0279971 -1.55412e-07 -2.53326e-08
0.0279971 -1.79279e-07 -4.7242e-08
0.018 -1.90615e-06 -1.6717e-06
0.0180029 -0.00699777 -0.00187728
0.0207769 -0.0189934 -0.00492337
0.0207288 -0.0249829 -0.00633743
0.0160925 -0.0270111 -0.00762375
-1.57934e-06 -0.0140332 -0.0043334
9.57878e-05 2.58369e-05 9.08532e-07
-3.27708e-05 3.40988e-05 0.000654145
0.00657823 0.00409164 0.00143813
0.0134562 0.00929269 0.00140506
0.0168755 0.0101187 0.000993282
0.0186482 0.00915537 0.000451008
0.0203397 0.00759831 -3.77577e-05
0.0220305 0.00593504 -0.000304703
0.0235569 0.0044941 -0.000367154
0.0248535 0.00329562 -0.000310899
0.0259234 0.00232074 -0.000209922
0.0267892 0.00156359 -0.000108717
0.027473 0.00100961 -2.84623e-05
0.0279972 0.000625247 2.38124e-05
0.0283874 0.000368315 4.96803e-05
0.0286716 0.000201075 5.57222e-05
0.0288754 9.54139e-05 5.00654e-05
0.02902 3.17264e-05 3.95984e-05
0.0291216 -3.78888e-06 2.8739e-05
0.0291921 -2.108e-05 1.95938e-05
0.0292403 -2.72734e-05 1.27349e-05
0.0292728 -2.72774e-05 7.96393e-06
0.0292944 -2.42735e-05 4.81843e-06
0.0293085 -2.01752e-05 2.82782e-06
0.0293176 -1.60304e-05 1.60985e-06
0.0293235 -1.23379e-05 8.86574e-07
0.0293272 -9.27571e-06 4.69172e-07
0.0293295 -6.85069e-06 2.35333e-07
0.029331 -4.99091e-06 1.08654e-07
0.0293319 -3.5975e-06 4.28384e-08
0.0293325 -2.5716e-06 1.059e-08
0.0293329 -1.82633e-06 -3.76897e-09
0.0293331 -1.29056e-06 -9.00501e-09
0.0293332 -9.08628e-07 -9.87653e-09
0.0293333 -6.38283e-07 -8.86702e-09
0.0293334 -4.482e-07 -7.20132e-09
0.0293334 -3.15586e-07 -5.46034e-09
0.0293334 -2.24227e-07 -3.88356e-09
0.0293335 -1.63073e-07 -2.42043e-09
0.0293335 -1.25182e-07 -1.06797e-09
0.0293335 -1.06516e-07 2.30723e-10
0.0293335 -1.02867e-07 4.12708e-10
0.0293335 -1.11001e-07 -9.78016e-09
0.0293335 -1.14388e-07 -3.94528e-08
0.0293334 -1.10894e-07 -5.94301e-08
0.0196 -2.76539e-06 -2.52248e-06
0.019601 -0.00590651 -0.00274455
0.0190581 -0.0131789 -0.00647843
0.0159472 -0.0162015 -0.00668527
0.0108977 -0.015182 -0.00668775
0.00173128 -0.00625568 -0.00504209
7.13274e-05 -6.54931e-05 -0.00130331
3.27223e-05 -3.27223e-05 -4.05731e-08
-3.21747e-05 3.3367e-05 0.000259392
0.00392353 0.00277087 0.000553279
0.0089901 0.0064885 0.000483264
0.0119082 0.00678697 0.000132744
0.0151559 0.00531249 -0.000249358
0.0183095 0.00384737 -0.000409052
0.0210102 0.00271034 -0.000399469
0.0231961 0.00181262 -0.000316826
0.024925 0.0011007 -0.000219099
0.0262725 0.000572189 -0.000129566
0.0272997 0.000221455 -5.6e-05
0.028058 1.67884e-05 -2.66804e-06
0.0285983 -8.70155e-05 2.87082e-05
0.0289712 -0.000129891 4.08695e-05
0.0292219 -0.000138938 3.9999e-05
0.0293868 -0.000130277 3.27186e-05
0.0294932 -0.000113259 2.38781e-05
0.0295604 -9.34444e-05 1.60592e-05
0.0296021 -7.41052e-05 1.01403e-05
0.0296274 -5.6976e-05 6.0761e-06
0.0296423 -4.2748e-05 3.47209e-06
0.0296509 -3.14614e-05 1.89123e-06
0.0296557 -2.28086e-05 9.74771e-07
0.0296582 -1.63435e-05 4.6626e-07
0.0296595 -1.16063e-05 1.97039e-07
0.0296602 -8.18606e-06 6.2506e-08
0.0296604 -5.74403e-06 6.93117e-10
0.0296605 -4.01504e-06 -2.36784e-08
0.0296605 -2.79858e-06 -2.99395e-08
0.0296604 -1.94678e-06 -2.8256e-08
0.0296604 -1.3525e-06 -2.37134e-08
0.0296603 -9.3913e-07 -1.8684e-08
0.0296603 -6.5241e-07 -1.41389e-08
0.0296602 -4.54212e-07 -1.03592e-08
0.0296602 -3.17968e-07 -7.35287e-09
0.0296602 -2.25372e-07 -5.0578e-09
0.0296602 -1.63894e-07 -3.38697e-09
0.0296602 -1.24391e-07 -2.46155e-09
0.0296602 -9.93889e-08 -2.5339e-09
0.0296601 -8.08003e-08 -4.07532e-09
0.0296601 -6.06697e-08 -1.71089e-08
0.02966 -2.25956e-08 -4.41157e-08
0.02966 4.20436e-09 -5.93291e-08
0.0196 -1.33115e-06 -3.51774e-06
0.0195999 -0.00368727 -0.00312623
0.0187689 -0.00809173 -0.00651828
0.0175194 -0.00811642 -0.00605162
0.0131988 -0.00428307 -0.00554457
0.00910114 0.00258875 -0.00532935
0.00615064 0.0031612 -0.00311029
7.14937e-05 -5.94925e-05 -0.000669621
2.73179e-05 -2.73179e-05 -1.24974e-07
-3.16472e-05 3.27021e-05 9.39584e-05
0.00272907 0.00196447 0.000358417
0.0070489 0.00308402 0.000260755
0.0123295 0.00153712 -0.000159174
0.0169701 0.000507771 -0.000341344
0.020572 7.58677e-06 -0.000345882
0.0232499 -0.00029708 -0.000282261
0.0252149 -0.000524579 -0.000211422
0.02664 -0.000666323 -0.000149452
0.0276475 -0.00070404 -9.48622e-05
0.028331 -0.000654982 -4.84226e-05
0.0287718 -0.000558153 -1.44916e-05
0.0290412 -0.000448694 4.95674e-06
0.0291971 -0.00034705 1.24322e-05
0.0292821 -0.000261259 1.26514e-05
0.029325 -0.000192594 9.82161e-06
0.0293442 -0.000139522 6.51407e-06
0.0293509 -9.95969e-05 3.8342e-06
0.0293514 -7.02392e-05 2.01588e-06
0.0293492 -4.90638e-05 9.22106e-07
0.0293463 -3.40287e-05 3.28289e-07
0.0293435 -2.34834e-05 3.97238e-08
0.029341 -1.61538e-05 -7.95763e-08
0.029339 -1.10914e-05 -1.13488e-07
0.0293375 -7.60899e-06 -1.09197e-07
0.0293364 -5.21918e-06 -9.11042e-08
0.0293355 -3.581e-06 -7.066e-08
0.0293349 -2.45842e-06 -5.25057e-08
0.0293345 -1.68905e-06 -3.79824e-08
0.0293342 -1.1616e-06 -2.70016e-08
0.029334 -7.99966e-07 -1.89711e-08
0.0293338 -5.52107e-07 -1.32054e-08
0.0293337 -3.82483e-07 -9.09505e-09
0.0293336 -2.66764e-07 -6.21563e-09
0.0293336 -1.8806e-07 -4.33631e-09
0.0293336 -1.34203e-07 -3.34655e-09
0.0293335 -9.57556e-08 -3.25373e-09
0.0293335 -6.47794e-08 -4.11922e-09
0.0293334 -3.32673e-08 -5.80713e-09
0.0293334 9.31794e-09 -1.65851e-08
0.0293334 7.63393e-08 -3.72552e-08
0.0293333 1.17753e-07 -4.8162e-08
0.018 -8.49144e-07 -3.5091e-06
0.0180009 -0.00200882 -0.0030488
0.0183182 -0.003875 -0.00615878
0.0183766 -0.0026608 -0.00528667
0.0173626 0.00064021 -0.00419858
0.0170875 0.00708845 -0.00396617
0.0178235 0.0125863 -0.00299636
0.0109494 0.00693183 -0.00148979
7.29478e-05 -4.60372e-05 -0.000433964
-2.48187e-05 -5.35989e-05 5.46619e-07
7.75076e-06 -0.000695165 0.000744834
0.00829955 -0.00283098 0.00108286
0.0156321 -0.00438911 0.000454781
0.020628 -0.00407297 0.000147209
0.0237994 -0.00323666 3.07304e-05
0.025784 -0.0025268 -1.93433e-05
0.0270156 -0.00203172 -5.74575e-05
0.0277517 -0.00165954 -8.79807e-05
0.0281516 -0.00133189 -9.87743e-05
0.0283285 -0.00102897 -8.7532e-05
0.0283696 -0.000763462 -6.43301e-05
0.0283394 -0.000548286 -4.09318e-05
0.0282803 -0.00038485 -2.35139e-05
0.0282168 -0.000266041 -1.27588e-05
0.0281604 -0.000182014 -6.87106e-06
0.028115 -0.000123631 -3.84652e-06
0.0280805 -8.35685e-05 -2.29782e-06
0.0280553 -5.63301e-05 -1.45926e-06
0.0280373 -3.79327e-05 -9.62621e-07
0.0280248 -2.5557e-05 -6.43721e-07
0.0280161 -1.72466e-05 -4.29272e-07
0.0280101 -1.16648e-05 -2.83129e-07
0.028006 -7.90957e-06 -1.84172e-07
0.0280032 -5.37689e-06 -1.1817e-07
0.0280013 -3.66378e-06 -7.49075e-08
0.028 -2.50164e-06 -4.70156e-08
0.0279991 -1.71118e-06 -2.92909e-08
0.0279984 -1.17233e-06 -1.81587e-08
0.027998 -8.04389e-07 -1.12286e-08
0.0279977 -5.52901e-07 -6.94095e-09
0.0279975 -3.80948e-07 -4.29684e-09
0.0279974 -2.63332e-07 -2.67651e-09
0.0279973 -1.82602e-07 -1.75469e-09
0.0279972 -1.26374e-07 -1.38111e-09
0.0279972 -8.55277e-08 -1.45512e-09
0.0279971 -5.28689e-08 -1.90083e-09
0.0279971 -2.203e-08 -2.63919e-09
0.0279971 1.36167e-08 -3.435e-09
0.027997 6.48968e-08 -9.00842e-09
0.027997 1.3919e-07 -2.24741e-08
0.027997 1.82119e-07 -3.07356e-08
0.0148 -4.76719e-07 -3.10892e-06
0.0148015 -0.00103481 -0.0028279
0.0162318 -0.00164107 -0.00542367
0.0178005 -1.9939e-05 -0.00429185
0.0191332 0.00318876 -0.00307384
0.0208801 0.00736526 -0.00285264
0.0246973 0.0129801 -0.00241204
0.0279897 0.0195171 -0.00151139
0.023012 0.0113004 -0.000340185
0.0234614 1.70204e-11 0.000626078
0.0266051 -0.00669899 0.00155833
0.0300458 -0.0130851 0.00210778
0.030903 -0.0110269 0.00164082
0.030351 -0.00772552 0.00115325
0.0293548 -0.00511574 0.000713221
0.0283507 -0.003404 0.000361408
0.0274797 -0.00232353 0.000108611
0.026762 -0.00160783 -4.77613e-05
0.0261826 -0.0011016 -0.000117702
0.0257234 -0.000736601 -0.000124757
0.0253683 -0.000481269 -9.9848e-05
0.0251015 -0.000310754 -6.77913e-05
0.0249067 -0.000200862 -4.12191e-05
0.0247682 -0.000131071 -2.32171e-05
0.0246719 -8.65921e-05 -1.23988e-05
0.024606 -5.78647e-05 -6.37558e-06
0.0245615 -3.90212e-05 -3.18311e-06
0.0245318 -2.64931e-05 -1.54397e-06
0.0245119 -1.80766e-05 -7.20601e-07
0.0244987 -1.23781e-05 -3.14773e-07
0.0244899 -8.49746e-06 -1.19418e-07
0.024484 -5.84345e-06 -2.89874e-08
0.0244801 -4.02265e-06 9.81489e-09
0.0244774 -2.77075e-06 2.37737e-08
0.0244756 -1.90882e-06 2.62797e-08
0.0244744 -1.31493e-06 2.39546e-08
0.0244735 -9.05642e-07 1.99958e-08
0.0244729 -6.23645e-07 1.58741e-08
0.0244725 -4.2946e-07 1.2198e-08
0.0244723 -2.95827e-07 9.15551e-09
0.0244721 -2.03844e-07 6.74334e-09
0.024472 -1.403e-07 4.87928e-09
0.0244719 -9.58302e-08 3.43863e-09
0.0244718 -6.3627e-08 2.31153e-09
0.0244718 -3.84886e-08 1.44357e-09
0.0244717 -1.60695e-08 8.15882e-10
0.0244717 7.81284e-09 5.40146e-10
0.0244717 3.7234e-08 6.66015e-10
0.0244717 7.81999e-08 -5.65556e-10
0.0244717 1.31721e-07 -9.43189e-09
0.0244718 1.60864e-07 -1.69223e-08
0.01 -9.10431e-07 -2.81609e-06
0.0100007 -0.00063415 -0.00230287
0.0113243 -0.000710214 -0.00414272
0.0131957 0.000557612 -0.00291343
0.0156445 0.00252856 -0.00182121
0.019561 0.00557482 -0.00183182
0.0254865 0.00836656 -0.00237484
0.0345939 0.0101216 -0.00209637
0.0462182 0.0048288 -0.000511297
0.045969 -0.00402082 0.000988689