# vtk DataFile Version 2.0
Tobias Weinzierl: CPU, Manycore and Cluster Computing
ASCII

DATASET STRUCTURED_POINTS
DIMENSIONS  51 11 6

ORIGIN 0 0 0 

SPACING 0.1 0.1 0.1 

POINT_DATA 3366

VECTORS velocity float
0 0 0
4.8985e-12 0 0
2.06435e-10 0 0
-5.03202e-08 0 0
-1.40656e-07 0 0
-5.96659e-08 0 0
-3.67766e-08 0 0
-2.08072e-08 0 0
-2.04777e-09 0 0
2.58046e-09 0 0
-1.35943e-08 0 0
-4.00309e-08 0 0
-6.144e-08 0 0
-7.07422e-08 0 0
-7.07529e-08 0 0
-6.77779e-08 0 0
-6.58174e-08 0 0
-6.57254e-08 0 0
-6.68429e-08 0 0
-6.83467e-08 0 0
-6.9729e-08 0 0
-7.0793e-08 0 0
-7.15242e-08 0 0
-7.19837e-08 0 0
-7.22484e-08 0 0
-7.23854e-08 0 0
-7.24448e-08 0 0
-7.24606e-08 0 0
-7.24545e-08 0 0
-7.2439e-08 0 0
-7.24214e-08 0 0
-7.24049e-08 0 0
-7.23911e-08 0 0
-7.23803e-08 0 0
-7.23723e-08 0 0
-7.23666e-08 0 0
-7.23628e-08 0 0
-7.23603e-08 0 0
-7.23589e-08 0 0
-7.23582e-08 0 0
-7.23578e-08 0 0
-7.23576e-08 0 0
-7.23574e-08 0 0
-7.2357e-08 0 0
-7.23566e-08 0 0
-7.2356e-08 0 0
-7.23555e-08 0 0
-7.23555e-08 0 0
-7.23561e-08 0 0
-7.23601e-08 0 0
0.00222395 0 0
0 3.99874e-07 0
1.38428e-11 -8.60995e-09 0
4.91223e-09 -3.37583e-09 0
-7.98634e-08 2.40397e-08 0
-2.12917e-07 2.43183e-09 0
-8.3763e-08 1.46985e-08 0
-6.95177e-08 7.53072e-08 0
-6.77417e-08 7.0044e-08 0
-4.10959e-08 4.23954e-08 0
-2.26008e-08 3.42456e-08 0
-3.59065e-08 3.81987e-08 0
-7.27662e-08 3.79688e-08 0
-1.07858e-07 2.68168e-08 0
-1.24722e-07 1.15987e-08 0
-1.26967e-07 1.41197e-09 0
-1.26201e-07 -1.6042e-09 0
-1.28744e-07 -6.75759e-10 0
-1.34605e-07 9.04728e-10 0
-1.41596e-07 1.77847e-09 0
-1.47953e-07 1.89479e-09 0
-1.52906e-07 1.59187e-09 0
-1.56384e-07 1.16171e-09 0
-1.58641e-07 7.6266e-10 0
-1.60006e-07 4.53135e-10 0
-1.60773e-07 2.38332e-10 0
-1.61165e-07 1.01882e-10 0
-1.61337e-07 2.249e-11 0
-1.61388e-07 -1.88704e-11 0
-1.61378e-07 -3.67444e-11 0
-1.61343e-07 -4.12291e-11 0
-1.61301e-07 -3.8833e-11 0
-1.61261e-07 -3.3475e-11 0
-1.61228e-07 -2.73436e-11 0
-1.61201e-07 -2.1544e-11 0
-1.61182e-07 -1.6545e-11 0
-1.61167e-07 -1.2467e-11 0
-1.61158e-07 -9.25812e-12 0
-1.61151e-07 -6.79499e-12 0
-1.61147e-07 -4.93637e-12 0
-1.61145e-07 -3.54935e-12 0
-1.61144e-07 -2.51993e-12 0
-1.61143e-07 -1.75493e-12 0
-1.61142e-07 -1.17904e-12 0
-1.61142e-07 -7.33197e-13 0
-1.61141e-07 -3.7312e-13 0
-1.6114e-07 -2.91305e-14 0
-1.61139e-07 4.02401e-13 0
-1.6114e-07 1.00457e-12 0
-1.61144e-07 3.32278e-12 0
-1.61155e-07 1.23692e-11 0
0.00624039 -9.82005e-08 0
0 -1.63823e-08 0
2.14298e-11 -7.56052e-09 0
3.07084e-08 -2.94554e-08 0
-7.21815e-09 -7.95311e-08 0
-6.26145e-08 -1.57462e-07 0
3.97408e-08 -8.76483e-08 0
-2.89496e-08 6.17521e-08 0
-8.42736e-08 8.0577e-08 0
-8.96327e-08 4.90584e-08 0
-6.10635e-08 2.67461e-08 0
-5.44877e-08 1.13776e-08 0
-7.58607e-08 6.83405e-09 0
-1.03675e-07 1.43022e-08 0
-1.1661e-07 2.4942e-08 0
-1.1531e-07 3.08084e-08 0
-1.11935e-07 3.07308e-08 0
-1.13414e-07 2.6928e-08 0
-1.19466e-07 2.16116e-08 0
-1.27192e-07 1.61867e-08 0
-1.34269e-07 1.14214e-08 0
-1.39688e-07 7.63397e-09 0
-1.43371e-07 4.84278e-09 0
-1.45651e-07 2.90774e-09 0
-1.46945e-07 1.63579e-09 0
-1.47608e-07 8.41067e-10 0
-1.47898e-07 3.70479e-10 0
-1.47984e-07 1.09142e-10 0
-1.47968e-07 -2.35929e-11 0
-1.47911e-07 -8.1354e-11 0
-1.47843e-07 -9.81071e-11 0
-1.47779e-07 -9.43624e-11 0
-1.47724e-07 -8.18719e-11 0
-1.47681e-07 -6.6952e-11 0
-1.47649e-07 -5.26996e-11 0
-1.47625e-07 -4.04e-11 0
-1.47608e-07 -3.03837e-11 0
-1.47597e-07 -2.25225e-11 0
-1.4759e-07 -1.6504e-11 0
-1.47585e-07 -1.19727e-11 0
-1.47582e-07 -8.59621e-12 0
-1.47581e-07 -6.08965e-12 0
-1.4758e-07 -4.21958e-12 0
-1.47579e-07 -2.79457e-12 0
-1.47578e-07 -1.64299e-12 0
-1.47577e-07 -6.0279e-13 0
-1.47577e-07 5.22175e-13 0
-1.47577e-07 2.35332e-12 0
-1.47579e-07 6.25274e-12 0
-1.47583e-07 1.27191e-11 0
-1.47591e-07 2.10604e-11 0
0.00862489 -1.75095e-07 0
0 -6.27363e-07 0
2.18907e-11 -1.9629e-08 0
5.10346e-08 -7.22701e-08 0
3.42633e-08 -1.52835e-07 0
-3.37063e-08 -2.11916e-07 0
6.38375e-08 -1.11768e-07 0
3.79281e-09 -5.88425e-11 0
-3.73388e-08 -1.46304e-08 0
-9.22095e-08 -5.12407e-08 0
-8.93156e-08 -7.76049e-08 0
-9.11671e-08 -7.33661e-08 0
-1.17933e-07 -4.08912e-08 0
-1.44738e-07 6.15019e-09 0
-1.52024e-07 3.98494e-08 0
-1.3968e-07 5.0854e-08 0
-1.20778e-07 4.75675e-08 0
-1.06022e-07 3.91587e-08 0
-9.85257e-08 3.0017e-08 0
-9.64045e-08 2.16708e-08 0
-9.67766e-08 1.47283e-08 0
-9.77266e-08 9.40532e-09 0
-9.84473e-08 5.61727e-09 0
-9.87789e-08 3.09716e-09 0
-9.881e-08 1.5235e-09 0
-9.86723e-08 6.03235e-10 0
-9.8468e-08 1.05575e-10 0
-9.82583e-08 -1.34743e-10 0
-9.80729e-08 -2.27948e-10 0
-9.79217e-08 -2.43296e-10 0
-9.78048e-08 -2.21904e-10 0
-9.77175e-08 -1.86732e-10 0
-9.7654e-08 -1.49653e-10 0
-9.7609e-08 -1.16119e-10 0
-9.75777e-08 -8.80781e-11 0
-9.75564e-08 -6.57151e-11 0
-9.75424e-08 -4.8426e-11 0
-9.75334e-08 -3.53425e-11 0
-9.75281e-08 -2.55881e-11 0
-9.75251e-08 -1.8387e-11 0
-9.75235e-08 -1.30979e-11 0
-9.75229e-08 -9.20835e-12 0
-9.75225e-08 -6.31252e-12 0
-9.75223e-08 -4.08573e-12 0
-9.75218e-08 -2.24457e-12 0
-9.75211e-08 -4.36557e-13 0
-9.75203e-08 1.81564e-12 0
-9.75195e-08 4.73906e-12 0
-9.75189e-08 8.02581e-12 0
-9.75173e-08 1.15494e-11 0
-9.75183e-08 1.58132e-11 0
0.00937184 -1.57725e-07 0
0 -1.20389e-06 0
-1.22168e-11 -3.81388e-08 0
2.47649e-08 -1.03574e-07 0
-1.08586e-08 -1.33989e-07 0
-9.28673e-08 -1.04744e-07 0
-3.14017e-11 -3.62008e-08 0
-3.31829e-10 -3.28729e-10 0
3.16988e-10 -3.4678e-10 0
-4.16245e-08 -4.64422e-08 0
-1.15902e-07 -1.08162e-07 0
-1.40677e-07 -1.04057e-07 0
-1.60348e-07 -5.11587e-08 0
-1.79892e-07 9.70233e-09 0
-1.85188e-07 4.52166e-08 0
-1.71962e-07 4.979e-08 0
-1.4612e-07 4.0289e-08 0
-1.19443e-07 2.95004e-08 0
-9.98229e-08 2.0886e-08 0
-8.80866e-08 1.41064e-08 0
-8.16775e-08 8.76643e-09 0
-7.80863e-08 4.81402e-09 0
-7.58522e-08 2.15546e-09 0
-7.43147e-08 5.50322e-10 0
-7.32038e-08 -3.02044e-10 0
-7.23974e-08 -6.73373e-10 0
-7.18213e-08 -7.68109e-10 0
-7.14185e-08 -7.22239e-10 0
-7.11428e-08 -6.17745e-10 0
-7.09572e-08 -4.9954e-10 0
-7.08341e-08 -3.89446e-10 0
-7.07535e-08 -2.96063e-10 0
-7.07013e-08 -2.21068e-10 0
-7.06681e-08 -1.62923e-10 0
-7.06473e-08 -1.18912e-10 0
-7.06347e-08 -8.61561e-11 0
-7.06276e-08 -6.20708e-11 0
-7.06239e-08 -4.45131e-11 0
-7.06225e-08 -3.17889e-11 0
-7.06224e-08 -2.25971e-11 0
-7.0623e-08 -1.59565e-11 0
-7.06238e-08 -1.11335e-11 0
-7.06245e-08 -7.57473e-12 0
-7.06249e-08 -4.84119e-12 0
-7.06247e-08 -2.58012e-12 0
-7.06238e-08 -5.86526e-13 0
-7.0622e-08 1.15449e-12 0
-7.06195e-08 2.59148e-12 0
-7.06169e-08 3.77294e-12 0
-7.06136e-08 5.1009e-12 0
-7.06133e-08 7.44172e-12 0
0.00955876 -8.51841e-08 0
0 -1.07601e-06 0
-3.43839e-11 -3.87635e-08 0
-1.11413e-09 -8.19772e-08 0
-4.16887e-08 -1.06089e-07 0
-1.22466e-07 -1.23897e-07 0
-6.91846e-08 -6.10347e-08 0
-3.46548e-10 3.22141e-10 0
-4.24239e-12 4.24239e-12 0
2.92475e-10 -3.41742e-10 0
-6.24684e-08 -5.4532e-08 0
-1.43329e-07 -1.05383e-07 0
-1.45965e-07 -5.85702e-08 0
-1.58033e-07 1.76346e-08 0
-1.76996e-07 5.68365e-08 0
-1.85324e-07 5.31859e-08 0
-1.69123e-07 3.26762e-08 0
-1.38498e-07 1.56389e-08 0
-1.10121e-07 6.0413e-09 0
-9.08616e-08 1.04447e-09 0
-7.95652e-08 -1.66941e-09 0
-7.31818e-08 -3.03192e-09 0
-6.94816e-08 -3.46616e-09 0
-6.725e-08 -3.31254e-09 0
-6.58714e-08 -2.86133e-09 0
-6.50166e-08 -2.31709e-09 0
-6.44921e-08 -1.79679e-09 0
-6.41758e-08 -1.35253e-09 0
-6.39893e-08 -9.97427e-10 0
-6.38821e-08 -7.25222e-10 0
-6.38226e-08 -5.22226e-10 0
-6.3791e-08 -3.73599e-10 0
-6.37756e-08 -2.66112e-10 0
-6.37693e-08 -1.89011e-10 0
-6.37682e-08 -1.34004e-10 0
-6.37697e-08 -9.48928e-11 0
-6.37726e-08 -6.71404e-11 0
-6.37762e-08 -4.74671e-11 0
-6.37798e-08 -3.35207e-11 0
-6.37833e-08 -2.36222e-11 0
-6.37864e-08 -1.65744e-11 0
-6.3789e-08 -1.15216e-11 0
-6.37908e-08 -7.85646e-12 0
-6.37919e-08 -5.16921e-12 0
-6.3792e-08 -3.20458e-12 0
-6.3791e-08 -1.79487e-12 0
-6.37892e-08 -8.11012e-13 0
-6.37868e-08 -2.04026e-13 0
-6.37848e-08 -3.69645e-14 0
-6.37825e-08 -1.3635e-13 0
-6.37829e-08 2.8354e-13 0
0.00959073 5.1346e-09 0
0 -7.52777e-07 0
-2.32477e-11 -3.03109e-08 0
-3.35053e-09 -7.37405e-08 0
-4.29001e-08 -8.63881e-08 0
-1.43548e-07 -7.5546e-08 0
-1.58896e-07 -4.06238e-08 0
-4.9563e-08 -8.02499e-09 0
-3.34287e-10 3.10182e-10 0
-1.6823e-11 1.6823e-11 0
2.46677e-10 -3.38212e-10 0
-6.16431e-08 -5.34e-08 0
-7.54747e-08 -5.43029e-08 0
-8.35946e-08 4.05317e-08 0
-1.18468e-07 8.6833e-08 0
-1.61625e-07 7.03896e-08 0
-1.7265e-07 3.08257e-08 0
-1.50007e-07 1.9811e-09 0
-1.18855e-07 -1.0602e-08 0
-9.555e-08 -1.37487e-08 0
-8.2185e-08 -1.30551e-08 0
-7.54958e-08 -1.10448e-08 0
-7.23772e-08 -8.73617e-09 0
-7.09948e-08 -6.58911e-09 0
-7.04268e-08 -4.80136e-09 0
-7.02331e-08 -3.41567e-09 0
-7.02051e-08 -2.39209e-09 0
-7.02441e-08 -1.65972e-09 0
-7.03041e-08 -1.14618e-09 0
-7.03648e-08 -7.90364e-10 0
-7.04184e-08 -5.45329e-10 0
-7.04628e-08 -3.76951e-10 0
-7.04983e-08 -2.61204e-10 0
-7.05263e-08 -1.81486e-10 0
-7.05482e-08 -1.2643e-10 0
-7.05654e-08 -8.82894e-11 0
-7.0579e-08 -6.17819e-11 0
-7.05898e-08 -4.3301e-11 0
-7.05985e-08 -3.03751e-11 0
-7.06054e-08 -2.13044e-11 0
-7.06109e-08 -1.49171e-11 0
-7.06151e-08 -1.04082e-11 0
-7.06181e-08 -7.22682e-12 0
-7.06199e-08 -4.99471e-12 0
-7.06205e-08 -3.45448e-12 0
-7.06202e-08 -2.44676e-12 0
-7.0619e-08 -1.89932e-12 0
-7.06173e-08 -1.85761e-12 0
-7.06162e-08 -2.59499e-12 0
-7.06149e-08 -4.37141e-12 0
-7.06158e-08 -6.64376e-12 0
0.00955872 9.35223e-08 0
0 -5.29542e-07 0
-1.54544e-11 -2.4431e-08 0
-7.00074e-09 -5.84525e-08 0
-5.48345e-08 -6.58342e-08 0
-1.43369e-07 -4.42318e-08 0
-1.77543e-07 -1.23826e-08 0
-1.22132e-07 -1.02749e-08 0
-5.64932e-08 -1.03173e-08 0
-3.52859e-10 2.67364e-10 0
2.42451e-10 2.82137e-10 0
-1.28248e-11 -2.87548e-08 0
-5.71775e-08 -1.4195e-08 0
-5.16851e-08 7.15634e-08 0
-4.27624e-08 1.14453e-07 0
-7.96373e-08 8.63444e-08 0
-1.23028e-07 3.1711e-08 0
-1.33225e-07 -6.52456e-09 0
-1.20057e-07 -2.13375e-08 0
-1.05031e-07 -2.26559e-08 0
-9.63718e-08 -1.90083e-08 0
-9.3199e-08 -1.44025e-08 0
-9.28712e-08 -1.0305e-08 0
-9.35943e-08 -7.11632e-09 0
-9.45173e-08 -4.81124e-09 0
-9.53284e-08 -3.21778e-09 0
-9.59551e-08 -2.14466e-09 0
-9.6412e-08 -1.43149e-09 0
-9.6736e-08 -9.59665e-10 0
-9.69629e-08 -6.4712e-10 0
-9.71215e-08 -4.39128e-10 0
-9.72325e-08 -2.99832e-10 0
-9.73106e-08 -2.0589e-10 0
-9.73662e-08 -1.42099e-10 0
-9.74062e-08 -9.85013e-11 0
-9.74353e-08 -6.85322e-11 0
-9.74568e-08 -4.78254e-11 0
-9.7473e-08 -3.34541e-11 0
-9.74852e-08 -2.34412e-11 0
-9.74947e-08 -1.64432e-11 0
-9.75018e-08 -1.15423e-11 0
-9.75072e-08 -8.10902e-12 0
-9.75111e-08 -5.7121e-12 0
-9.75135e-08 -4.06285e-12 0
-9.75148e-08 -2.98191e-12 0
-9.7515e-08 -2.38543e-12 0
-9.75143e-08 -2.28034e-12 0
-9.75132e-08 -2.76986e-12 0
-9.75129e-08 -4.27576e-12 0
-9.75127e-08 -7.8631e-12 0
-9.75147e-08 -1.39454e-11 0
0.00937176 1.58544e-07 0
0 -4.59285e-07 0
-6.2405e-12 -1.59009e-08 0
-1.47705e-08 -4.13565e-08 0
-7.60759e-08 -4.93356e-08 0
-1.59968e-07 -3.19194e-08 0
-1.93166e-07 2.41907e-09 0
-1.55123e-07 6.19933e-09 0
-1.21317e-07 -4.39502e-08 0
-6.77671e-08 -3.9687e-08 0
-5.48181e-08 2.13571e-12 0
-9.17753e-08 2.05067e-08 0
-1.8012e-07 4.84007e-08 0
-1.51816e-07 6.3132e-08 0
-5.27261e-08 6.74168e-08 0
-3.01033e-08 5.02227e-08 0
-8.305e-08 2.17376e-08 0
-1.27707e-07 -9.4799e-10 0
-1.39706e-07 -1.1687e-08 0
-1.38075e-07 -1.34358e-08 0
-1.36484e-07 -1.1281e-08 0
-1.37332e-07 -8.35761e-09 0
-1.39394e-07 -5.84011e-09 0
-1.41547e-07 -3.96827e-09 0
-1.43318e-07 -2.66562e-09 0
-1.44629e-07 -1.78723e-09 0
-1.45551e-07 -1.20232e-09 0
-1.46182e-07 -8.13456e-10 0
-1.46611e-07 -5.53827e-10 0
-1.46902e-07 -3.79321e-10 0
-1.47101e-07 -2.61179e-10 0
-1.47238e-07 -1.80653e-10 0
-1.47332e-07 -1.25438e-10 0
-1.47399e-07 -8.73827e-11 0
-1.47446e-07 -6.10385e-11 0
-1.4748e-07 -4.27331e-11 0
-1.47505e-07 -2.99728e-11 0
-1.47523e-07 -2.10537e-11 0
-1.47537e-07 -1.48057e-11 0
-1.47547e-07 -1.04219e-11 0
-1.47555e-07 -7.34482e-12 0
-1.47561e-07 -5.19032e-12 0
-1.47566e-07 -3.69789e-12 0
-1.47568e-07 -2.69917e-12 0
-1.4757e-07 -2.09813e-12 0
-1.47571e-07 -1.8672e-12 0
-1.4757e-07 -2.07355e-12 0
-1.4757e-07 -2.87457e-12 0
-1.47571e-07 -4.6932e-12 0
-1.47572e-07 -9.27348e-12 0
-1.47578e-07 -1.85951e-11 0
0.00862482 1.62417e-07 0
0 -4.8052e-07 0
3.06158e-12 -6.54904e-09 0
-2.28216e-08 -1.93449e-08 0
-8.87431e-08 -2.40486e-08 0
-1.60649e-07 -1.59471e-08 0
-1.93256e-07 -7.10082e-09 0
-1.67452e-07 -8.35704e-09 0
-1.43095e-07 -3.29494e-08 0
-1.61656e-07 -3.54878e-08 0
-1.43855e-07 1.35673e-08 0
-1.47577e-07 6.91141e-08 0
-1.54284e-07 8.12623e-08 0
-1.13294e-07 3.69184e-08 0
-4.42033e-08 -1.73593e-08 0
-4.24873e-08 -4.32913e-08 0
-1.01297e-07 -3.56672e-08 0
-1.48587e-07 -1.42242e-08 0
-1.62316e-07 7.3828e-10 0
-1.60357e-07 5.09245e-09 0
-1.5697e-07 4.074e-09 0
-1.55729e-07 2.08426e-09 0
-1.56071e-07 6.77916e-10 0
-1.57025e-07 -3.45351e-11 0
-1.58032e-07 -3.03025e-10 0
-1.58879e-07 -3.51233e-10 0
-1.59525e-07 -3.11487e-10 0
-1.59995e-07 -2.47992e-10 0
-1.60328e-07 -1.87063e-10 0
-1.60562e-07 -1.37019e-10 0
-1.60726e-07 -9.87173e-11 0
-1.60841e-07 -7.04569e-11 0
-1.60922e-07 -5.00191e-11 0
-1.6098e-07 -3.54035e-11 0
-1.61022e-07 -2.5017e-11 0
-1.61052e-07 -1.76617e-11 0
-1.61074e-07 -1.24625e-11 0
-1.61091e-07 -8.79084e-12 0
-1.61104e-07 -6.1994e-12 0
-1.61113e-07 -4.37172e-12 0
-1.61121e-07 -3.08554e-12 0
-1.61126e-07 -2.18652e-12 0
-1.6113e-07 -1.57054e-12 0
-1.61133e-07 -1.17281e-12 0
-1.61134e-07 -9.60696e-13 0
-1.61135e-07 -9.3569e-13 0
-1.61135e-07 -1.15803e-12 0
-1.61135e-07 -1.75771e-12 0
-1.61137e-07 -2.95175e-12 0
-1.6114e-07 -5.80353e-12 0
-1.61151e-07 -1.25035e-11 0
0.00624041 8.02054e-08 0
0 0 0
4.33351e-12 0 0
-1.25482e-08 0 0
-4.34935e-08 0 0
-7.34531e-08 0 0
-8.78911e-08 0 0
-8.49115e-08 0 0
-7.82585e-08 0 0
-9.39325e-08 0 0
-8.90408e-08 0 0
-5.58144e-08 0 0
-1.62922e-08 0 0
4.80938e-09 0 0
3.02557e-09 0 0
-2.43421e-08 0 0
-5.88943e-08 0 0
-7.86864e-08 0 0
-8.2049e-08 0 0
-7.85022e-08 0 0
-7.46748e-08 0 0
-7.2411e-08 0 0
-7.14685e-08 0 0
-7.12577e-08 0 0
-7.13592e-08 0 0
-7.15531e-08 0 0
-7.17453e-08 0 0
-7.19045e-08 0 0
-7.20266e-08 0 0
-7.21167e-08 0 0
-7.21819e-08 0 0
-7.22288e-08 0 0
-7.22625e-08 0 0
-7.22867e-08 0 0
-7.23044e-08 0 0
-7.23174e-08 0 0
-7.23271e-08 0 0
-7.23345e-08 0 0
-7.23401e-08 0 0
-7.23444e-08 0 0
-7.23478e-08 0 0
-7.23503e-08 0 0
-7.23522e-08 0 0
-7.23534e-08 0 0
-7.23541e-08 0 0
-7.23544e-08 0 0
-7.23544e-08 0 0
-7.23545e-08 0 0
-7.23554e-08 0 0
-7.23575e-08 0 0
-7.23638e-08 0 0
0.00222399 0 0
0 0 5.3755e-07
2.28642e-11 0 8.38942e-09
1.33264e-08 0 5.36868e-08
-7.18086e-08 0 1.16809e-07
-3.70294e-07 0 6.8997e-09
-1.53899e-07 0 -1.18593e-07
-6.6152e-08 0 -1.14182e-07
-6.17045e-10 0 -1.0479e-07
5.58112e-08 0 -6.58027e-08
8.37426e-08 0 -2.27203e-08
6.7967e-08 0 4.39141e-09
1.79653e-08 0 9.85699e-09
-3.93093e-08 0 3.87684e-09
-8.21916e-08 0 -2.30082e-09
-1.06191e-07 0 -4.38871e-09
-1.18869e-07 0 -3.34112e-09
-1.28033e-07 0 -1.38402e-09
-1.36758e-07 0 1.15636e-10
-1.44966e-07 0 8.39488e-10
-1.51889e-07 0 9.8921e-10
-1.57149e-07 0 8.52989e-10
-1.60821e-07 0 6.323e-10
-1.63209e-07 0 4.26826e-10
-1.64666e-07 0 2.6968e-10
-1.65497e-07 0 1.61742e-10
-1.65931e-07 0 9.26436e-11
-1.6613e-07 0 5.06594e-11
-1.66198e-07 0 2.62349e-11
-1.66197e-07 0 1.2596e-11
-1.66167e-07 0 5.30974e-12
-1.66126e-07 0 1.62812e-12
-1.66087e-07 0 -8.41955e-14
-1.66054e-07 0 -7.67049e-13
-1.66026e-07 0 -9.42631e-13
-1.66006e-07 0 -8.90553e-13
-1.65991e-07 0 -7.53824e-13
-1.65981e-07 0 -6.00916e-13
-1.65974e-07 0 -4.61014e-13
-1.6597e-07 0 -3.43378e-13
-1.65967e-07 0 -2.47558e-13
-1.65966e-07 0 -1.68651e-13
-1.65965e-07 0 -9.92726e-14
-1.65964e-07 0 -2.8285e-14
-1.65963e-07 0 5.79644e-14
-1.65962e-07 0 1.71835e-13
-1.65961e-07 0 3.54931e-13
-1.6596e-07 0 6.40002e-13
-1.65961e-07 0 8.45312e-13
-1.65964e-07 0 1.9862e-12
-1.65975e-07 0 9.03376e-12
0.0062142 0 -4.64608e-08
0.0036 -2.54927e-07 -2.72318e-08
0.00359983 -0.00128032 1.67335e-05
0.00677325 -0.00384774 -5.12957e-05
0.0137119 -0.00667452 -0.00131937
0.0243387 -0.0142863 -0.00491394
0.04612 -0.0120955 -0.00492979
0.0493611 -0.00136284 -0.00163411
0.0489825 0.00296919 -7.90475e-05
0.0438032 0.0052247 0.00066605
0.0380967 0.00535542 0.000594596
0.0330079 0.00458415 0.000219131
0.0287989 0.00350714 -0.00015096
0.0255001 0.00244168 -0.000356916
0.0230488 0.00158505 -0.000371888
0.0213098 0.00100049 -0.000273909
0.0201159 0.000638194 -0.000157819
0.0193167 0.000415432 -7.32726e-05
0.0187944 0.000272163 -2.61361e-05
0.0184618 0.000176348 -4.81669e-06
0.0182558 0.000111785 2.73485e-06
0.0181316 6.89722e-05 4.23301e-06
0.018059 4.13143e-05 3.60716e-06
0.0180178 2.39538e-05 2.5394e-06
0.0179954 1.33703e-05 1.61416e-06
0.0179838 7.10931e-06 9.57059e-07
0.0179783 3.52457e-06 5.35735e-07
0.017976 1.54987e-06 2.83103e-07
0.0179753 5.15464e-07 1.39401e-07
0.0179754 1.25156e-08 6.15922e-08
0.0179758 -2.01685e-07 2.17268e-08
0.0179763 -2.67049e-07 2.78034e-09
0.0179768 -2.6162e-07 -5.14845e-09
0.0179772 -2.27191e-07 -7.59382e-09
0.0179775 -1.84936e-07 -7.52965e-09
0.0179777 -1.44682e-07 -6.48327e-09
0.0179779 -1.1027e-07 -5.19286e-09
0.017978 -8.25713e-08 -3.98204e-09
0.0179781 -6.11181e-08 -2.96689e-09
0.0179782 -4.49542e-08 -2.16703e-09
0.0179783 -3.30506e-08 -1.56479e-09
0.0179783 -2.44907e-08 -1.13877e-09
0.0179783 -1.85368e-08 -8.80686e-10
0.0179783 -1.46445e-08 -8.06452e-10
0.0179784 -1.24911e-08 -9.95173e-10
0.0179784 -1.19149e-08 -1.51684e-09
0.0179784 -1.28756e-08 -2.27602e-09
0.0179784 -1.61767e-08 -3.23552e-09
0.0179785 -2.23622e-08 -8.73932e-10
0.0179786 -4.94306e-08 -1.35096e-09
0.0179788 -1.86626e-07 -7.59072e-08
0.0179791 -3.00537e-07 -1.47101e-07
0.01 -1.30081e-07 -1.38553e-06
0.0100008 -0.00301193 -0.000503386
0.0149252 -0.00995612 -0.000799105
0.0240887 -0.0179437 -0.00187143
0.0378025 -0.0314352 -0.00377058
0.0578036 -0.0230392 -0.000942443
0.0553825 -0.0020091 0.00263018
0.0551227 0.00564135 0.0027873
0.049479 0.0105909 0.00250317
0.0440333 0.0106113 0.0016714
0.039543 0.00939975 0.000690236
0.0357285 0.00781849 -9.52709e-05
0.0325844 0.00610807 -0.000528863
0.0302048 0.00447618 -0.000600941
0.0285118 0.00310913 -0.000455557
0.0273574 0.002079 -0.000267053
0.0265959 0.00135274 -0.000126417
0.0261094 0.000860239 -4.66563e-05
0.0258091 0.000534907 -9.79384e-06
0.0256306 0.000324924 3.80147e-06
0.0255289 0.000192502 6.93533e-06
0.0254737 0.000110937 6.23238e-06
0.0254454 6.18914e-05 4.59206e-06
0.0254322 3.31383e-05 3.07067e-06
0.0254269 1.67485e-05 1.93689e-06
0.0254256 7.71214e-06 1.17417e-06
0.0254261 2.93973e-06 6.91053e-07
0.0254273 5.70168e-07 3.97148e-07
0.0254286 -4.91133e-07 2.2358e-07
0.0254298 -8.71662e-07 1.23469e-07
0.0254307 -9.20844e-07 6.68783e-08
0.0254315 -8.26418e-07 3.54727e-08
0.0254321 -6.84517e-07 1.83569e-08
0.0254325 -5.40901e-07 9.20724e-09
0.0254329 -4.14652e-07 4.42429e-09
0.0254331 -3.11425e-07 1.99436e-09
0.0254333 -2.30654e-07 8.08976e-10
0.0254334 -1.69307e-07 2.6788e-10
0.0254335 -1.23748e-07 5.13598e-11
0.0254335 -9.05779e-08 -1.01603e-11
0.0254336 -6.69707e-08 -1.47341e-11
0.0254336 -5.07551e-08 -3.3151e-11
0.0254337 -4.03875e-08 -1.17484e-10
0.0254337 -3.49774e-08 -3.58485e-10
0.0254337 -3.4543e-08 -8.36371e-10
0.0254337 -3.98051e-08 -8.69407e-10
0.0254338 -5.55988e-08 8.21963e-11
0.0254338 -1.03991e-07 3.37641e-09
0.025434 -2.12647e-07 -4.94589e-09
0.0254342 -4.04234e-07 -1.25702e-07
0.0254344 -5.23966e-07 -2.35556e-07
0.0148 -9.56672e-07 -1.68312e-06
0.0148023 -0.00527789 -0.00106185
0.0201667 -0.0161841 -0.00239962
0.0267845 -0.0280075 -0.00421951
0.0312217 -0.0445012 -0.00551097
0.029731 -0.0274189 -0.00102073
0.0263703 -1.15853e-05 0.00295006
0.0261197 0.00730101 0.00296922
0.0302233 0.0150764 0.00282893
0.0306722 0.0147269 0.00190223
0.0296869 0.0129783 0.000896152
0.0286262 0.0109392 6.52898e-05
0.0278193 0.008529 -0.000376932
0.0274824 0.00611561 -0.000464661
0.0274329 0.0041361 -0.000346097
0.0274901 0.00269919 -0.000186039
0.0275617 0.00172 -6.75286e-05
0.0276211 0.00107221 -3.83246e-06
0.0276683 0.000651787 2.07417e-05
0.0277075 0.000384775 2.47689e-05
0.0277404 0.000219615 2.07463e-05
0.0277674 0.000120427 1.49963e-05
0.0277888 6.27148e-05 9.98319e-06
0.0278051 3.02835e-05 6.3033e-06
0.0278171 1.27923e-05 3.83421e-06
0.0278257 3.85533e-06 2.26738e-06
0.0278318 -3.51388e-07 1.31057e-06
0.027836 -2.04998e-06 7.42739e-07
0.0278388 -2.49261e-06 4.13318e-07
0.0278408 -2.36077e-06 2.25843e-07
0.0278422 -2.00961e-06 1.20978e-07
0.0278431 -1.6132e-06 6.32957e-08
0.0278437 -1.24859e-06 3.21201e-08
0.0278442 -9.43172e-07 1.56068e-08
0.0278445 -7.00563e-07 7.0785e-09
0.0278447 -5.14259e-07 2.82584e-09
0.0278448 -3.74498e-07 8.18148e-10
0.0278449 -2.71475e-07 -3.88164e-11
0.027845 -1.96649e-07 -3.23874e-10
0.027845 -1.43131e-07 -3.37592e-10
0.0278451 -1.0565e-07 -2.3738e-10
0.0278451 -8.04019e-08 -1.14395e-10
0.0278451 -6.49202e-08 -1.28192e-11
0.0278451 -5.79271e-08 1.06842e-10
0.0278451 -5.99083e-08 3.80555e-10
0.0278452 -7.61778e-08 1.18033e-09
0.0278452 -1.15882e-07 1.58037e-09
0.0278453 -1.84913e-07 -1.65689e-09
0.0278453 -2.85355e-07 -2.92818e-08
0.0278454 -4.07551e-07 -1.69352e-07
0.0278454 -4.7148e-07 -2.84864e-07
0.018 -1.94608e-06 -1.718e-06
0.0180027 -0.00677466 -0.00187842
0.0204984 -0.0181961 -0.00490333
0.0203166 -0.0238218 -0.00641227
0.0158953 -0.0260195 -0.00740153
-1.45645e-06 -0.0136283 -0.00401529
9.79855e-05 2.8842e-05 8.25847e-07
-3.53002e-05 3.69222e-05 0.000549265
0.00695645 0.00457409 0.00116674
0.0144763 0.0104826 0.00107619
0.0179249 0.0114325 0.000643206
0.0195618 0.0100524 0.00010453
0.0212454 0.00771098 -0.000267639
0.0230157 0.00523716 -0.000355482
0.0246075 0.00333136 -0.000268347
0.0258694 0.00205626 -0.000136336
0.0267741 0.00125094 -3.18922e-05
0.0273805 0.000746673 2.47014e-05
0.0277737 0.000430547 4.30997e-05
0.0280257 0.000235539 4.08588e-05
0.0281866 0.000119514 3.13473e-05
0.0282887 5.38375e-05 2.14816e-05
0.0283532 1.88902e-05 1.37182e-05
0.0283934 1.76691e-06 8.34674e-06
0.0284182 -5.57188e-06 4.89997e-06
0.0284335 -7.87313e-06 2.79566e-06
0.0284428 -7.79942e-06 1.55618e-06
0.0284484 -6.76627e-06 8.46118e-07
0.0284518 -5.47888e-06 4.48721e-07
0.0284539 -4.25636e-06 2.31002e-07
0.0284552 -3.21857e-06 1.14268e-07
0.0284559 -2.38929e-06 5.31872e-08
0.0284564 -1.75073e-06 2.22014e-08
0.0284567 -1.27092e-06 7.15935e-09
0.0284569 -9.16492e-07 3.59885e-10
0.028457 -6.57903e-07 -2.31453e-09
0.0284571 -4.71044e-07 -3.02061e-09
0.0284571 -3.37126e-07 -2.85825e-09
0.0284571 -2.41966e-07 -2.36693e-09
0.0284572 -1.75119e-07 -1.79717e-09
0.0284572 -1.29095e-07 -1.25874e-09
0.0284572 -9.87182e-08 -7.85781e-10
0.0284572 -8.07712e-08 -3.69639e-10
0.0284572 -7.42534e-08 -6.56797e-11
0.0284572 -8.00224e-08 -7.31707e-11
0.0284572 -9.84876e-08 -9.69641e-10
0.0284572 -1.28086e-07 -5.18878e-09
0.0284572 -1.6395e-07 -1.56796e-08
0.0284572 -2.03054e-07 -5.46151e-08
0.0284572 -2.41994e-07 -1.9524e-07
0.028457 -2.60436e-07 -3.04014e-07
0.0196 -2.67739e-06 -2.61408e-06
0.0196008 -0.00555053 -0.00272863
0.0191003 -0.0124496 -0.0064315
0.0161135 -0.0152423 -0.00676303
0.0111716 -0.0141141 -0.00671329
0.00197912 -0.0057736 -0.0047932
7.36537e-05 -6.77122e-05 -0.00113755
3.2412e-05 -3.2412e-05 -4.05597e-08
-3.45114e-05 3.60891e-05 0.000186171
0.00449753 0.00339343 0.000385474
0.0103665 0.00782128 0.000315004
0.0132182 0.00778296 1.04332e-05
0.0164467 0.00535717 -0.000302029
0.0196346 0.00301862 -0.000390413
0.0223963 0.00146133 -0.000332915
0.0245542 0.000618385 -0.000207984
0.0260745 0.000227293 -8.27989e-05
0.027061 5.64284e-05 -9.90595e-07
0.0276706 -1.97543e-05 3.32312e-05
0.0280387 -5.21339e-05 3.76263e-05
0.0282584 -6.11756e-05 3.00088e-05
0.0283882 -5.78038e-05 2.04512e-05
0.0284639 -4.89771e-05 1.27265e-05
0.0285076 -3.88628e-05 7.45895e-06
0.0285325 -2.95632e-05 4.18333e-06
0.0285464 -2.18719e-05 2.26223e-06
0.0285541 -1.58855e-05 1.18157e-06
0.0285583 -1.13976e-05 5.93599e-07
0.0285605 -8.1128e-06 2.83206e-07
0.0285617 -5.7453e-06 1.24482e-07
0.0285623 -4.05585e-06 4.64434e-08
0.0285626 -2.85787e-06 1.02006e-08
0.0285627 -2.01176e-06 -5.05103e-09
0.0285627 -1.41566e-06 -1.01901e-08
0.0285627 -9.96354e-07 -1.07644e-08
0.0285627 -7.01769e-07 -9.51417e-09
0.0285627 -4.9507e-07 -7.73138e-09
0.0285627 -3.50337e-07 -5.9789e-09
0.0285627 -2.49396e-07 -4.46489e-09
0.0285627 -1.79578e-07 -3.23547e-09
0.0285627 -1.32152e-07 -2.28177e-09
0.0285627 -1.01299e-07 -1.60357e-09
0.0285627 -8.3271e-08 -1.25214e-09
0.0285626 -7.52883e-08 -1.50904e-09
0.0285626 -7.45655e-08 -2.93961e-09
0.0285626 -7.78013e-08 -6.00592e-09
0.0285626 -8.1134e-08 -1.26397e-08
0.0285625 -7.82856e-08 -2.49136e-08
0.0285625 -6.03079e-08 -6.51772e-08
0.0285624 -2.20171e-08 -2.01995e-07
0.0285623 2.3266e-09 -3.06197e-07
0.0196 -1.28476e-06 -3.54834e-06
0.0196 -0.00345754 -0.00308178
0.0189415 -0.00742029 -0.0064747
0.017681 -0.007183 -0.00623958
0.0135932 -0.00340083 -0.00569138
0.0095998 0.00309703 -0.00498855
0.00631825 0.00327889 -0.00265554
7.37444e-05 -6.16801e-05 -0.000515428
2.71687e-05 -2.71687e-05 -1.28688e-07
-3.36945e-05 3.53282e-05 5.78349e-05
0.00337793 0.00267111 0.000334931
0.00801149 0.00407432 0.000341037
0.0133822 0.00154394 -2.07421e-05
0.0180403 -0.000427154 -0.000258823
0.0216849 -0.00134873 -0.00036322
0.0243501 -0.00147043 -0.000322778
0.0261232 -0.00119086 -0.000196742
0.027192 -0.000841122 -7.9401e-05
0.0277925 -0.000563478 -1.30986e-05
0.028117 -0.000372868 1.09923e-05
0.0282885 -0.000246549 1.41945e-05
0.0283772 -0.000162833 1.07372e-05
0.0284221 -0.000107255 6.69085e-06
0.028444 -7.0488e-05 3.7367e-06
0.0284541 -4.63082e-05 1.92505e-06
0.0284584 -3.04819e-05 9.17163e-07
0.0284599 -2.01437e-05 3.94181e-07
0.0284601 -1.33835e-05 1.3957e-07
0.0284598 -8.94704e-06 2.47417e-08
0.0284593 -6.01992e-06 -2.10561e-08
0.0284588 -4.07613e-06 -3.47324e-08
0.0284585 -2.7764e-06 -3.46888e-08
0.0284581 -1.90139e-06 -2.96714e-08
0.0284579 -1.30855e-06 -2.35822e-08
0.0284577 -9.04592e-07 -1.79859e-08
0.0284576 -6.2804e-07 -1.33739e-08
0.0284575 -4.38044e-07 -9.77959e-09
0.0284574 -3.07275e-07 -7.0684e-09
0.0284573 -2.17342e-07 -5.06791e-09
0.0284573 -1.55817e-07 -3.62713e-09
0.0284573 -1.14251e-07 -2.65252e-09
0.0284572 -8.67322e-08 -2.14165e-09
0.0284572 -6.88437e-08 -2.19598e-09
0.0284572 -5.6924e-08 -3.05665e-09
0.0284572 -4.74633e-08 -5.0475e-09
0.0284572 -3.64731e-08 -8.26588e-09
0.0284571 -1.88971e-08 -1.45867e-08
0.0284571 1.42674e-08 -2.60306e-08
0.028457 8.11152e-08 -6.22393e-08
0.028457 1.94997e-07 -1.92969e-07
0.0284569 2.64057e-07 -2.94546e-07
0.018 -8.26996e-07 -3.49687e-06
0.0180009 -0.00180932 -0.00301051
0.0184165 -0.00329241 -0.00613444
0.0186374 -0.00182041 -0.0054784
0.0178363 0.00142672 -0.00447442
0.0176938 0.00750151 -0.00387705
0.018358 0.0126723 -0.00257494
0.0113272 0.00693398 -0.00117967
7.53847e-05 -4.79754e-05 -0.000358087
-2.68152e-05 -5.53769e-05 5.55559e-07
7.6821e-06 -0.000326612 0.000782821
0.00904343 -0.00233341 0.00123576
0.0168299 -0.00456609 0.000707194
0.021823 -0.00501749 0.000311819
0.0247097 -0.00452442 -4.84377e-05
0.0263448 -0.00354892 -0.000258661
0.0272433 -0.00245106 -0.000265255
0.0276883 -0.00154319 -0.000173477
0.0278739 -0.000928247 -8.72515e-05
0.0279307 -0.000551949 -3.71005e-05
0.0279334 -0.000329249 -1.42743e-05
0.0279182 -0.000197737 -5.32353e-06
0.0279003 -0.000119638 -2.1119e-06
0.0278849 -7.2994e-05 -9.89996e-07
0.0278731 -4.49759e-05 -5.69142e-07
0.0278646 -2.80268e-05 -3.76384e-07
0.0278586 -1.76805e-05 -2.63543e-07
0.0278544 -1.12954e-05 -1.86389e-07
0.0278516 -7.30648e-06 -1.30871e-07
0.0278496 -4.78228e-06 -9.09235e-08
0.0278482 -3.16428e-06 -6.26147e-08
0.0278473 -2.11425e-06 -4.28715e-08
0.0278466 -1.42495e-06 -2.9272e-08
0.0278462 -9.67751e-07 -1.99802e-08
0.0278459 -6.61745e-07 -1.36592e-08
0.0278456 -4.5538e-07 -9.36572e-09
0.0278455 -3.15388e-07 -6.44959e-09
0.0278454 -2.20044e-07 -4.47108e-09
0.0278453 -1.54996e-07 -3.14028e-09
0.0278452 -1.10617e-07 -2.2793e-09
0.0278452 -8.02908e-08 -1.80354e-09
0.0278452 -5.92767e-08 -1.70316e-09
0.0278452 -4.39062e-08 -2.02084e-09
0.0278451 -3.09475e-08 -2.90762e-09
0.0278451 -1.69912e-08 -4.59356e-09
0.0278451 2.34478e-09 -7.04458e-09
0.0278451 3.3174e-08 -1.20009e-08
0.027845 8.60761e-08 -2.09873e-08
0.027845 1.88318e-07 -4.77804e-08
0.027845 3.64099e-07 -1.66466e-07
0.027845 4.71388e-07 -2.63801e-07
0.0148 -4.71667e-07 -3.0721e-06
0.0148015 -0.000881265 -0.00278506
0.0163628 -0.00117422 -0.00544027
0.0182215 0.000672059 -0.00453503
0.0199378 0.00382936 -0.00341012
0.0219484 0.00760618 -0.00295811
0.0256908 0.0128506 -0.00224298
0.028887 0.0196807 -0.00127434
0.0236283 0.0115724 -0.000200878
0.0240305 5.31951e-11 0.000653185
0.0273335 -0.00677771 0.00153868
0.0314407 -0.0134025 0.00214107
0.0327073 -0.0115665 0.00187643
0.0319907 -0.00833838 0.00142174
0.0304128 -0.00566691 0.000658436
0.0287971 -0.00371115 -2.92919e-05
0.0275519 -0.00229148 -0.000318735
0.0267249 -0.001327 -0.000296782
0.0262119 -0.000738086 -0.000184164
0.0259017 -0.000406212 -9.43178e-05
0.0257159 -0.000225523 -4.3735e-05
0.0256049 -0.000127386 -1.92947e-05
0.0255385 -7.34154e-05 -8.33545e-06
0.0254986 -4.31958e-05 -3.59144e-06
0.0254745 -2.59369e-05 -1.56271e-06
0.0254596 -1.58778e-05 -6.92092e-07
0.0254504 -9.89617e-06 -3.12732e-07
0.0254446 -6.27e-06 -1.43535e-07
0.0254409 -4.03169e-06 -6.60497e-08
0.0254385 -2.62685e-06 -2.97345e-08
0.0254369 -1.73163e-06 -1.25006e-08
0.0254359 -1.15331e-06 -4.37263e-09
0.0254352 -7.75102e-07 -6.76965e-10
0.0254347 -5.25101e-07 8.51823e-10
0.0254344 -3.58309e-07 1.33929e-09
0.0254342 -2.46168e-07 1.34997e-09
0.025434 -1.70304e-07 1.16356e-09
0.0254339 -1.18734e-07 9.1191e-10
0.0254338 -8.35233e-08 6.48556e-10
0.0254338 -5.93091e-08 3.84028e-10
0.0254338 -4.23387e-08 9.97803e-11
0.0254337 -2.98101e-08 -2.47115e-10
0.0254337 -1.9377e-08 -7.19452e-10
0.0254337 -8.70671e-09 -1.44886e-09
0.0254337 4.93379e-09 -2.61451e-09
0.0254337 2.53907e-08 -4.13274e-09
0.0254337 5.8875e-08 -7.19576e-09
0.0254337 1.14856e-07 -1.27907e-08
0.0254337 2.20907e-07 -2.92554e-08
0.0254339 4.04879e-07 -1.29514e-07
0.025434 5.17848e-07 -2.16676e-07
0.01 -9.11139e-07 -2.75333e-06
0.0100007 -0.000547011 -0.00228927
0.0115142 -0.000461139 -0.00422146
0.0137949 0.000894876 -0.0031761