# vtk DataFile Version 2.0
Tobias Weinzierl: CPU, Manycore and Cluster Computing
ASCII

DATASET STRUCTURED_POINTS
DIMENSIONS  51 11 6

ORIGIN 0 0 0 

SPACING 0.1 0.1 0.1 

POINT_DATA 3366

VECTORS velocity float
0 0 0
8.69128e-12 0 0
8.02962e-09 0 0
-2.03882e-08 0 0
-9.39338e-08 0 0
-3.79745e-08 0 0
-2.59728e-08 0 0
-2.06979e-08 0 0
-9.43472e-09 0 0
-3.84272e-10 0 0
-3.83628e-09 0 0
-1.98271e-08 0 0
-3.8432e-08 0 0
-5.02359e-08 0 0
-5.33928e-08 0 0
-5.19432e-08 0 0
-5.01443e-08 0 0
-4.97477e-08 0 0
-5.06185e-08 0 0
-5.20538e-08 0 0
-5.34933e-08 0 0
-5.46659e-08 0 0
-5.55082e-08 0 0
-5.60596e-08 0 0
-5.63917e-08 0 0
-5.65741e-08 0 0
-5.66617e-08 0 0
-5.66936e-08 0 0
-5.66954e-08 0 0
-5.66829e-08 0 0
-5.66651e-08 0 0
-5.66468e-08 0 0
-5.66303e-08 0 0
-5.66164e-08 0 0
-5.66051e-08 0 0
-5.65961e-08 0 0
-5.6589e-08 0 0
-5.65835e-08 0 0
-5.6579e-08 0 0
-5.65754e-08 0 0
-5.65725e-08 0 0
-5.65702e-08 0 0
-5.65684e-08 0 0
-5.65671e-08 0 0
-5.65661e-08 0 0
-5.65654e-08 0 0
-5.65649e-08 0 0
-5.65644e-08 0 0
-5.65639e-08 0 0
-5.65643e-08 0 0
0.00215571 0 0
0 3.91431e-07 0
1.37783e-11 -1.09338e-08 0
1.65125e-08 -1.24585e-08 0
-2.69239e-08 1.15283e-08 0
-1.33375e-07 -1.10314e-08 0
-4.33641e-08 -5.5154e-09 0
-3.99324e-08 5.33532e-08 0
-4.95591e-08 5.81957e-08 0
-3.92973e-08 3.65943e-08 0
-2.29157e-08 2.40217e-08 0
-2.13848e-08 2.49799e-08 0
-4.14482e-08 2.91693e-08 0
-7.0154e-08 2.54346e-08 0
-8.9743e-08 1.44052e-08 0
-9.56916e-08 4.14018e-09 0
-9.56255e-08 -5.25213e-10 0
-9.69147e-08 -7.07102e-10 0
-1.0143e-07 6.05101e-10 0
-1.07752e-07 1.61078e-09 0
-1.1406e-07 1.90687e-09 0
-1.19291e-07 1.71005e-09 0
-1.23139e-07 1.31258e-09 0
-1.25734e-07 9.03425e-10 0
-1.27359e-07 5.66543e-10 0
-1.28307e-07 3.21801e-10 0
-1.28815e-07 1.59406e-10 0
-1.29055e-07 6.00509e-11 0
-1.29142e-07 4.48377e-12 0
-1.29148e-07 -2.29094e-11 0
-1.29117e-07 -3.34515e-11 0
-1.29073e-07 -3.47292e-11 0
-1.29027e-07 -3.14947e-11 0
-1.28986e-07 -2.65284e-11 0
-1.28952e-07 -2.13297e-11 0
-1.28925e-07 -1.66153e-11 0
-1.28903e-07 -1.26538e-11 0
-1.28886e-07 -9.47684e-12 0
-1.28873e-07 -7.00574e-12 0
-1.28863e-07 -5.12175e-12 0
-1.28855e-07 -3.70271e-12 0
-1.28848e-07 -2.63979e-12 0
-1.28843e-07 -1.84308e-12 0
-1.28839e-07 -1.23995e-12 0
-1.28836e-07 -7.72239e-13 0
-1.28834e-07 -3.98813e-13 0
-1.28833e-07 -6.8393e-14 0
-1.28832e-07 3.14231e-13 0
-1.28832e-07 8.30664e-13 0
-1.28833e-07 2.58558e-12 0
-1.28837e-07 9.38548e-12 0
0.0060867 -8.01523e-08 0
0 -2.04132e-08 0
1.17531e-11 -9.49089e-09 0
3.01342e-08 -3.04883e-08 0
2.40499e-08 -6.4427e-08 0
-1.92876e-08 -1.34968e-07 0
5.61638e-08 -9.32313e-08 0
4.99057e-09 2.74972e-08 0
-4.82609e-08 5.00725e-08 0
-7.11706e-08 3.59719e-08 0
-5.62872e-08 2.55781e-08 0
-4.28446e-08 1.57767e-08 0
-5.02616e-08 8.851e-09 0
-7.19753e-08 9.8836e-09 0
-8.78924e-08 1.6721e-08 0
-9.05354e-08 2.31933e-08 0
-8.76219e-08 2.57347e-08 0
-8.718e-08 2.44332e-08 0
-9.11715e-08 2.0836e-08 0
-9.77457e-08 1.63812e-08 0
-1.04551e-07 1.20369e-08 0
-1.10187e-07 8.33439e-09 0
-1.14244e-07 5.46224e-09 0
-1.16874e-07 3.38929e-09 0
-1.18431e-07 1.97948e-09 0
-1.19267e-07 1.07046e-09 0
-1.19659e-07 5.14572e-10 0
-1.19796e-07 1.9417e-10 0
-1.19802e-07 2.30076e-11 0
-1.19747e-07 -5.83227e-11 0
-1.19673e-07 -8.86551e-11 0
-1.19599e-07 -9.2162e-11 0
-1.19533e-07 -8.31444e-11 0
-1.19479e-07 -6.95815e-11 0
-1.19436e-07 -5.55929e-11 0
-1.19402e-07 -4.30569e-11 0
-1.19377e-07 -3.26239e-11 0
-1.19357e-07 -2.43237e-11 0
-1.19343e-07 -1.79107e-11 0
-1.19331e-07 -1.30495e-11 0
-1.19322e-07 -9.40657e-12 0
-1.19315e-07 -6.68886e-12 0
-1.1931e-07 -4.65486e-12 0
-1.19305e-07 -3.10994e-12 0
-1.19303e-07 -1.88556e-12 0
-1.19301e-07 -8.22743e-13 0
-1.193e-07 2.47205e-13 0
-1.193e-07 1.79565e-12 0
-1.193e-07 4.93345e-12 0
-1.19302e-07 1.02204e-11 0
-1.19304e-07 1.71622e-11 0
0.00848335 -1.50402e-07 0
0 -6.30215e-07 0
1.41003e-11 -1.72349e-08 0
4.09015e-08 -5.98308e-08 0
4.93261e-08 -1.18221e-07 0
-4.90382e-09 -1.61952e-07 0
6.15575e-08 -8.63188e-08 0
1.87529e-08 -1.18059e-10 0
-1.94027e-08 -9.51217e-09 0
-7.35187e-08 -3.56321e-08 0
-7.49965e-08 -5.84598e-08 0
-6.81122e-08 -6.1658e-08 0
-8.31784e-08 -4.25614e-08 0
-1.07525e-07 -5.99297e-09 0
-1.21348e-07 2.65367e-08 0
-1.17052e-07 4.17597e-08 0
-1.02465e-07 4.26025e-08 0
-8.78999e-08 3.67585e-08 0
-7.87251e-08 2.91832e-08 0
-7.50125e-08 2.18173e-08 0
-7.45347e-08 1.53756e-08 0
-7.52278e-08 1.01834e-08 0
-7.5972e-08 6.31069e-09 0
-7.63982e-08 3.62294e-09 0
-7.65055e-08 1.87867e-09 0
-7.64054e-08 8.19843e-10 0
-7.6207e-08 2.23524e-10 0
-7.59841e-08 -8.0346e-11 0
-7.57766e-08 -2.10812e-10 0
-7.56015e-08 -2.45722e-10 0
-7.54619e-08 -2.32989e-10 0
-7.53547e-08 -2.00336e-10 0
-7.52744e-08 -1.62687e-10 0
-7.52151e-08 -1.27292e-10 0
-7.51717e-08 -9.70745e-11 0
-7.51401e-08 -7.26825e-11 0
-7.5117e-08 -5.36905e-11 0
-7.50999e-08 -3.92594e-11 0
-7.50871e-08 -2.84741e-11 0
-7.50773e-08 -2.04989e-11 0
-7.50696e-08 -1.46333e-11 0
-7.50636e-08 -1.03165e-11 0
-7.50588e-08 -7.10815e-12 0
-7.50551e-08 -4.66123e-12 0
-7.50525e-08 -2.68991e-12 0
-7.50509e-08 -8.74658e-13 0
-7.50499e-08 1.23719e-12 0
-7.5049e-08 3.9545e-12 0
-7.5048e-08 7.06218e-12 0
-7.50452e-08 1.02846e-11 0
-7.50414e-08 1.37803e-11 0
0.00928051 -1.39751e-07 0
0 -1.21257e-06 0
-5.58264e-12 -3.06122e-08 0
1.8766e-08 -8.23667e-08 0
5.93411e-09 -1.04991e-07 0
-5.33768e-08 -8.09675e-08 0
-2.84978e-11 -2.77665e-08 0
-2.89672e-09 -2.5977e-09 0
2.47128e-09 -2.62261e-09 0
-3.22134e-08 -3.52519e-08 0
-8.99986e-08 -8.68203e-08 0
-1.08471e-07 -9.25293e-08 0
-1.22911e-07 -5.61763e-08 0
-1.41554e-07 -4.30237e-09 0
-1.51019e-07 3.38268e-08 0
-1.45534e-07 4.51106e-08 0
-1.26791e-07 3.9386e-08 0
-1.02967e-07 2.935e-08 0
-8.26798e-08 2.07607e-08 0
-6.92602e-08 1.41835e-08 0
-6.15827e-08 9.07328e-09 0
-5.73356e-08 5.19479e-09 0
-5.48148e-08 2.46844e-09 0
-5.31411e-08 7.39884e-10 0
-5.19393e-08 -2.2735e-10 0
-5.10545e-08 -6.79088e-10 0
-5.04082e-08 -8.18521e-10 0
-4.99454e-08 -7.90377e-10 0
-4.96209e-08 -6.86837e-10 0
-4.93973e-08 -5.6097e-10 0
-4.92453e-08 -4.39998e-10 0
-4.91427e-08 -3.35596e-10 0
-4.90737e-08 -2.50906e-10 0
-4.90271e-08 -1.84882e-10 0
-4.89955e-08 -1.34789e-10 0
-4.89737e-08 -9.75029e-11 0
-4.89584e-08 -7.01253e-11 0
-4.89473e-08 -5.02144e-11 0
-4.8939e-08 -3.58235e-11 0
-4.89326e-08 -2.54539e-11 0
-4.89273e-08 -1.79775e-11 0
-4.89229e-08 -1.2557e-11 0
-4.89193e-08 -8.57184e-12 0
-4.89165e-08 -5.54294e-12 0
-4.89143e-08 -3.07986e-12 0
-4.89125e-08 -9.23412e-13 0
-4.89109e-08 9.80906e-13 0
-4.89086e-08 2.56029e-12 0
-4.89055e-08 3.77871e-12 0
-4.8901e-08 4.89699e-12 0
-4.88958e-08 6.69722e-12 0
0.00949573 -7.62125e-08 0
0 -1.08615e-06 0
-2.28351e-11 -3.1586e-08 0
-1.64702e-09 -6.59562e-08 0
-2.17872e-08 -8.25933e-08 0
-7.64183e-08 -9.6045e-08 0
-4.98677e-08 -4.78166e-08 0
-2.73115e-09 2.66481e-09 0
-1.92005e-10 1.92005e-10 0
2.40158e-09 -2.5417e-09 0
-4.87597e-08 -4.52286e-08 0
-1.17169e-07 -9.46661e-08 0
-1.19912e-07 -6.60242e-08 0
-1.26619e-07 -1.18202e-09 0
-1.38467e-07 4.31246e-08 0
-1.48359e-07 5.08166e-08 0
-1.41977e-07 3.61379e-08 0
-1.19279e-07 1.88814e-08 0
-9.29909e-08 7.58516e-09 0
-7.26273e-08 1.59551e-09 0
-5.98248e-08 -1.50095e-09 0
-5.24641e-08 -3.05535e-09 0
-4.82572e-08 -3.63485e-09 0
-4.5767e-08 -3.57812e-09 0
-4.42397e-08 -3.16508e-09 0
-4.32875e-08 -2.61083e-09 0
-4.2695e-08 -2.05231e-09 0
-4.23309e-08 -1.55934e-09 0
-4.21112e-08 -1.15646e-09 0
-4.1981e-08 -8.43058e-10 0
-4.19053e-08 -6.07175e-10 0
-4.18619e-08 -4.33614e-10 0
-4.18373e-08 -3.07892e-10 0
-4.18234e-08 -2.17801e-10 0
-4.18153e-08 -1.53715e-10 0
-4.18105e-08 -1.08349e-10 0
-4.18072e-08 -7.63299e-11 0
-4.18046e-08 -5.37621e-11 0
-4.18023e-08 -3.78532e-11 0
-4.18e-08 -2.6617e-11 0
-4.17977e-08 -1.86465e-11 0
-4.17953e-08 -1.29456e-11 0
-4.17931e-08 -8.80991e-12 0
-4.1791e-08 -5.76139e-12 0
-4.17892e-08 -3.50658e-12 0
-4.17875e-08 -1.87201e-12 0
-4.17856e-08 -7.30476e-13 0
-4.17833e-08 -8.09392e-15 0
-4.17806e-08 2.58053e-13 0
-4.1777e-08 1.47337e-13 0
-4.17725e-08 3.56086e-13 0
0.00953516 5.90314e-09 0
0 -7.57795e-07 0
-1.30675e-11 -2.34682e-08 0
-2.96319e-09 -5.78295e-08 0
-2.2542e-08 -6.94721e-08 0
-9.54984e-08 -6.20308e-08 0
-1.16538e-07 -3.27523e-08 0
-3.88345e-08 -5.84345e-09 0
-2.72633e-09 2.60102e-09 0
-1.9941e-10 1.9941e-10 0
2.34069e-09 -2.46406e-09 0
-5.15128e-08 -5.08661e-08 0
-6.93433e-08 -6.49628e-08 0
-7.13027e-08 1.05414e-08 0
-8.41385e-08 6.34264e-08 0
-1.13296e-07 6.70116e-08 0
-1.31653e-07 3.93313e-08 0
-1.2297e-07 1.05298e-08 0
-9.91759e-08 -5.91841e-09 0
-7.68842e-08 -1.19642e-08 0
-6.23904e-08 -1.27389e-08 0
-5.46401e-08 -1.13952e-08 0
-5.09459e-08 -9.35515e-09 0
-4.93243e-08 -7.25986e-09 0
-4.86813e-08 -5.40848e-09 0
-4.84798e-08 -3.91164e-09 0
-4.84671e-08 -2.77102e-09 0
-4.85263e-08 -1.93622e-09 0
-4.86044e-08 -1.34154e-09 0
-4.86792e-08 -9.25285e-10 0
-4.87423e-08 -6.37028e-10 0
-4.87923e-08 -4.38586e-10 0
-4.88303e-08 -3.02328e-10 0
-4.88583e-08 -2.08806e-10 0
-4.88783e-08 -1.44553e-10 0
-4.88923e-08 -1.00325e-10 0
-4.89018e-08 -6.98065e-11 0
-4.89079e-08 -4.86854e-11 0
-4.89115e-08 -3.40153e-11 0
-4.89132e-08 -2.37798e-11 0
-4.89135e-08 -1.65986e-11 0
-4.8913e-08 -1.15312e-11 0
-4.8912e-08 -7.94333e-12 0
-4.89108e-08 -5.40943e-12 0
-4.89096e-08 -3.64334e-12 0
-4.89084e-08 -2.46302e-12 0
-4.89072e-08 -1.77345e-12 0
-4.89056e-08 -1.57964e-12 0
-4.89038e-08 -2.09391e-12 0
-4.89011e-08 -3.61039e-12 0
-4.88971e-08 -5.72488e-12 0
0.00949569 8.57941e-08 0
0 -5.32387e-07 0
-1.54169e-12 -1.85023e-08 0
-4.28058e-09 -4.47922e-08 0
-3.21712e-08 -5.2476e-08 0
-9.72656e-08 -3.79046e-08 0
-1.33139e-07 -1.12695e-08 0
-9.71234e-08 -5.68024e-09 0
-4.56076e-08 -6.12303e-09 0
-2.71255e-09 2.48862e-09 0
2.26483e-09 2.56308e-09 0
-6.41255e-11 -2.59949e-08 0
-5.44546e-08 -2.61445e-08 0
-6.13857e-08 3.35276e-08 0
-3.99488e-08 7.87627e-08 0
-4.57996e-08 7.63588e-08 0
-7.71222e-08 4.12356e-08 0
-9.62546e-08 6.00341e-09 0
-9.33474e-08 -1.34298e-08 0
-8.23625e-08 -1.92001e-08 0
-7.40538e-08 -1.80848e-08 0
-7.04111e-08 -1.46337e-08 0
-6.98034e-08 -1.09443e-08 0
-7.05063e-08 -7.80171e-09 0
-7.1538e-08 -5.39539e-09 0
-7.24883e-08 -3.66413e-09 0
-7.32395e-08 -2.46517e-09 0
-7.3793e-08 -1.65315e-09 0
-7.41865e-08 -1.10943e-09 0
-7.44609e-08 -7.46849e-10 0
-7.46503e-08 -5.04938e-10 0
-7.47805e-08 -3.43012e-10 0
-7.48696e-08 -2.34125e-10 0
-7.49305e-08 -1.60532e-10 0
-7.49719e-08 -1.1054e-10 0
-7.49999e-08 -7.64156e-11 0
-7.50186e-08 -5.30163e-11 0
-7.50309e-08 -3.68998e-11 0
-7.50385e-08 -2.57494e-11 0
-7.5043e-08 -1.79996e-11 0
-7.50452e-08 -1.25899e-11 0
-7.5046e-08 -8.8012e-12 0
-7.50459e-08 -6.14643e-12 0
-7.50454e-08 -4.3015e-12 0
-7.50448e-08 -3.06301e-12 0
-7.50441e-08 -2.32616e-12 0
-7.50435e-08 -2.07833e-12 0
-7.50424e-08 -2.39411e-12 0
-7.50414e-08 -3.59336e-12 0
-7.50396e-08 -6.58267e-12 0
-7.50367e-08 -1.18266e-11 0
0.00928044 1.41292e-07 0
0 -4.58898e-07 0
8.83293e-12 -1.12899e-08 0
-7.92424e-09 -3.01418e-08 0
-4.7701e-08 -3.8293e-08 0
-1.12344e-07 -2.74744e-08 0
-1.47652e-07 8.15905e-10 0
-1.24671e-07 7.76049e-09 0
-9.88894e-08 -3.20861e-08 0
-5.8567e-08 -3.10065e-08 0
-4.75302e-08 1.52044e-12 0
-6.23883e-08 1.35394e-08 0
-1.31517e-07 3.47484e-08 0
-1.38396e-07 4.44629e-08 0
-6.61739e-08 4.44623e-08 0
-1.9243e-08 3.49908e-08 0
-4.25949e-08 1.85684e-08 0
-8.4485e-08 2.87269e-09 0
-1.05064e-07 -6.81858e-09 0
-1.08502e-07 -1.01264e-08 0
-1.07947e-07 -9.6205e-09 0
-1.08568e-07 -7.73766e-09 0
-1.10423e-07 -5.73881e-09 0
-1.12586e-07 -4.07287e-09 0
-1.14488e-07 -2.82122e-09 0
-1.15955e-07 -1.93079e-09 0
-1.17012e-07 -1.31561e-09 0
-1.17748e-07 -8.96474e-10 0
-1.18251e-07 -6.12241e-10 0
-1.18592e-07 -4.19408e-10 0
-1.18823e-07 -2.88221e-10 0
-1.18979e-07 -1.9866e-10 0
-1.19085e-07 -1.37303e-10 0
-1.19157e-07 -9.51376e-11 0
-1.19206e-07 -6.60804e-11 0
-1.19239e-07 -4.60068e-11 0
-1.19261e-07 -3.21062e-11 0
-1.19275e-07 -2.24565e-11 0
-1.19284e-07 -1.57396e-11 0
-1.1929e-07 -1.105e-11 0
-1.19292e-07 -7.76638e-12 0
-1.19294e-07 -5.46407e-12 0
-1.19294e-07 -3.85758e-12 0
-1.19294e-07 -2.76304e-12 0
-1.19293e-07 -2.07401e-12 0
-1.19293e-07 -1.74834e-12 0
-1.19293e-07 -1.82858e-12 0
-1.19293e-07 -2.45073e-12 0
-1.19292e-07 -3.93004e-12 0
-1.19292e-07 -7.57863e-12 0
-1.19292e-07 -1.50009e-11 0
0.00848329 1.3891e-07 0
0 -4.7831e-07 0
2.08897e-11 -4.09756e-09 0
-1.22624e-08 -1.30573e-08 0
-5.76596e-08 -1.79252e-08 0
-1.15729e-07 -1.33581e-08 0
-1.49071e-07 -5.95724e-09 0
-1.33303e-07 -3.96864e-09 0
-1.13579e-07 -2.03017e-08 0
-1.30314e-07 -2.31177e-08 0
-1.16985e-07 7.08712e-09 0
-1.09387e-07 4.13083e-08 0
-1.13571e-07 5.61932e-08 0
-9.64433e-08 3.71174e-08 0
-4.42768e-08 1.41693e-09 0
-2.18291e-08 -2.55582e-08 0
-5.5767e-08 -3.03356e-08 0
-1.00874e-07 -1.82906e-08 0
-1.23136e-07 -4.67784e-09 0
-1.26843e-07 2.07357e-09 0
-1.2507e-07 3.12665e-09 0
-1.238e-07 2.05299e-09 0
-1.23854e-07 8.72711e-10 0
-1.24633e-07 1.37392e-10 0
-1.2559e-07 -1.99993e-10 0
-1.26453e-07 -3.01573e-10 0
-1.27137e-07 -2.92465e-10 0
-1.27647e-07 -2.43596e-10 0
-1.28013e-07 -1.88407e-10 0
-1.28271e-07 -1.39887e-10 0
-1.28451e-07 -1.01418e-10 0
-1.28575e-07 -7.24905e-11 0
-1.2866e-07 -5.13758e-11 0
-1.28719e-07 -3.6232e-11 0
-1.28759e-07 -2.5485e-11 0
-1.28786e-07 -1.79067e-11 0
-1.28804e-07 -1.25821e-11 0
-1.28815e-07 -8.84705e-12 0
-1.28823e-07 -6.22729e-12 0
-1.28827e-07 -4.38783e-12 0
-1.28829e-07 -3.09485e-12 0
-1.28829e-07 -2.18758e-12 0
-1.28829e-07 -1.55856e-12 0
-1.28829e-07 -1.14122e-12 0
-1.28828e-07 -9.01123e-13 0
-1.28828e-07 -8.33409e-13 0
-1.28828e-07 -9.80693e-13 0
-1.28828e-07 -1.45122e-12 0
-1.28829e-07 -2.39073e-12 0
-1.2883e-07 -4.47099e-12 0
-1.28834e-07 -9.25104e-12 0
0.00608672 6.45552e-08 0
0 0 0
1.37644e-11 0 0
-6.81839e-09 0 0
-2.85686e-08 0 0
-5.32524e-08 0 0
-6.78549e-08 0 0
-6.69521e-08 0 0
-6.0237e-08 0 0
-7.18559e-08 0 0
-6.95328e-08 0 0
-4.70641e-08 0 0
-1.87038e-08 0 0
-4.6661e-10 0 0
5.67613e-09 0 0
-6.73011e-09 0 0
-3.2353e-08 0 0
-5.3476e-08 0 0
-6.17906e-08 0 0
-6.15872e-08 0 0
-5.90186e-08 0 0
-5.69702e-08 0 0
-5.59331e-08 0 0
-5.56045e-08 0 0
-5.5632e-08 0 0
-5.57918e-08 0 0
-5.59731e-08 0 0
-5.61321e-08 0 0
-5.62575e-08 0 0
-5.63509e-08 0 0
-5.64184e-08 0 0
-5.64662e-08 0 0
-5.64996e-08 0 0
-5.65226e-08 0 0
-5.65383e-08 0 0
-5.65489e-08 0 0
-5.65559e-08 0 0
-5.65604e-08 0 0
-5.6563e-08 0 0
-5.65644e-08 0 0
-5.6565e-08 0 0
-5.6565e-08 0 0
-5.65647e-08 0 0
-5.65643e-08 0 0
-5.6564e-08 0 0
-5.65638e-08 0 0
-5.65637e-08 0 0
-5.65638e-08 0 0
-5.65642e-08 0 0
-5.6565e-08 0 0
-5.65674e-08 0 0
0.00215574 0 0
0 0 5.34312e-07
1.93339e-11 0 2.90305e-09
2.25595e-08 0 3.28428e-08
-1.48515e-08 0 9.04132e-08
-2.45226e-07 0 2.8619e-08
-1.0043e-07 0 -6.24253e-08
-4.77332e-08 0 -7.06254e-08
-1.06417e-08 0 -7.47461e-08
2.59871e-08 0 -5.69214e-08
5.61042e-08 0 -2.96285e-08
6.25507e-08 0 -5.54313e-09
3.76556e-08 0 5.4182e-09
-5.4343e-09 0 4.96416e-09
-4.57397e-08 0 5.47705e-10
-7.1761e-08 0 -2.43644e-09
-8.57362e-08 0 -2.72386e-09
-9.46822e-08 0 -1.48857e-09
-1.02772e-07 0 -1.32228e-10
-1.10683e-07 0 6.9238e-10
-1.17737e-07 0 9.63903e-10
-1.23364e-07 0 8.97517e-10
-1.2745e-07 0 6.97955e-10
-1.30199e-07 0 4.8685e-10
-1.3193e-07 0 3.14766e-10
-1.32951e-07 0 1.91765e-10
-1.33507e-07 0 1.10848e-10
-1.33779e-07 0 6.07289e-11
-1.33886e-07 0 3.11869e-11
-1.33904e-07 0 1.45674e-11
-1.33879e-07 0 5.68272e-12
-1.33837e-07 0 1.23637e-12
-1.33793e-07 0 -7.69927e-13
-1.33752e-07 0 -1.50091e-12
-1.33717e-07 0 -1.61023e-12
-1.33689e-07 0 -1.44984e-12
-1.33667e-07 0 -1.19965e-12
-1.33649e-07 0 -9.44818e-13
-1.33635e-07 0 -7.20435e-13
-1.33625e-07 0 -5.36345e-13
-1.33616e-07 0 -3.90401e-13
-1.33609e-07 0 -2.75405e-13
-1.33604e-07 0 -1.82441e-13
-1.336e-07 0 -1.00101e-13
-1.33597e-07 0 -1.36935e-14
-1.33595e-07 0 8.72366e-14
-1.33593e-07 0 2.27291e-13
-1.33593e-07 0 4.45797e-13
-1.33592e-07 0 6.11595e-13
-1.33593e-07 0 1.35672e-12
-1.33596e-07 0 6.37569e-12
0.00605539 0 -3.2925e-08
0.0036 -2.82769e-07 -4.63483e-08
0.00359982 -0.00130158 1.35238e-05
0.00675101 -0.00381478 3.53402e-05
0.0136274 -0.00639719 -0.00104779
0.0240235 -0.0143366 -0.00474466
0.0461055 -0.0124701 -0.00495548
0.049443 -0.00150777 -0.0016838
0.0491177 0.00289054 -0.000162893
0.0439785 0.00515974 0.000580958
0.0382591 0.00532203 0.000551474
0.0331316 0.00461615 0.000239509
0.0288963 0.00359914 -9.46649e-05
0.0255822 0.00254991 -0.000315171
0.0231025 0.00166951 -0.000369579
0.0213141 0.00105136 -0.000298735
0.0200587 0.000667129 -0.000186515
0.0191976 0.000435472 -9.32185e-05
0.0186208 0.000289227 -3.619e-05
0.0182445 0.000191243 -8.34182e-06
0.0180061 0.000123901 2.40773e-06
0.0178595 7.80312e-05 5.05185e-06
0.0177722 4.75966e-05 4.60031e-06
0.0177219 2.80307e-05 3.35664e-06
0.0176941 1.58529e-05 2.18989e-06
0.0176794 8.51854e-06 1.32813e-06
0.0176723 4.25365e-06 7.60554e-07
0.0176692 1.87261e-06 4.1259e-07
0.0176683 6.11144e-07 2.10432e-07
0.0176683 -7.71324e-09 9.84407e-08
0.0176688 -2.72615e-07 3.94261e-08
0.0176694 -3.52829e-07 1.023e-08
0.01767 -3.44235e-07 -2.88201e-09
0.0176705 -2.98908e-07 -7.73718e-09
0.0176709 -2.43574e-07 -8.63139e-09
0.0176712 -1.90798e-07 -7.82797e-09
0.0176714 -1.45569e-07 -6.4596e-09
0.0176716 -1.09056e-07 -5.05167e-09
0.0176717 -8.06861e-08 -3.81653e-09
0.0176718 -5.92274e-08 -2.81397e-09
0.0176719 -4.33371e-08 -2.03735e-09
0.0176719 -3.18041e-08 -1.462e-09
0.017672 -2.3639e-08 -1.07001e-09
0.017672 -1.80861e-08 -8.56397e-10
0.017672 -1.46457e-08 -8.67255e-10
0.017672 -1.30414e-08 -1.17096e-09
0.0176721 -1.30723e-08 -1.61729e-09
0.0176721 -1.51864e-08 -2.01865e-09
0.0176721 -2.00185e-08 3.39302e-10
0.0176722 -4.14979e-08 1.71406e-09
0.0176724 -1.52246e-07 -5.33056e-08
0.0176726 -2.44654e-07 -1.07172e-07
0.01 -1.37061e-07 -1.41605e-06
0.0100008 -0.00299645 -0.00052754
0.0148899 -0.00990429 -0.000749079
0.0241157 -0.0178291 -0.00163425
0.0379943 -0.0317538 -0.00361829
0.0581461 -0.0235765 -0.000862674
0.055606 -0.00220633 0.0028219
0.0552469 0.00554992 0.00294313
0.0495503 0.010554 0.00258285
0.0440848 0.010618 0.00173851
0.0396098 0.00941492 0.00079881
0.035863 0.00784305 2.72355e-05
0.0327816 0.00617574 -0.000457922
0.0304094 0.00459966 -0.000605644
0.0286718 0.0032636 -0.000504671
0.0274488 0.00223142 -0.000319338
0.0266174 0.00148357 -0.000161886
0.0260706 0.000963254 -6.44755e-05
0.0257233 0.000611081 -1.61375e-05
0.0255111 0.000378328 3.08726e-06
0.0253868 0.000228184 8.27697e-06
0.0253175 0.000133729 7.93384e-06
0.0252811 7.58189e-05 6.03029e-06
0.0252634 4.12513e-05 4.11408e-06
0.025256 2.1209e-05 2.63417e-06
0.0252539 9.97437e-06 1.61633e-06
0.0252542 3.93948e-06 9.61045e-07
0.0252555 8.85626e-07 5.57116e-07
0.025257 -5.17215e-07 3.15885e-07
0.0252585 -1.04533e-06 1.75391e-07
0.0252597 -1.13861e-06 9.53108e-08
0.0252606 -1.03757e-06 5.05654e-08
0.0252614 -8.67768e-07 2.60551e-08
0.0252619 -6.90374e-07 1.29144e-08
0.0252624 -5.31863e-07 6.04567e-09
0.0252627 -4.0089e-07 2.57171e-09
0.0252629 -2.97617e-07 8.97069e-10
0.025263 -2.18683e-07 1.52967e-10
0.0252631 -1.59709e-07 -1.24131e-10
0.0252632 -1.16466e-07 -1.76816e-10
0.0252633 -8.53559e-08 -1.37e-10
0.0252633 -6.35501e-08 -9.14263e-11
0.0252634 -4.89612e-08 -9.13389e-11
0.0252634 -4.0203e-08 -1.93999e-10
0.0252634 -3.68152e-08 -5.00442e-10
0.0252634 -3.91254e-08 -4.14366e-10
0.0252635 -5.05221e-08 8.80744e-10
0.0252635 -8.8684e-08 4.3212e-09
0.0252637 -1.78352e-07 -4.3912e-10
0.0252638 -3.43989e-07 -9.32745e-08
0.025264 -4.49403e-07 -1.78923e-07
0.0148 -9.52701e-07 -1.70367e-06
0.0148023 -0.0052746 -0.001084
0.020223 -0.0162154 -0.00237967
0.0269782 -0.0281671 -0.004101
0.0314439 -0.0449218 -0.00559041
0.0299535 -0.0277146 -0.00111713
0.0264506 -1.17419e-05 0.003094
0.0261011 0.00725131 0.0031397
0.0300749 0.0149405 0.00297495
0.0305456 0.0145523 0.00202976
0.0296357 0.0128208 0.00103473
0.028632 0.0108722 0.000181019
0.0278386 0.00861334 -0.00032776
0.0274819 0.0063193 -0.000482078
0.0274149 0.00437678 -0.000394858
0.0274711 0.00291789 -0.000232156
0.0275517 0.00189634 -9.61631e-05
0.0276207 0.00120606 -1.54036e-05
0.0276744 0.000748713 1.99028e-05
0.0277176 0.000451514 2.86258e-05
0.0277538 0.000263139 2.56018e-05
0.027784 0.000147244 1.92151e-05
0.0278085 7.82527e-05 1.31268e-05
0.0278277 3.86431e-05 8.4538e-06
0.0278422 1.68352e-05 5.22674e-06
0.0278528 5.45344e-06 3.13467e-06
0.0278603 -3.97054e-08 1.83479e-06
0.0278656 -2.34522e-06 1.05184e-06
0.0278693 -3.01861e-06 5.91621e-07
0.0278719 -2.92413e-06 3.26584e-07
0.0278736 -2.52161e-06 1.7671e-07
0.0278748 -2.04178e-06 9.34216e-08
0.0278757 -1.59014e-06 4.79587e-08
0.0278762 -1.20671e-06 2.36348e-08
0.0278766 -8.99383e-07 1.0935e-08
0.0278769 -6.6181e-07 4.51812e-09
0.0278771 -4.8265e-07 1.43156e-09
0.0278772 -3.49965e-07 6.91618e-11
0.0278773 -2.53117e-07 -4.26346e-10
0.0278773 -1.83388e-07 -5.02657e-10
0.0278774 -1.34005e-07 -3.91901e-10
0.0278774 -9.99491e-08 -2.22893e-10
0.0278774 -7.77848e-08 -5.73308e-11
0.0278775 -6.54428e-08 1.46996e-10
0.0278775 -6.24599e-08 5.15192e-10
0.0278775 -7.2571e-08 1.48064e-09
0.0278776 -1.03755e-07 2.73122e-09
0.0278776 -1.62776e-07 9.75734e-10
0.0278777 -2.52671e-07 -2.11872e-08
0.0278777 -3.61948e-07 -1.32623e-07
0.0278777 -4.18385e-07 -2.24205e-07
0.018 -1.9358e-06 -1.70723e-06
0.0180028 -0.00682618 -0.00188415
0.0205621 -0.0183746 -0.00489412
0.0204051 -0.0240562 -0.00635639
0.0159233 -0.0262355 -0.00748464
-1.49845e-06 -0.013737 -0.00413929
9.73986e-05 2.80722e-05 8.53731e-07
-3.46707e-05 3.62108e-05 0.000575868
0.00686993 0.00446152 0.00123012
0.0142577 0.0102342 0.00115001
0.0177115 0.0112176 0.00071911
0.0193611 0.00999319 0.000165344
0.0210299 0.00783859 -0.000247759
0.0227831 0.00547686 -0.00037539
0.0243834 0.00357358 -0.000308311
0.0256918 0.00224531 -0.000175911
0.0266654 0.00138448 -5.82244e-05
0.027339 0.000839586 1.42575e-05
0.0277854 0.000494391 4.3999e-05
0.028076 0.000277276 4.69702e-05
0.0282641 0.000144561 3.83622e-05
0.0283855 6.71533e-05 2.73961e-05
0.0284633 2.47027e-05 1.80313e-05
0.0285127 3.25088e-06 1.1234e-05
0.0285438 -6.29159e-06 6.72607e-06
0.0285632 -9.51016e-06 3.90405e-06
0.0285751 -9.64841e-06 2.20767e-06
0.0285824 -8.48513e-06 1.21885e-06
0.0285869 -6.93361e-06 6.568e-07
0.0285897 -5.42177e-06 3.44376e-07
0.0285913 -4.11969e-06 1.7442e-07
0.0285924 -3.06937e-06 8.40828e-08
0.028593 -2.25525e-06 3.73801e-08
0.0285934 -1.64055e-06 1.41155e-08
0.0285936 -1.18477e-06 3.15827e-09
0.0285938 -8.51252e-07 -1.51774e-09
0.0285939 -6.09603e-07 -3.11212e-09
0.028594 -4.35939e-07 -3.28349e-09
0.028594 -3.12089e-07 -2.86331e-09
0.028594 -2.24568e-07 -2.24841e-09
0.028594 -1.63607e-07 -1.61938e-09
0.0285941 -1.22319e-07 -1.04504e-09
0.0285941 -9.61339e-08 -5.12687e-10
0.0285941 -8.28898e-08 -2.14561e-11
0.0285941 -8.26812e-08 2.77561e-10
0.0285941 -9.58648e-08 -1.37116e-11
0.0285941 -1.21171e-07 -2.64838e-09
0.0285941 -1.537e-07 -1.11033e-08
0.0285941 -1.89521e-07 -4.49606e-08
0.028594 -2.2167e-07 -1.58e-07
0.0285939 -2.35135e-07 -2.43389e-07
0.0196 -2.70557e-06 -2.59394e-06
0.0196009 -0.0056323 -0.00273534
0.0190914 -0.0126059 -0.00642792
0.016082 -0.0154549 -0.00670415
0.011119 -0.0143712 -0.00670808
0.00191364 -0.0058926 -0.00489226
7.30612e-05 -6.71468e-05 -0.00119323
3.24761e-05 -3.24761e-05 -3.95278e-08
-3.39326e-05 3.54088e-05 0.000201965
0.00436902 0.00326942 0.000420448
0.0100918 0.00760682 0.00034825
0.0129693 0.00772198 2.9747e-05
0.0161973 0.00550983 -0.000299815
0.0193579 0.00327998 -0.000401982
0.0220945 0.00169341 -0.00035767
0.0242825 0.000756122 -0.000243483
0.0258883 0.000286578 -0.000115978
0.0269739 7.56985e-05 -2.04503e-05
0.0276661 -1.6773e-05 2.80265e-05
0.0280935 -5.63998e-05 4.07699e-05
0.0283531 -6.92838e-05 3.58187e-05
0.0285091 -6.75858e-05 2.58558e-05
0.0286016 -5.87631e-05 1.67383e-05
0.0286559 -4.76029e-05 1.01046e-05
0.0286872 -3.68019e-05 5.8038e-06
0.028705 -2.75653e-05 3.20464e-06
0.0287149 -2.02066e-05 1.70798e-06
0.0287204 -1.45972e-05 8.77476e-07
0.0287234 -1.04419e-05 4.31057e-07
0.028725 -7.42114e-06 1.98472e-07
0.0287257 -5.2522e-06 8.15361e-08
0.0287261 -3.70747e-06 2.54713e-08
0.0287263 -2.61305e-06 5.26082e-10
0.0287264 -1.84028e-06 -9.07689e-09
0.0287264 -1.29578e-06 -1.15017e-08
0.0287264 -9.12708e-07 -1.08524e-08
0.0287264 -6.43542e-07 -9.11316e-09
0.0287264 -4.54726e-07 -7.18589e-09
0.0287263 -3.22655e-07 -5.43586e-09
0.0287263 -2.30802e-07 -3.97264e-09
0.0287263 -1.67688e-07 -2.80276e-09
0.0287263 -1.25535e-07 -1.92e-09
0.0287263 -9.92656e-08 -1.33909e-09
0.0287263 -8.53079e-08 -1.24956e-09
0.0287263 -8.04086e-08 -2.17953e-09
0.0287263 -8.08534e-08 -4.53688e-09
0.0287263 -8.25012e-08 -9.68225e-09
0.0287262 -7.92511e-08 -2.01717e-08
0.0287262 -6.20754e-08 -5.5866e-08
0.0287261 -2.30071e-08 -1.65066e-07
0.0287259 2.73699e-09 -2.4549e-07
0.0196 -1.29173e-06 -3.54304e-06
0.0196 -0.00351861 -0.00309326
0.0189064 -0.00759064 -0.00646488
0.0176592 -0.00740452 -0.00615423
0.0135001 -0.00359484 -0.00565213
0.00946529 0.00299791 -0.00511266
0.00627267 0.00326155 -0.00279318
7.3167e-05 -6.11265e-05 -0.00055374
2.71939e-05 -2.71939e-05 -1.27702e-07
-3.31933e-05 3.4672e-05 6.50855e-05
0.00325146 0.00256737 0.000334808
0.00785905 0.00400028 0.0003181
0.0132365 0.00172076 -3.78384e-05
0.0178712 -0.000108264 -0.000244598
0.0214565 -0.00107865 -0.000339477
0.024106 -0.00136126 -0.000325438
0.0259431 -0.0012131 -0.000224211
0.0271106 -0.000914352 -0.000107567
0.0277968 -0.000637537 -2.87109e-05
0.0281795 -0.000432619 6.52077e-06
0.028386 -0.000291664 1.5139e-05
0.0284946 -0.000196082 1.30751e-05
0.0285501 -0.000131313 8.73364e-06
0.0285774 -8.75782e-05 5.10858e-06
0.0285902 -5.82523e-05 2.72999e-06
0.0285956 -3.87271e-05 1.34833e-06
0.0285975 -2.57907e-05 6.07893e-07
0.0285977 -1.72357e-05 2.36796e-07
0.0285973 -1.15725e-05 6.36655e-08
0.0285967 -7.8114e-06 -9.32345e-09
0.0285962 -5.30158e-06 -3.45283e-08
0.0285957 -3.61732e-06 -3.85853e-08
0.0285953 -2.48039e-06 -3.43996e-08
0.0285949 -1.70851e-06 -2.78682e-08
0.0285947 -1.18172e-06 -2.14566e-08
0.0285945 -8.20543e-07 -1.60272e-08
0.0285944 -5.72034e-07 -1.17411e-08
0.0285943 -4.00658e-07 -8.48647e-09
0.0285942 -2.82442e-07 -6.07224e-09
0.0285942 -2.01146e-07 -4.31412e-09
0.0285942 -1.45721e-07 -3.08101e-09
0.0285941 -1.08508e-07 -2.33573e-09
0.0285941 -8.39e-08 -2.14069e-09
0.0285941 -6.74209e-08 -2.68036e-09
0.0285941 -5.50403e-08 -4.28228e-09
0.028594 -4.25134e-08 -6.95017e-09
0.028594 -2.48259e-08 -1.18613e-08
0.028594 6.24652e-09 -2.15356e-08
0.0285939 6.76805e-08 -5.32609e-08
0.0285939 1.74143e-07 -1.55874e-07
0.0285937 2.39433e-07 -2.33102e-07
0.018 -8.36381e-07 -3.49976e-06
0.0180009 -0.00186503 -0.00301894
0.0183899 -0.00344744 -0.00612129
0.0185705 -0.00202575 -0.00539373
0.0177107 0.00125775 -0.00439642
0.0175324 0.00743503 -0.003928
0.0182239 0.0126675 -0.00270042
0.0112415 0.00693268 -0.00125591
7.47659e-05 -4.74871e-05 -0.000374717
-2.63242e-05 -5.49119e-05 5.50843e-07
7.68384e-06 -0.000383379 0.000769046
0.00888578 -0.00236036 0.0011881
0.0166356 -0.00439319 0.000659878
0.0217017 -0.00468189 0.000337284
0.024658 -0.00421476 4.28433e-05
0.0263214 -0.00343261 -0.000185498
0.0272409 -0.00251629 -0.000251933
0.0277127 -0.00167805 -0.000195181
0.0279193 -0.00105354 -0.000111686
0.0279858 -0.000644719 -5.25508e-05
0.0279895 -0.000392507 -2.18234e-05
0.027971 -0.000239601 -8.53088e-06
0.0279485 -0.000146997 -3.40064e-06
0.0279289 -9.07621e-05 -1.52589e-06
0.0279137 -5.64911e-05 -8.21775e-07
0.0279027 -3.55021e-05 -5.16523e-07
0.0278949 -2.25564e-05 -3.51198e-07
0.0278895 -1.4498e-05 -2.44222e-07
0.0278858 -9.42712e-06 -1.69396e-07
0.0278832 -6.19827e-06 -1.16351e-07
0.0278815 -4.11739e-06 -7.91547e-08
0.0278803 -2.76051e-06 -5.34792e-08
0.0278794 -1.86599e-06 -3.59959e-08
0.0278788 -1.27041e-06 -2.42049e-08
0.0278784 -8.70404e-07 -1.62978e-08
0.0278781 -5.99778e-07 -1.10074e-08
0.0278779 -4.15612e-07 -7.46784e-09
0.0278778 -2.89759e-07 -5.09847e-09
0.0278777 -2.03563e-07 -3.51754e-09
0.0278776 -1.44495e-07 -2.48577e-09
0.0278776 -1.03968e-07 -1.87779e-09
0.0278776 -7.5899e-08 -1.6594e-09
0.0278775 -5.57239e-08 -1.84319e-09
0.0278775 -3.96522e-08 -2.51811e-09
0.0278775 -2.40057e-08 -3.90616e-09
0.0278774 -4.42054e-09 -5.8905e-09
0.0278774 2.49474e-08 -9.52234e-09
0.0278774 7.36158e-08 -1.68773e-08
0.0278774 1.65622e-07 -3.95107e-08
0.0278774 3.22803e-07 -1.302e-07
0.0278774 4.18695e-07 -2.0308e-07
0.0148 -4.73152e-07 -3.08491e-06
0.0148015 -0.000926151 -0.00279055
0.0163234 -0.00130458 -0.00541316
0.0181026 0.000497388 -0.00444357
0.0197226 0.00369518 -0.00332225
0.0216805 0.00758245 -0.00295888
0.0254582 0.0128934 -0.00230873
0.0286837 0.0196375 -0.00133648
0.0234903 0.0115076 -0.00023282
0.0239029 6.97239e-11 0.000656121
0.0271562 -0.00671229 0.00156293
0.0311096 -0.0132658 0.00212103
0.0323193 -0.0114389 0.00178886
0.0317105 -0.00821421 0.00140034
0.0303218 -0.00555106 0.000783846
0.0288341 -0.00366803 0.000133744
0.027612 -0.00233662 -0.000236108
0.0267482 -0.00141075 -0.000294488
0.0261846 -0.000815035 -0.000210807
0.0258303 -0.000461837 -0.000118582
0.0256114 -0.000262115 -5.86815e-05
0.0254774 -0.000150694 -2.71058e-05
0.0253958 -8.81655e-05 -1.20974e-05
0.025346 -5.25729e-05 -5.33001e-06
0.0253155 -3.1958e-05 -2.35115e-06
0.0252967 -1.97924e-05 -1.04748e-06
0.0252849 -1.24742e-05 -4.72937e-07
0.0252775 -7.98812e-06 -2.15698e-07
0.0252727 -5.1886e-06 -9.81992e-08
0.0252697 -3.41253e-06 -4.3537e-08
0.0252676 -2.26891e-06 -1.78652e-08
0.0252663 -1.52276e-06 -5.90721e-09
0.0252654 -1.03028e-06 -5.53194e-10
0.0252648 -7.01988e-07 1.60832e-09
0.0252643 -4.81273e-07 2.25366e-09
0.0252641 -3.31841e-07 2.21561e-09
0.0252639 -2.301e-07 1.90442e-09
0.0252637 -1.60527e-07 1.51396e-09
0.0252636 -1.12771e-07 1.12586e-09
0.0252636 -7.98124e-08 7.63045e-10
0.0252635 -5.6765e-08 4.13307e-10
0.0252635 -4.00625e-08 3.83339e-11
0.0252635 -2.68685e-08 -4.08557e-10
0.0252634 -1.45769e-08 -1.01695e-09
0.0252634 -3.65388e-10 -1.96104e-09
0.0252634 1.94126e-08 -3.10419e-09
0.0252634 5.04269e-08 -5.11306e-09
0.0252634 1.01009e-07 -9.44607e-09
0.0252635 1.93486e-07 -2.2439e-08
0.0252636 3.49164e-07 -9.71231e-08
0.0252637 4.43779e-07 -1.61721e-07
0.01 -9.10171e-07 -2.77189e-06
0.0100007 -0.000573608 -0.00228546
0.0114541 -0.00053278 -0.00418238
0.0136187 0.000809029 -0.00309468