# vtk DataFile Version 2.0
Tobias Weinzierl: CPU, Manycore and Cluster Computing
ASCII

DATASET STRUCTURED_POINTS
DIMENSIONS  51 11 6

ORIGIN 0 0 0 

SPACING 0.1 0.1 0.1 

POINT_DATA 3366

VECTORS velocity float
0 0 0
-4.45768e-11 0 0
-3.61409e-07 0 0
-5.17285e-07 0 0
-4.40044e-07 0 0
-1.27736e-07 0 0
-1.10073e-07 0 0
-2.1276e-07 0 0
-3.29231e-07 0 0
-4.03208e-07 0 0
-4.19118e-07 0 0
-4.10227e-07 0 0
-4.00008e-07 0 0
-3.94965e-07 0 0
-3.94898e-07 0 0
-3.97782e-07 0 0
-4.01654e-07 0 0
-4.05336e-07 0 0
-4.08349e-07 0 0
-4.10619e-07 0 0
-4.12246e-07 0 0
-4.13378e-07 0 0
-4.14149e-07 0 0
-4.1467e-07 0 0
-4.1502e-07 0 0
-4.15255e-07 0 0
-4.15413e-07 0 0
-4.1552e-07 0 0
-4.15592e-07 0 0
-4.1564e-07 0 0
-4.15673e-07 0 0
-4.15695e-07 0 0
-4.15709e-07 0 0
-4.15718e-07 0 0
-4.15723e-07 0 0
-4.15726e-07 0 0
-4.15727e-07 0 0
-4.15726e-07 0 0
-4.15725e-07 0 0
-4.15723e-07 0 0
-4.1572e-07 0 0
-4.15717e-07 0 0
-4.15714e-07 0 0
-4.15711e-07 0 0
-4.15707e-07 0 0
-4.15704e-07 0 0
-4.15702e-07 0 0
-4.15702e-07 0 0
-4.15711e-07 0 0
-4.15757e-07 0 0
0.00333185 0 0
0 4.94576e-07 0
1.22473e-11 2.18536e-07 0
-7.13649e-07 3.25923e-07 0
-1.01466e-06 1.62123e-07 0
-7.97058e-07 4.11126e-08 0
-2.34302e-07 7.10417e-08 0
-1.50661e-07 1.94198e-07 0
-2.72234e-07 1.92075e-07 0
-4.0013e-07 1.36266e-07 0
-5.27684e-07 7.16346e-08 0
-5.71135e-07 1.98931e-08 0
-5.83933e-07 1.35987e-09 0
-6.00697e-07 -9.12467e-12 0
-6.22457e-07 2.9326e-09 0
-6.45619e-07 5.80448e-09 0
-6.67038e-07 7.14974e-09 0
-6.84703e-07 6.98111e-09 0
-6.98104e-07 5.96246e-09 0
-7.07699e-07 4.68926e-09 0
-7.14303e-07 3.49732e-09 0
-7.18734e-07 2.51893e-09 0
-7.21659e-07 1.77337e-09 0
-7.23575e-07 1.23077e-09 0
-7.24828e-07 8.47292e-10 0
-7.25648e-07 5.81201e-10 0
-7.26188e-07 3.98515e-10 0
-7.26546e-07 2.73726e-10 0
-7.26785e-07 1.88578e-10 0
-7.26946e-07 1.30385e-10 0
-7.27054e-07 9.0483e-11 0
-7.27128e-07 6.30079e-11 0
-7.27177e-07 4.40062e-11 0
-7.2721e-07 3.08092e-11 0
-7.27231e-07 2.16095e-11 0
-7.27244e-07 1.51769e-11 0
-7.27251e-07 1.0669e-11 0
-7.27254e-07 7.50627e-12 0
-7.27254e-07 5.28817e-12 0
-7.27252e-07 3.73806e-12 0
-7.27249e-07 2.6668e-12 0
-7.27244e-07 1.95004e-12 0
-7.27238e-07 1.51687e-12 0
-7.27232e-07 1.35101e-12 0
-7.27226e-07 1.51097e-12 0
-7.2722e-07 2.17327e-12 0
-7.27214e-07 3.70285e-12 0
-7.27211e-07 7.00854e-12 0
-7.27213e-07 1.53919e-11 0
-7.27234e-07 4.18589e-11 0
-7.27309e-07 1.16371e-10 0
0.00840359 -4.80873e-07 0
0 6.86354e-08 0
2.59251e-10 2.81898e-07 0
-6.14506e-07 3.61623e-07 0
-8.70281e-07 1.10831e-07 0
-4.70229e-07 5.67505e-08 0
-1.83836e-07 1.03002e-07 0
-2.59346e-07 1.54475e-07 0
-3.75518e-07 5.06265e-08 0
-3.29414e-07 -4.24493e-09 0
-3.27755e-07 6.0928e-08 0
-3.28391e-07 9.70029e-08 0
-3.36635e-07 1.22399e-07 0
-3.69157e-07 1.17441e-07 0
-4.05747e-07 9.31167e-08 0
-4.40249e-07 6.84952e-08 0
-4.69595e-07 4.90037e-08 0
-4.92158e-07 3.43428e-08 0
-5.08221e-07 2.36063e-08 0
-5.19071e-07 1.59573e-08 0
-5.26156e-07 1.06489e-08 0
-5.3069e-07 7.04588e-09 0
-5.33565e-07 4.642e-09 0
-5.35387e-07 3.05713e-09 0
-5.36546e-07 2.01935e-09 0
-5.37292e-07 1.34132e-09 0
-5.37778e-07 8.97572e-10 0
-5.38098e-07 6.05706e-10 0
-5.38313e-07 4.12326e-10 0
-5.38458e-07 2.83061e-10 0
-5.38556e-07 1.95826e-10 0
-5.38623e-07 1.36394e-10 0
-5.38669e-07 9.55391e-11 0
-5.387e-07 6.72299e-11 0
-5.38719e-07 4.74791e-11 0
-5.38732e-07 3.36218e-11 0
-5.38739e-07 2.38572e-11 0
-5.38741e-07 1.69561e-11 0
-5.38742e-07 1.20734e-11 0
-5.3874e-07 8.62714e-12 0
-5.38736e-07 6.22032e-12 0
-5.38732e-07 4.59482e-12 0
-5.38726e-07 3.6095e-12 0
-5.3872e-07 3.24492e-12 0
-5.38713e-07 3.65263e-12 0
-5.38706e-07 5.32231e-12 0
-5.38699e-07 9.44381e-12 0
-5.38693e-07 1.82578e-11 0
-5.38687e-07 3.5134e-11 0
-5.38689e-07 6.25744e-11 0
-5.38725e-07 1.07442e-10 0
0.010419 -5.39878e-07 0
0 -5.52759e-07 0
4.34134e-10 1.71728e-07 0
-5.15591e-07 9.33271e-08 0
-7.96161e-07 -2.24586e-07 0
-3.63522e-07 -1.24263e-07 0
-7.72681e-08 2.19865e-08 0
-2.19675e-07 -2.8047e-10 0
-3.16047e-07 -2.69325e-07 0
-6.25157e-07 -4.56875e-07 0
-5.56659e-07 -2.19635e-07 0
-4.88612e-07 3.88782e-08 0
-4.44451e-07 1.77378e-07 0
-4.22679e-07 1.96545e-07 0
-4.07573e-07 1.54996e-07 0
-4.04735e-07 1.10884e-07 0
-4.10148e-07 7.67233e-08 0
-4.17596e-07 5.18193e-08 0
-4.23957e-07 3.43157e-08 0
-4.28509e-07 2.24097e-08 0
-4.31505e-07 1.45184e-08 0
-4.33405e-07 9.38263e-09 0
-4.346e-07 6.07712e-09 0
-4.35358e-07 3.95981e-09 0
-4.3585e-07 2.60284e-09 0
-4.36177e-07 1.72887e-09 0
-4.364e-07 1.16129e-09 0
-4.36554e-07 7.88751e-10 0
-4.36663e-07 5.41317e-10 0
-4.36741e-07 3.74956e-10 0
-4.36795e-07 2.61782e-10 0
-4.36833e-07 1.8396e-10 0
-4.36859e-07 1.29942e-10 0
-4.36877e-07 9.21506e-11 0
-4.36888e-07 6.5541e-11 0
-4.36894e-07 4.67104e-11 0
-4.36896e-07 3.33347e-11 0
-4.36896e-07 2.38095e-11 0
-4.36894e-07 1.70194e-11 0
-4.36891e-07 1.21862e-11 0
-4.36886e-07 8.77192e-12 0
-4.36881e-07 6.41648e-12 0
-4.36874e-07 4.90699e-12 0
-4.36867e-07 4.17466e-12 0
-4.36859e-07 4.30483e-12 0
-4.3685e-07 5.50163e-12 0
-4.3684e-07 8.10171e-12 0
-4.36826e-07 1.30321e-11 0
-4.36809e-07 2.23411e-11 0
-4.3679e-07 3.93276e-11 0
-4.36801e-07 6.68032e-11 0
0.0107252 -3.88123e-07 0
0 -1.05877e-06 0
4.12877e-10 3.00969e-08 0
-5.34099e-07 -1.13128e-07 0
-8.78416e-07 -2.87628e-07 0
-6.00801e-07 -1.64018e-07 0
-3.4705e-10 -2.01595e-08 0
-7.27645e-09 -6.39178e-09 0
5.59558e-09 -6.2341e-09 0
-3.66644e-07 -2.62405e-07 0
-6.40602e-07 -3.74883e-07 0
-5.79008e-07 -7.94883e-08 0
-5.72211e-07 1.22376e-07 0
-5.49963e-07 1.65784e-07 0
-5.00439e-07 1.34805e-07 0
-4.6174e-07 1.00514e-07 0
-4.40185e-07 7.18828e-08 0
-4.29323e-07 4.90796e-08 0
-4.23789e-07 3.23646e-08 0
-4.20819e-07 2.09446e-08 0
-4.19147e-07 1.34787e-08 0
-4.18187e-07 8.70753e-09 0
-4.17644e-07 5.68132e-09 0
-4.17348e-07 3.75621e-09 0
-4.17199e-07 2.5194e-09 0
-4.17134e-07 1.71363e-09 0
-4.17114e-07 1.18035e-09 0
-4.17116e-07 8.21815e-10 0
-4.17128e-07 5.77217e-10 0
-4.17141e-07 4.08213e-10 0
-4.17154e-07 2.90195e-10 0
-4.17164e-07 2.0708e-10 0
-4.17171e-07 1.4816e-10 0
-4.17175e-07 1.06186e-10 0
-4.17177e-07 7.61781e-11 0
-4.17176e-07 5.46707e-11 0
-4.17174e-07 3.923e-11 0
-4.17171e-07 2.81326e-11 0
-4.17166e-07 2.01522e-11 0
-4.17161e-07 1.44136e-11 0
-4.17155e-07 1.02929e-11 0
-4.17149e-07 7.34827e-12 0
-4.17142e-07 5.26871e-12 0
-4.17134e-07 3.83377e-12 0
-4.17125e-07 2.90558e-12 0
-4.17115e-07 2.52309e-12 0
-4.17103e-07 3.03269e-12 0
-4.17087e-07 5.12683e-12 0
-4.17068e-07 9.8715e-12 0
-4.17047e-07 1.88491e-11 0
-4.17056e-07 3.25849e-11 0
0.0107584 -1.95859e-07 0
0 -9.40548e-07 0
3.80483e-10 -5.01245e-08 0
-5.4177e-07 -1.61518e-07 0
-9.15784e-07 -2.43471e-07 0
-7.55247e-07 -2.4232e-07 0
-2.38375e-07 -1.10319e-07 0
-6.57572e-09 6.14564e-09 0
-5.46554e-10 5.46554e-10 0
5.36794e-09 -5.82559e-09 0
-2.87224e-07 -1.49429e-07 0
-4.22278e-07 -9.89549e-08 0
-5.8228e-07 1.5646e-07 0
-6.53462e-07 1.73761e-07 0
-5.98099e-07 1.09769e-07 0
-5.26085e-07 7.07079e-08 0
-4.77612e-07 4.74324e-08 0
-4.49971e-07 3.12078e-08 0
-4.34702e-07 2.01493e-08 0
-4.26199e-07 1.30228e-08 0
-4.21401e-07 8.55693e-09 0
-4.18671e-07 5.75599e-09 0
-4.1711e-07 3.96393e-09 0
-4.16218e-07 2.78388e-09 0
-4.15708e-07 1.98362e-09 0
-4.15417e-07 1.42715e-09 0
-4.1525e-07 1.03286e-09 0
-4.15154e-07 7.49891e-10 0
-4.15098e-07 5.45195e-10 0
-4.15064e-07 3.96454e-10 0
-4.15043e-07 2.88141e-10 0
-4.15029e-07 2.09219e-10 0
-4.15019e-07 1.51729e-10 0
-4.1501e-07 1.09886e-10 0
-4.15003e-07 7.94637e-11 0
-4.14996e-07 5.73718e-11 0
-4.14989e-07 4.13465e-11 0
-4.14982e-07 2.97305e-11 0
-4.14975e-07 2.13112e-11 0
-4.14968e-07 1.51999e-11 0
-4.14961e-07 1.07436e-11 0
-4.14953e-07 7.45826e-12 0
-4.14945e-07 4.98274e-12 0
-4.14937e-07 3.05551e-12 0
-4.14928e-07 1.49983e-12 0
-4.14918e-07 1.89364e-13 0
-4.14906e-07 -9.71284e-13 0
-4.14891e-07 -1.99521e-12 0
-4.14871e-07 -2.6029e-12 0
-4.14849e-07 -2.12715e-12 0
-4.14857e-07 -5.46275e-13 0
0.010761 6.27864e-10 0
0 -6.69386e-07 0
3.55581e-10 -1.00345e-07 0
-5.12578e-07 -2.16603e-07 0
-9.0136e-07 -1.86615e-07 0
-7.94422e-07 -1.3454e-07 0
-5.21812e-07 -1.79212e-07 0
-2.25152e-07 -1.14964e-07 0
-6.3963e-09 5.89721e-09 0
-5.2584e-10 5.2584e-10 0
5.21967e-09 -5.51873e-09 0
-1.55507e-07 1.7487e-07 0
-5.45071e-07 3.5612e-07 0
-7.91729e-07 2.40628e-07 0
-7.22933e-07 7.19583e-08 0
-5.85956e-07 1.58884e-08 0
-4.99896e-07 5.42049e-09 0
-4.57862e-07 3.51653e-09 0
-4.38067e-07 2.96434e-09 0
-4.28433e-07 2.75127e-09 0
-4.23531e-07 2.5838e-09 0
-4.20928e-07 2.348e-09 0
-4.19487e-07 2.04187e-09 0
-4.18656e-07 1.70565e-09 0
-4.18158e-07 1.37896e-09 0
-4.17849e-07 1.08679e-09 0
-4.17649e-07 8.39879e-10 0
-4.17518e-07 6.39319e-10 0
-4.17428e-07 4.80971e-10 0
-4.17365e-07 3.58524e-10 0
-4.1732e-07 2.65299e-10 0
-4.17286e-07 1.95159e-10 0
-4.17261e-07 1.42868e-10 0
-4.17241e-07 1.04164e-10 0
-4.17225e-07 7.56801e-11 0
-4.17212e-07 5.4811e-11 0
-4.172e-07 3.95735e-11 0
-4.17189e-07 2.84726e-11 0
-4.1718e-07 2.03901e-11 0
-4.17171e-07 1.4492e-11 0
-4.17163e-07 1.01557e-11 0
-4.17154e-07 6.9126e-12 0
-4.17146e-07 4.40176e-12 0
-4.17137e-07 2.32542e-12 0
-4.17129e-07 3.99853e-13 0
-4.17119e-07 -1.71398e-12 0
-4.17107e-07 -4.51092e-12 0
-4.17093e-07 -8.70237e-12 0
-4.17074e-07 -1.49657e-11 0
-4.17054e-07 -2.34737e-11 0
-4.17063e-07 -3.40619e-11 0
0.0107584 1.96639e-07 0
0 -4.85777e-07 0
2.809e-10 -1.38065e-07 0
-4.985e-07 -2.47964e-07 0
-8.53583e-07 -1.63291e-07 0
-7.76732e-07 -8.31391e-08 0
-5.73181e-07 -9.54892e-08 0
-4.67202e-07 -2.46335e-07 0
-3.07943e-07 -1.80635e-07 0
-6.2848e-09 5.51138e-09 0
4.95542e-09 5.53274e-09 0
-5.22048e-11 3.62474e-07 0
-3.80799e-07 6.78682e-07 0
-7.44453e-07 3.55882e-07 0
-7.45064e-07 -1.54056e-09 0
-6.01554e-07 -7.07415e-08 0
-5.05022e-07 -4.409e-08 0
-4.62999e-07 -2.12354e-08 0
-4.47409e-07 -9.49327e-09 0
-4.41905e-07 -3.63214e-09 0
-4.39895e-07 -7.34547e-10 0
-4.39036e-07 5.816e-10 0
-4.38555e-07 1.06427e-09 0
-4.38211e-07 1.13645e-09 0
-4.37938e-07 1.02906e-09 0
-4.37715e-07 8.60727e-10 0
-4.37536e-07 6.87813e-10 0
-4.37394e-07 5.33936e-10 0
-4.37282e-07 4.06421e-10 0
-4.37196e-07 3.05069e-10 0
-4.3713e-07 2.26644e-10 0
-4.37079e-07 1.67062e-10 0
-4.37039e-07 1.22387e-10 0
-4.37008e-07 8.92132e-11 0
-4.36983e-07 6.47601e-11 0
-4.36963e-07 4.68359e-11 0
-4.36947e-07 3.37514e-11 0
-4.36933e-07 2.42251e-11 0
-4.36921e-07 1.72935e-11 0
-4.3691e-07 1.22359e-11 0
-4.369e-07 8.51104e-12 0
-4.36891e-07 5.70416e-12 0
-4.36882e-07 3.47946e-12 0
-4.36874e-07 1.53059e-12 0
-4.36865e-07 -4.81084e-13 0
-4.36855e-07 -3.0201e-12 0
-4.36845e-07 -6.85725e-12 0
-4.36833e-07 -1.33837e-11 0
-4.36818e-07 -2.47337e-11 0
-4.36804e-07 -4.30404e-11 0
-4.36817e-07 -6.89064e-11 0
0.0107252 3.86324e-07 0
0 -4.53602e-07 0
1.84154e-10 -1.50586e-07 0
-5.14299e-07 -2.55356e-07 0
-8.23685e-07 -1.42638e-07 0
-7.89168e-07 -5.60629e-08 0
-6.45851e-07 -5.41679e-08 0
-5.18101e-07 -1.32194e-07 0
-5.60498e-07 -3.53963e-07 0
-4.64848e-07 -2.57712e-07 0
-6.29836e-07 5.09839e-12 0
-6.44978e-07 3.61216e-07 0
-4.14823e-07 7.42447e-07 0
-3.90615e-07 4.34709e-07 0
-5.06863e-07 -1.5952e-08 0
-5.38484e-07 -1.18474e-07 0
-5.34722e-07 -7.00196e-08 0
-5.3367e-07 -2.83265e-08 0
-5.35961e-07 -9.35098e-09 0
-5.38339e-07 -2.0575e-09 0
-5.39785e-07 4.92903e-10 0
-5.404e-07 1.22744e-09 0
-5.40505e-07 1.29284e-09 0
-5.40359e-07 1.13409e-09 0
-5.40118e-07 9.2244e-10 0
-5.39863e-07 7.21169e-10 0
-5.39633e-07 5.50516e-10 0
-5.39439e-07 4.13642e-10 0
-5.39283e-07 3.07326e-10 0
-5.3916e-07 2.2643e-10 0
-5.39065e-07 1.65747e-10 0
-5.38992e-07 1.20694e-10 0
-5.38936e-07 8.75074e-11 0
-5.38893e-07 6.32111e-11 0
-5.38859e-07 4.55099e-11 0
-5.38833e-07 3.26631e-11 0
-5.38812e-07 2.33661e-11 0
-5.38794e-07 1.66496e-11 0
-5.3878e-07 1.17963e-11 0
-5.38767e-07 8.27496e-12 0
-5.38756e-07 5.68821e-12 0
-5.38746e-07 3.72803e-12 0
-5.38737e-07 2.13459e-12 0
-5.38728e-07 6.4997e-13 0
-5.38719e-07 -1.04465e-12 0
-5.38711e-07 -3.42551e-12 0
-5.38702e-07 -7.32391e-12 0
-5.38694e-07 -1.44784e-11 0
-5.38685e-07 -2.8701e-11 0
-5.38682e-07 -5.71196e-11 0
-5.38711e-07 -1.07333e-10 0
0.0104189 5.29645e-07 0
0 -5.02347e-07 0
9.32678e-11 -1.01852e-07 0
-5.35171e-07 -1.69697e-07 0
-8.15634e-07 -9.42193e-08 0
-8.42821e-07 -4.78261e-08 0
-8.03935e-07 -6.91087e-08 0
-7.25909e-07 -1.15962e-07 0
-6.6998e-07 -1.05694e-07 0
-8.19242e-07 1.42918e-07 0
-8.47956e-07 2.60993e-07 0
-8.55518e-07 -5.38355e-08 0
-6.51713e-07 -2.58785e-07 0
-5.89046e-07 -1.36307e-07 0
-7.04452e-07 3.04903e-08 0
-7.56975e-07 8.40514e-08 0
-7.53627e-07 6.67183e-08 0
-7.43154e-07 3.8055e-08 0
-7.36815e-07 1.90825e-08 0
-7.33626e-07 9.33027e-09 0
-7.319e-07 4.73388e-09 0
-7.30795e-07 2.57501e-09 0
-7.29986e-07 1.51138e-09 0
-7.29358e-07 9.4615e-10 0
-7.28863e-07 6.20518e-10 0
-7.28478e-07 4.19528e-10 0
-7.28181e-07 2.89023e-10 0
-7.27954e-07 2.0136e-10 0
-7.27783e-07 1.412e-10 0
-7.27655e-07 9.93675e-11 0
-7.27559e-07 7.00378e-11 0
-7.27488e-07 4.93775e-11 0
-7.27434e-07 3.47884e-11 0
-7.27393e-07 2.44762e-11 0
-7.27361e-07 1.71861e-11 0
-7.27337e-07 1.20352e-11 0
-7.27317e-07 8.39838e-12 0
-7.27301e-07 5.8309e-12 0
-7.27288e-07 4.01475e-12 0
-7.27276e-07 2.72016e-12 0
-7.27266e-07 1.7768e-12 0
-7.27256e-07 1.05012e-12 0
-7.27247e-07 4.1835e-13 0
-7.27239e-07 -2.56239e-13 0
-7.27231e-07 -1.17126e-12 0
-7.27224e-07 -2.66158e-12 0
-7.27217e-07 -5.35418e-12 0
-7.27213e-07 -1.06367e-11 0
-7.27213e-07 -2.23706e-11 0
-7.27228e-07 -5.25476e-11 0
-7.27298e-07 -1.24478e-10 0
0.00840355 4.58208e-07 0
0 0 0
3.37452e-11 0 0
-2.67791e-07 0 0
-4.04795e-07 0 0
-4.40716e-07 0 0
-4.47478e-07 0 0
-4.50074e-07 0 0
-4.17173e-07 0 0
-3.54783e-07 0 0
-2.18386e-07 0 0
-2.10593e-07 0 0
-3.64208e-07 0 0
-5.08866e-07 0 0
-5.46698e-07 0 0
-5.13642e-07 0 0
-4.71265e-07 0 0
-4.43755e-07 0 0
-4.29614e-07 0 0
-4.22927e-07 0 0
-4.19767e-07 0 0
-4.18189e-07 0 0
-4.17331e-07 0 0
-4.16821e-07 0 0
-4.16495e-07 0 0
-4.16276e-07 0 0
-4.16124e-07 0 0
-4.16017e-07 0 0
-4.15941e-07 0 0
-4.15886e-07 0 0
-4.15846e-07 0 0
-4.15817e-07 0 0
-4.15796e-07 0 0
-4.1578e-07 0 0
-4.15767e-07 0 0
-4.15758e-07 0 0
-4.1575e-07 0 0
-4.15743e-07 0 0
-4.15738e-07 0 0
-4.15733e-07 0 0
-4.15728e-07 0 0
-4.15724e-07 0 0
-4.1572e-07 0 0
-4.15716e-07 0 0
-4.15713e-07 0 0
-4.15709e-07 0 0
-4.15707e-07 0 0
-4.15705e-07 0 0
-4.15708e-07 0 0
-4.15721e-07 0 0
-4.15771e-07 0 0
0.00333193 0 0
0 0 4.94438e-07
9.56685e-11 0 1.42814e-07
-7.66304e-07 0 1.91261e-07
-1.16265e-06 0 -8.35407e-08
-1.06967e-06 0 -4.30713e-07
-4.79665e-08 0 -4.01066e-07
1.32668e-07 0 -1.09233e-07
3.48202e-09 0 2.70204e-08
-1.93494e-07 0 5.41197e-08
-3.53823e-07 0 1.81939e-08
-4.45556e-07 0 -1.29231e-08
-5.07466e-07 0 -2.05057e-08
-5.58572e-07 0 -1.5275e-08
-6.00358e-07 0 -8.0538e-09
-6.3402e-07 0 -2.99022e-09
-6.6087e-07 0 -3.90512e-10
-6.81516e-07 0 5.78479e-10
-6.96689e-07 0 7.39216e-10
-7.07409e-07 0 6.0169e-10
-7.14762e-07 0 4.08541e-10
-7.19701e-07 0 2.47889e-10
-7.22975e-07 0 1.37243e-10
-7.25129e-07 0 6.89149e-11
-7.26544e-07 0 3.00343e-11
-7.27474e-07 0 9.56299e-12
-7.28089e-07 0 -2.37032e-13
-7.28498e-07 0 -4.24519e-12
-7.28771e-07 0 -5.32653e-12
-7.28956e-07 0 -5.0688e-12
-7.29081e-07 0 -4.30264e-12
-7.29166e-07 0 -3.43279e-12
-7.29223e-07 0 -2.63585e-12
-7.29261e-07 0 -1.97273e-12
-7.29286e-07 0 -1.4499e-12
-7.29302e-07 0 -1.05125e-12
-7.29311e-07 0 -7.53725e-13
-7.29315e-07 0 -5.34414e-13
-7.29316e-07 0 -3.73124e-13
-7.29315e-07 0 -2.52799e-13
-7.29312e-07 0 -1.58881e-13
-7.29308e-07 0 -7.81101e-14
-7.29303e-07 0 3.11733e-15
-7.29297e-07 0 1.01259e-13
-7.29291e-07 0 2.39184e-13
-7.29284e-07 0 4.39343e-13
-7.29278e-07 0 6.89161e-13
-7.29275e-07 0 1.17146e-12
-7.29278e-07 0 4.17467e-12
-7.293e-07 0 2.18159e-11
-7.29377e-07 0 8.45634e-11
0.00840106 0 -3.51189e-07
0.0036 3.28542e-07 2.80532e-07
0.00359923 -0.0024693 -0.000912447
0.00909122 -0.00644862 -0.0024385
0.0183665 -0.00907486 -0.00336591
0.0300262 -0.0115904 -0.00359884
0.0465403 -0.00723457 -0.00206822
0.0480713 4.0494e-05 -0.000158846
0.0473687 0.00301811 0.000429397
0.0420006 0.00457153 0.00031343
0.036535 0.00433172 -8.4695e-05
0.031795 0.00353745 -0.000257083
0.02809 0.00262789 -0.000237019
0.0254961 0.0018087 -0.000156309
0.0238178 0.00117851 -8.49033e-05
0.0227787 0.000740988 -3.99359e-05
0.0221539 0.000453429 -1.65408e-05
0.0217879 0.000270779 -5.95821e-06
0.0215788 0.000158028 -1.74453e-06
0.0214624 9.02042e-05 -3.10842e-07
0.0213995 5.03575e-05 5.32697e-08
0.0213667 2.7455e-05 7.15742e-08
0.0213504 1.45678e-05 1.43168e-08
0.0213428 7.47286e-06 -3.50813e-08
0.0213397 3.65995e-06 -6.11263e-08
0.0213388 1.66928e-06 -6.84155e-08
0.0213389 6.6857e-07 -6.4657e-08
0.0213393 1.92353e-07 -5.58453e-08
0.0213399 -1.46031e-08 -4.56588e-08
0.0213404 -8.91872e-08 -3.60108e-08
0.0213408 -1.02886e-07 -2.77093e-08
0.0213411 -9.17488e-08 -2.09534e-08
0.0213413 -7.30603e-08 -1.56472e-08
0.0213415 -5.445e-08 -1.15782e-08
0.0213416 -3.87748e-08 -8.51067e-09
0.0213417 -2.66707e-08 -6.22756e-09
0.0213418 -1.78471e-08 -4.54725e-09
0.0213418 -1.17133e-08 -3.32681e-09
0.0213419 -7.66302e-09 -2.46058e-09
0.0213419 -5.18852e-09 -1.87849e-09
0.0213419 -3.91856e-09 -1.54725e-09
0.0213419 -3.62868e-09 -1.477e-09
0.0213419 -4.25438e-09 -1.73565e-09
0.0213419 -5.93321e-09 -2.47146e-09
0.021342 -9.11956e-09 -3.94273e-09
0.021342 -1.49099e-08 -6.57639e-09
0.021342 -2.57275e-08 -1.08763e-08
0.0213421 -4.50761e-08 -1.50889e-08
0.0213422 -8.29094e-08 -1.63662e-08
0.0213426 -2.45921e-07 -9.88328e-08
0.0213432 -8.31277e-07 -5.48604e-07
0.0213441 -1.27937e-06 -9.15749e-07
0.01 3.32293e-07 -4.28228e-07
0.0100012 -0.00470783 -0.00161721
0.0155905 -0.012861 -0.0039115
0.0247483 -0.0186561 -0.00469146
0.0363814 -0.02585 -0.00390148
0.0548662 -0.0165284 -0.000966003
0.0540796 -0.00039798 0.00125778
0.054694 0.00615415 0.00145089
0.048364 0.0108883 0.000946398
0.041788 0.0103374 5.51828e-05
0.0365215 0.00859438 -0.000377415
0.0325596 0.00641564 -0.000377545
0.029978 0.00434532 -0.000250905
0.028453 0.00275628 -0.000135582
0.0275848 0.00168178 -6.25773e-05
0.0271033 0.000998031 -2.48249e-05
0.0268443 0.000577591 -7.95578e-06
0.0267102 0.000326031 -1.40701e-06
0.0266441 0.000179232 6.59016e-07
0.0266138 9.56008e-05 1.01688e-06
0.0266017 4.90968e-05 8.43747e-07
0.0265983 2.39083e-05 5.8093e-07
0.0265988 1.06829e-05 3.6364e-07
0.0266007 4.01634e-06 2.14031e-07
0.0266029 8.52287e-07 1.20115e-07
0.0266049 -5.01334e-07 6.45079e-08
0.0266066 -9.60125e-07 3.29896e-08
0.0266079 -1.0064e-06 1.57934e-08
0.0266089 -8.85527e-07 6.77452e-09
0.0266097 -7.16241e-07 2.26884e-09
0.0266102 -5.51449e-07 1.73409e-10
0.0266106 -4.11126e-07 -6.82447e-10
0.0266109 -2.99685e-07 -9.32348e-10
0.0266111 -2.14889e-07 -9.09347e-10
0.0266112 -1.52228e-07 -7.82716e-10
0.0266113 -1.0694e-07 -6.3526e-10
0.0266114 -7.48347e-08 -5.06565e-10
0.0266114 -5.25399e-08 -4.17611e-10
0.0266115 -3.75084e-08 -3.86198e-10
0.0266115 -2.79332e-08 -4.39174e-10
0.0266115 -2.267e-08 -6.25581e-10
0.0266115 -2.12236e-08 -1.03333e-09
0.0266115 -2.38678e-08 -1.80874e-09
0.0266116 -3.20106e-08 -3.16204e-09
0.0266116 -4.90622e-08 -5.31781e-09
0.0266117 -8.37262e-08 -8.43749e-09
0.0266117 -1.62948e-07 -1.14677e-08
0.0266119 -3.44313e-07 -1.34375e-08
0.0266122 -6.6066e-07 -1.23935e-07
0.0266126 -1.1393e-06 -7.0231e-07
0.0266127 -1.42719e-06 -1.1711e-06
0.0148 -8.53243e-07 -5.50363e-07
0.0148027 -0.00639819 -0.002191
0.019185 -0.0172432 -0.0053623
0.0249759 -0.0253916 -0.00612935
0.0287016 -0.0378446 -0.00435594
0.0275194 -0.023316 -0.000750365
0.0261244 -1.02143e-05 0.00122314
0.0266798 0.00845072 0.0013147
0.0318534 0.0173753 0.00110571
0.0312403 0.0162979 0.000380522
0.0294094 0.0129656 -0.000108766
0.0280418 0.00933569 -0.000239192
0.0273369 0.00601989 -0.000188247
0.0271109 0.00362775 -0.00010542
0.027085 0.00211649 -4.37847e-05
0.0271319 0.00120403 -1.14529e-05
0.0271972 0.000666997 1.48145e-06
0.0272579 0.000358702 4.92127e-06
0.0273064 0.000186199 4.68978e-06
0.0273422 9.2224e-05 3.47875e-06
0.0273675 4.25308e-05 2.29978e-06
0.0273848 1.72017e-05 1.42148e-06
0.0273965 4.9379e-06 8.40118e-07
0.0274043 -5.25512e-07 4.80385e-07
0.0274096 -2.58442e-06 2.67362e-07
0.0274131 -3.03449e-06 1.45147e-07
0.0274154 -2.79656e-06 7.67688e-08
0.027417 -2.32327e-06 3.93504e-08
0.0274181 -1.82282e-06 1.93235e-08
0.0274188 -1.37988e-06 8.87217e-09
0.0274193 -1.01953e-06 3.5928e-09
0.0274196 -7.40318e-07 1.04952e-09
0.0274199 -5.30686e-07 -8.26851e-11
0.02742 -3.76721e-07 -5.12337e-10
0.0274201 -2.65497e-07 -6.11224e-10
0.0274202 -1.86236e-07 -5.70401e-10
0.0274203 -1.30484e-07 -4.86458e-10
0.0274203 -9.1872e-08 -4.09456e-10
0.0274203 -6.57786e-08 -3.70736e-10
0.0274203 -4.90054e-08 -4.01426e-10
0.0274204 -3.95533e-08 -5.48112e-10
0.0274204 -3.65458e-08 -8.88792e-10
0.0274204 -4.03965e-08 -1.54956e-09
0.0274204 -5.35045e-08 -2.73932e-09
0.0274204 -8.19985e-08 -4.88323e-09
0.0274204 -1.3707e-07 -8.85326e-09
0.0274205 -2.2943e-07 -1.53699e-08
0.0274205 -3.67261e-07 -2.7707e-08
0.0274206 -5.69821e-07 -1.5713e-07
0.0274205 -8.58466e-07 -7.48249e-07
0.0274204 -1.02601e-06 -1.21851e-06
0.018 -1.97356e-06 -9.6542e-07
0.0180024 -0.00674147 -0.00294902
0.0195815 -0.0171059 -0.00724017
0.0198688 -0.0210542 -0.00748652
0.0161582 -0.022361 -0.00521109
-7.9204e-07 -0.0116789 -0.00201647
0.000107858 4.02227e-05 3.8173e-07
-4.4486e-05 4.74157e-05 0.000228704
0.00836266 0.00607508 0.000453632
0.0172343 0.0127572 0.000362129
0.0202071 0.011885 0.00013528
0.021682 0.00859647 -6.82022e-05
0.0233029 0.00535588 -0.000119025
0.024714 0.00305268 -7.43953e-05
0.025732 0.00167972 -2.42673e-05
0.0264096 0.000891172 2.5122e-06
0.0268418 0.000451306 1.10125e-05
0.0271096 0.000214911 1.09086e-05
0.0272721 9.30167e-05 8.18233e-06
0.0273692 3.31301e-05 5.39732e-06
0.0274266 5.61019e-06 3.30235e-06
0.0274603 -5.6596e-06 1.92159e-06
0.0274801 -9.1629e-06 1.07689e-06
0.0274917 -9.22566e-06 5.84446e-07
0.0274985 -7.97257e-06 3.07196e-07
0.0275026 -6.39299e-06 1.55482e-07
0.027505 -4.90757e-06 7.46609e-08
0.0275064 -3.66299e-06 3.28654e-08
0.0275073 -2.68179e-06 1.20646e-08
0.0275078 -1.93624e-06 2.29033e-09
0.0275081 -1.38342e-06 -1.85884e-09
0.0275083 -9.80453e-07 -3.25233e-09
0.0275085 -6.90419e-07 -3.38009e-09
0.0275086 -4.83721e-07 -2.99329e-09
0.0275086 -3.37627e-07 -2.45498e-09
0.0275087 -2.35166e-07 -1.92943e-09
0.0275087 -1.63922e-07 -1.48344e-09
0.0275087 -1.14974e-07 -1.14058e-09
0.0275087 -8.2039e-08 -9.11573e-10
0.0275087 -6.08339e-08 -8.14372e-10
0.0275087 -4.86444e-08 -8.93129e-10
0.0275087 -4.40964e-08 -1.24507e-09
0.0275087 -4.71096e-08 -2.06791e-09
0.0275087 -5.88121e-08 -3.75473e-09
0.0275087 -8.08383e-08 -7.1481e-09
0.0275087 -1.14525e-07 -1.38821e-08
0.0275087 -1.61713e-07 -2.43555e-08
0.0275086 -2.247e-07 -3.91559e-08
0.0275086 -3.14565e-07 -1.70158e-07
0.0275085 -4.43967e-07 -7.5798e-07
0.0275083 -5.19237e-07 -1.22375e-06
0.0196 -2.32391e-06 -2.03891e-06
0.0196009 -0.00494301 -0.00358568
0.0190655 -0.0111659 -0.0083632
0.0169166 -0.0127199 -0.00791852
0.012699 -0.0106715 -0.00524415
0.00308985 -0.00417683 -0.00259201
8.28382e-05 -7.66992e-05 -0.000486902
3.22132e-05 -3.22132e-05 -5.8333e-08
-4.29751e-05 4.59968e-05 4.46404e-05
0.0060586 0.00437063 0.000109194
0.0127264 0.00850449 8.67672e-05
0.0158154 0.00628149 -5.55439e-05
0.0195466 0.00304202 -0.000152773
0.0226339 0.00123302 -0.000110444
0.0246805 0.000433831 -4.24095e-05
0.0259109 9.52385e-05 -2.6449e-06
0.0266203 -3.63849e-05 1.06841e-05
0.0270211 -7.54713e-05 1.14063e-05
0.0272447 -7.64179e-05 8.42578e-06
0.0273683 -6.43322e-05 5.35337e-06
0.0274361 -4.98952e-05 3.12681e-06
0.0274731 -3.70533e-05 1.72572e-06
0.0274931 -2.68376e-05 9.09507e-07
0.0275039 -1.91478e-05 4.57355e-07
0.0275097 -1.35339e-05 2.16475e-07
0.0275127 -9.50839e-06 9.28286e-08
0.0275143 -6.65327e-06 3.20945e-08
0.0275151 -4.64207e-06 4.11821e-09
0.0275155 -3.23161e-06 -7.3606e-09
0.0275156 -2.24548e-06 -1.08949e-08
0.0275157 -1.55759e-06 -1.0868e-08
0.0275157 -1.07865e-06 -9.45432e-09
0.0275157 -7.45794e-07 -7.68191e-09
0.0275157 -5.14909e-07 -5.99869e-09
0.0275157 -3.55135e-07 -4.56921e-09
0.0275157 -2.4493e-07 -3.42768e-09
0.0275157 -1.69296e-07 -2.55571e-09
0.0275157 -1.17833e-07 -1.92182e-09
0.0275157 -8.33803e-08 -1.50339e-09
0.0275157 -6.10717e-08 -1.3035e-09
0.0275157 -4.76726e-08 -1.37198e-09
0.0275157 -4.10857e-08 -1.84026e-09
0.0275157 -3.98919e-08 -2.98097e-09
0.0275156 -4.2869e-08 -5.29367e-09
0.0275156 -4.85249e-08 -9.61278e-09
0.0275156 -5.43516e-08 -1.72393e-08
0.0275155 -5.60896e-08 -2.8201e-08
0.0275155 -4.77561e-08 -4.23937e-08
0.0275154 -2.91203e-08 -1.72197e-07
0.0275153 -8.86999e-09 -7.58434e-07
0.0275151 2.69346e-10 -1.22309e-06
0.0196 -1.25137e-06 -2.93197e-06
0.0196005 -0.00267823 -0.00380719
0.0191969 -0.00548574 -0.00836155
0.0184081 -0.00489741 -0.00764181
0.0155475 -0.00145573 -0.00486375
0.0116721 0.00432038 -0.00272296
0.00709176 0.00368746 -0.00117411
8.2966e-05 -7.04324e-05 -0.000230509
2.74573e-05 -2.74573e-05 -1.21702e-07
-4.11678e-05 4.47825e-05 1.19503e-05
0.00436359 0.00211235 0.000219348
0.00972786 0.00181023 0.000161647
0.0164552 -0.00139312 -0.000188653
0.0216057 -0.00203038 -0.000236945
0.0245505 -0.00157492 -0.00012949
0.0260399 -0.00104401 -4.2863e-05
0.0267782 -0.000661284 -6.34309e-06
0.027147 -0.000413118 3.45567e-06
0.0273323 -0.000257127 4.17164e-06
0.027425 -0.000160245 2.88987e-06
0.027471 -0.000100351 1.66521e-06
0.0274933 -6.3311e-05 8.59702e-07
0.0275038 -4.03043e-05 4.00927e-07
0.0275084 -2.59099e-05 1.61391e-07
0.0275102 -1.68204e-05 4.54094e-08
0.0275107 -1.10215e-05 -5.66479e-09
0.0275106 -7.2827e-06 -2.45682e-08
0.0275103 -4.84735e-06 -2.85509e-08
0.02751 -3.24599e-06 -2.62934e-08
0.0275097 -2.1842e-06 -2.19562e-08
0.0275094 -1.47514e-06 -1.74017e-08
0.0275092 -9.98907e-07 -1.33671e-08
0.0275091 -6.7762e-07 -1.00636e-08
0.027509 -4.60201e-07 -7.47585e-09
0.0275089 -3.12831e-07 -5.50544e-09
0.0275089 -2.12944e-07 -4.03708e-09
0.0275088 -1.4539e-07 -2.96766e-09
0.0275088 -9.99507e-08 -2.21868e-09
0.0275088 -6.97016e-08 -1.74355e-09
0.0275088 -4.99116e-08 -1.53695e-09
0.0275087 -3.72655e-08 -1.65183e-09
0.0275087 -2.92629e-08 -2.22805e-09
0.0275087 -2.3687e-08 -3.53386e-09
0.0275087 -1.8027e-08 -6.02965e-09
0.0275087 -8.74363e-09 -1.05089e-08
0.0275086 9.79171e-09 -1.82482e-08
0.0275086 4.71736e-08 -2.91445e-08
0.0275086 1.1947e-07 -4.22966e-08
0.0275085 2.44639e-07 -1.6943e-07
0.0275084 4.2095e-07 -7.54985e-07
0.0275082 5.19502e-07 -1.2207e-06
0.018 -7.62679e-07 -2.946e-06
0.0180011 -0.000854989 -0.00371879
0.0187931 -0.0011444 -0.00788846
0.019892 0.00025992 -0.00690499
0.0198612 0.00270601 -0.00428063
0.01972 0.00792389 -0.00241195
0.0200075 0.0131214 -0.00124194
0.0123544 0.00735344 -0.000572402
8.49424e-05 -5.59224e-05 -0.000193983
-3.36042e-05 -6.31134e-05 5.5554e-07
8.0885e-06 -0.00129701 0.00073735
0.00974993 -0.00583596 0.000869616
0.0181342 -0.00873813 -1.821e-05
0.0234153 -0.00675896 -0.000289055
0.0259315 -0.00394261 -0.000203477
0.0269249 -0.00211045 -8.86922e-05
0.0272862 -0.00113805 -3.06483e-05
0.0274107 -0.000629581 -9.25287e-06
0.0274484 -0.000355495 -2.50291e-06
0.0274549 -0.000203968 -6.05786e-07
0.0274511 -0.000118754 -1.49595e-07
0.0274449 -7.01617e-05 -7.04509e-08
0.027439 -4.20735e-05 -6.71851e-08
0.0274341 -2.5608e-05 -6.77259e-08
0.0274303 -1.58141e-05 -6.17015e-08
0.0274275 -9.90138e-06 -5.17077e-08
0.0274255 -6.27846e-06 -4.09889e-08
0.027424 -4.02646e-06 -3.13493e-08
0.0274229 -2.60752e-06 -2.34331e-08
0.0274222 -1.70235e-06 -1.72604e-08
0.0274216 -1.1186e-06 -1.25946e-08
0.0274213 -7.38609e-07 -9.13467e-09
0.027421 -4.89395e-07 -6.60004e-09
0.0274208 -3.25019e-07 -4.7587e-09
0.0274207 -2.16193e-07 -3.4308e-09
0.0274206 -1.44027e-07 -2.48303e-09
0.0274205 -9.62014e-08 -1.82135e-09
0.0274205 -6.4601e-08 -1.38588e-09
0.0274204 -4.3799e-08 -1.14974e-09
0.0274204 -3.00648e-08 -1.1239e-09
0.0274204 -2.06638e-08 -1.37015e-09
0.0274204 -1.33029e-08 -2.02565e-09
0.0274204 -5.59813e-09 -3.34247e-09
0.0274204 5.54807e-09 -5.74856e-09
0.0274203 2.4811e-08 -9.9861e-09
0.0274203 5.97807e-08 -1.73103e-08
0.0274203 1.23779e-07 -2.76434e-08
0.0274203 2.43484e-07 -3.91428e-08
0.0274203 4.67118e-07 -1.59949e-07
0.0274203 8.18704e-07 -7.41155e-07
0.0274202 1.02504e-06 -1.20751e-06
0.0148 -5.46136e-07 -2.58225e-06
0.0148016 0.000115659 -0.00348487
0.0171977 0.000953113 -0.00706055
0.0203275 0.00245298 -0.00581233
0.0227886 0.0045751 -0.00351521
0.0247115 0.00749224 -0.00214635
0.0278207 0.0126907 -0.00134318
0.0309374 0.0206052 -0.000734007
0.0252546 0.0124478 -7.64757e-05
0.0265799 1.94693e-10 0.000599256
0.0314213 -0.00787683 0.00166958
0.035235 -0.0165799 0.00181693
0.033559 -0.0150047 0.000528602
0.0307379 -0.00969426 -0.000220191
0.0288512 -0.00499267 -0.000295367
0.0278364 -0.00235575 -0.00016269
0.0273026 -0.00113064 -6.75196e-05
0.0270128 -0.000569662 -2.49791e-05
0.0268501 -0.000299503 -8.76512e-06
0.0267562 -0.000162486 -2.9669e-06
0.0267008 -9.02645e-05 -9.56231e-07
0.0266676 -5.1118e-05 -2.74568e-07
0.0266472 -2.9438e-05 -5.086e-08
0.0266346 -1.72138e-05 1.71139e-08
0.0266266 -1.02096e-05 3.31163e-08
0.0266215 -6.13569e-06 3.25623e-08
0.0266182 -3.73185e-06 2.74562e-08
0.026616 -2.29389e-06 2.17809e-08
0.0266145 -1.42256e-06 1.67603e-08
0.0266136 -8.88346e-07 1.26702e-08
0.0266129 -5.57407e-07 9.46843e-09
0.0266125 -3.50626e-07 7.01879e-09
0.0266122 -2.20572e-07 5.17166e-09
0.026612 -1.38429e-07 3.79167e-09
0.0266118 -8.64695e-08 2.76521e-09
0.0266117 -5.36527e-08 1.99984e-09
0.0266117 -3.30218e-08 1.42004e-09
0.0266116 -2.01274e-08 9.61074e-10
0.0266116 -1.20501e-08 5.6089e-10
0.0266116 -6.76317e-09 1.48767e-10
0.0266116 -2.67543e-09 -3.71537e-10
0.0266115 1.75542e-09 -1.14747e-09
0.0266115 8.43983e-09 -2.41416e-09
0.0266115 2.02141e-08 -4.54917e-09
0.0266115 4.17273e-08 -8.18625e-09
0.0266115 8.09345e-08 -1.44032e-08
0.0266116 1.51936e-07 -2.32095e-08
0.0266116 2.86508e-07 -3.27172e-08
0.0266118 5.71806e-07 -1.41288e-07
0.026612 1.09558e-06 -6.97631e-07
0.0266122 1.42306e-06 -1.15019e-06
0.01 -9.74135e-07 -2.3913e-06
0.0100007 0.000143335 -0.00295239
0.0131149 0.000865898 -0.00555006
0.0170905 0.0018483 -0.00411354
0.0208276 0.00317146 -0.00237255
0.0250319 0.00573983 -0.00160971
0.0303578 0.00842486 -0.00152243
0.0390095 0.0105504 -0.0011569
0.0515914 0.0043691 -4.06204e-05