# vtk DataFile Version 2.0
Tobias Weinzierl: CPU, Manycore and Cluster Computing
ASCII

DATASET STRUCTURED_POINTS
DIMENSIONS  51 11 6

ORIGIN 0 0 0 

SPACING 0.1 0.1 0.1 

POINT_DATA 3366

VECTORS velocity float
0 0 0
7.94533e-12 0 0
-3.43098e-08 0 0
-1.33884e-07 0 0
-2.34871e-07 0 0
-9.32498e-08 0 0
-3.85141e-08 0 0
-4.25562e-09 0 0
9.45512e-09 0 0
-1.46167e-08 0 0
-5.84325e-08 0 0
-9.46944e-08 0 0
-1.11309e-07 0 0
-1.12492e-07 0 0
-1.07788e-07 0 0
-1.03792e-07 0 0
-1.02424e-07 0 0
-1.03037e-07 0 0
-1.04494e-07 0 0
-1.06017e-07 0 0
-1.07255e-07 0 0
-1.08131e-07 0 0
-1.08692e-07 0 0
-1.0902e-07 0 0
-1.0919e-07 0 0
-1.09264e-07 0 0
-1.09283e-07 0 0
-1.09273e-07 0 0
-1.09251e-07 0 0
-1.09225e-07 0 0
-1.09199e-07 0 0
-1.09176e-07 0 0
-1.09157e-07 0 0
-1.09141e-07 0 0
-1.09127e-07 0 0
-1.09116e-07 0 0
-1.09106e-07 0 0
-1.09098e-07 0 0
-1.0909e-07 0 0
-1.09084e-07 0 0
-1.09078e-07 0 0
-1.09072e-07 0 0
-1.09067e-07 0 0
-1.09062e-07 0 0
-1.09059e-07 0 0
-1.09056e-07 0 0
-1.09055e-07 0 0
-1.09055e-07 0 0
-1.09056e-07 0 0
-1.09062e-07 0 0
0.00237119 0 0
0 4.20813e-07 0
3.77324e-11 7.79086e-09 0
-5.4421e-08 3.2269e-08 0
-2.37226e-07 5.5412e-08 0
-3.87717e-07 3.53608e-08 0
-1.61661e-07 5.32957e-08 0
-1.03788e-07 1.02543e-07 0
-7.03417e-08 8.48361e-08 0
-2.96129e-08 6.11758e-08 0
-4.05949e-08 6.28826e-08 0
-9.77202e-08 6.0887e-08 0
-1.56819e-07 4.42797e-08 0
-1.88776e-07 2.13773e-08 0
-1.95568e-07 4.44816e-09 0
-1.93818e-07 -2.22039e-09 0
-1.94914e-07 -2.08672e-09 0
-2.00646e-07 -2.25051e-11 0
-2.08533e-07 1.46351e-09 0
-2.1613e-07 1.9457e-09 0
-2.22226e-07 1.77839e-09 0
-2.2659e-07 1.35534e-09 0
-2.29462e-07 9.13326e-10 0
-2.31225e-07 5.52543e-10 0
-2.32233e-07 2.95114e-10 0
-2.32762e-07 1.28662e-10 0
-2.33005e-07 3.04847e-11 0
-2.33088e-07 -2.13895e-11 0
-2.33087e-07 -4.43267e-11 0
-2.33049e-07 -5.05916e-11 0
-2.32997e-07 -4.81721e-11 0
-2.32945e-07 -4.19145e-11 0
-2.32897e-07 -3.45491e-11 0
-2.32856e-07 -2.74751e-11 0
-2.32821e-07 -2.13051e-11 0
-2.32792e-07 -1.6218e-11 0
-2.32768e-07 -1.2174e-11 0
-2.32748e-07 -9.03896e-12 0
-2.32731e-07 -6.65129e-12 0
-2.32715e-07 -4.8548e-12 0
-2.32702e-07 -3.51286e-12 0
-2.32689e-07 -2.51229e-12 0
-2.32678e-07 -1.76172e-12 0
-2.32668e-07 -1.18793e-12 0
-2.32659e-07 -7.33573e-13 0
-2.32652e-07 -3.42025e-13 0
-2.32647e-07 9.01683e-14 0
-2.32645e-07 6.61803e-13 0
-2.32647e-07 1.54731e-12 0
-2.32653e-07 5.48808e-12 0
-2.32669e-07 2.02656e-11 0
0.00656119 -1.39299e-07 0
0 -2.5352e-09 0
6.94396e-11 8.95894e-09 0
1.29377e-09 -8.1091e-09 0
-1.25016e-07 -9.19941e-08 0
-1.77598e-07 -1.54584e-07 0
-1.27496e-08 -2.88766e-08 0
-9.01543e-08 1.32849e-07 0
-1.26628e-07 1.16088e-07 0
-1.00181e-07 4.53332e-08 0
-7.3716e-08 1.32767e-08 0
-9.95352e-08 4.93805e-09 0
-1.41109e-07 1.58125e-08 0
-1.66551e-07 3.40247e-08 0
-1.69674e-07 4.41362e-08 0
-1.65074e-07 4.34368e-08 0
-1.6514e-07 3.70525e-08 0
-1.71568e-07 2.91161e-08 0
-1.80892e-07 2.15371e-08 0
-1.89829e-07 1.51095e-08 0
-1.9683e-07 1.00913e-08 0
-2.01667e-07 6.42525e-09 0
-2.04715e-07 3.89237e-09 0
-2.06488e-07 2.22686e-09 0
-2.07434e-07 1.18215e-09 0
-2.07884e-07 5.58189e-10 0
-2.08056e-07 2.05974e-10 0
-2.08082e-07 2.13584e-11 0
-2.08042e-07 -6.47513e-11 0
-2.07976e-07 -9.61079e-11 0
-2.07907e-07 -9.91981e-11 0
-2.07843e-07 -8.93208e-11 0
-2.07789e-07 -7.48388e-11 0
-2.07743e-07 -5.99952e-11 0
-2.07707e-07 -4.6697e-11 0
-2.07677e-07 -3.55971e-11 0
-2.07652e-07 -2.67229e-11 0
-2.07631e-07 -1.98268e-11 0
-2.07614e-07 -1.45702e-11 0
-2.07599e-07 -1.06143e-11 0
-2.07585e-07 -7.65729e-12 0
-2.07573e-07 -5.44589e-12 0
-2.07561e-07 -3.77175e-12 0
-2.07551e-07 -2.45674e-12 0
-2.07543e-07 -1.33276e-12 0
-2.07536e-07 -2.30621e-13 0
-2.07531e-07 1.14535e-12 0
-2.0753e-07 3.76226e-12 0
-2.07533e-07 9.43644e-12 0
-2.07536e-07 1.84916e-11 0
-2.07547e-07 3.01708e-11 0
0.00891494 -2.25668e-07 0
0 -6.16418e-07 0
7.64514e-11 -1.48316e-08 0
4.89712e-08 -8.38897e-08 0
-4.74714e-08 -2.164e-07 0
-1.10723e-07 -2.90896e-07 0
5.56627e-08 -1.43608e-07 0
-2.48603e-08 -6.07521e-11 0
-6.05427e-08 -3.13362e-08 0
-1.27229e-07 -9.32739e-08 0
-1.33698e-07 -1.18337e-07 0
-1.59388e-07 -8.78099e-08 0
-1.9674e-07 -2.48581e-08 0
-2.14499e-07 3.71134e-08 0
-2.04798e-07 6.58527e-08 0
-1.80924e-07 6.61683e-08 0
-1.59825e-07 5.51856e-08 0
-1.48296e-07 4.22607e-08 0
-1.44622e-07 3.0444e-08 0
-1.44824e-07 2.0695e-08 0
-1.46085e-07 1.32802e-08 0
-1.4716e-07 8.03475e-09 0
-1.47752e-07 4.55276e-09 0
-1.47944e-07 2.37121e-09 0
-1.47892e-07 1.08024e-09 0
-1.47728e-07 3.63437e-10 0
-1.47533e-07 -2.74677e-12 0
-1.47348e-07 -1.66133e-10 0
-1.4719e-07 -2.19275e-10 0
-1.47063e-07 -2.17278e-10 0
-1.46964e-07 -1.91303e-10 0
-1.46887e-07 -1.5793e-10 0
-1.46829e-07 -1.25262e-10 0
-1.46784e-07 -9.67188e-11 0
-1.4675e-07 -7.32786e-11 0
-1.46723e-07 -5.47553e-11 0
-1.467e-07 -4.04877e-11 0
-1.46682e-07 -2.96913e-11 0
-1.46666e-07 -2.16208e-11 0
-1.46653e-07 -1.56341e-11 0
-1.4664e-07 -1.12044e-11 0
-1.46628e-07 -7.90916e-12 0
-1.46618e-07 -5.40868e-12 0
-1.46608e-07 -3.41978e-12 0
-1.46599e-07 -1.65752e-12 0
-1.46593e-07 2.727e-13 0
-1.46588e-07 2.82356e-12 0
-1.46585e-07 6.06816e-12 0
-1.46583e-07 9.73173e-12 0
-1.46579e-07 1.41831e-11 0
-1.46579e-07 2.05351e-11 0
0.00957058 -1.92385e-07 0
0 -1.1823e-06 0
2.00859e-11 -4.89948e-08 0
2.35096e-08 -1.39101e-07 0
-8.41202e-08 -1.90625e-07 0
-1.9083e-07 -1.55592e-07 0
-5.21913e-12 -5.50623e-08 0
1.79999e-10 1.59915e-10 0
-1.48371e-10 1.52761e-10 0
-6.6117e-08 -7.26708e-08 0
-1.79383e-07 -1.51744e-07 0
-2.13662e-07 -1.18286e-07 0
-2.38111e-07 -3.18959e-08 0
-2.54663e-07 3.89549e-08 0
-2.48152e-07 6.34603e-08 0
-2.19846e-07 5.64588e-08 0
-1.85429e-07 4.2734e-08 0
-1.58546e-07 3.10335e-08 0
-1.42203e-07 2.16055e-08 0
-1.33367e-07 1.39842e-08 0
-1.28558e-07 8.21223e-09 0
-1.25683e-07 4.24338e-09 0
-1.23776e-07 1.77233e-09 0
-1.22436e-07 3.83303e-10 0
-1.21481e-07 -3.0517e-10 0
-1.20808e-07 -5.8055e-10 0
-1.2034e-07 -6.34378e-10 0
-1.2002e-07 -5.83152e-10 0
-1.19802e-07 -4.92228e-10 0
-1.19655e-07 -3.95171e-10 0
-1.19555e-07 -3.07192e-10 0
-1.19485e-07 -2.33635e-10 0
-1.19437e-07 -1.7498e-10 0
-1.19402e-07 -1.29603e-10 0
-1.19375e-07 -9.52063e-11 0
-1.19355e-07 -6.95029e-11 0
-1.19338e-07 -5.04897e-11 0
-1.19324e-07 -3.65269e-11 0
-1.19311e-07 -2.63225e-11 0
-1.193e-07 -1.8882e-11 0
-1.19289e-07 -1.34494e-11 0
-1.19278e-07 -9.45184e-12 0
-1.19269e-07 -6.44523e-12 0
-1.19259e-07 -4.07162e-12 0
-1.19251e-07 -2.06639e-12 0
-1.19243e-07 -3.12891e-13 0
-1.19237e-07 1.19098e-12 0
-1.19232e-07 2.49399e-12 0
-1.19228e-07 3.81729e-12 0
-1.19223e-07 5.81224e-12 0
-1.19222e-07 9.39943e-12 0
0.00971256 -1.0205e-07 0
0 -1.05484e-06 0
-1.25875e-11 -5.20022e-08 0
-8.97254e-09 -1.14478e-07 0
-1.13443e-07 -1.53636e-07 0
-2.37965e-07 -1.75765e-07 0
-1.07648e-07 -8.46042e-08 0
1.80914e-10 -1.38774e-10 0
-8.833e-12 8.833e-12 0
-1.62168e-10 1.34632e-10 0
-9.34229e-08 -7.22322e-08 0
-1.94737e-07 -1.18371e-07 0
-2.0159e-07 -3.15297e-08 0
-2.32264e-07 5.59488e-08 0
-2.60399e-07 7.48121e-08 0
-2.53618e-07 5.18981e-08 0
-2.17441e-07 2.7304e-08 0
-1.78728e-07 1.29596e-08 0
-1.51435e-07 5.41783e-09 0
-1.35367e-07 1.05483e-09 0
-1.26353e-07 -1.46044e-09 0
-1.21182e-07 -2.64004e-09 0
-1.18099e-07 -2.91925e-09 0
-1.16215e-07 -2.69733e-09 0
-1.15058e-07 -2.26572e-09 0
-1.14351e-07 -1.79688e-09 0
-1.13924e-07 -1.37387e-09 0
-1.13667e-07 -1.02575e-09 0
-1.13515e-07 -7.54048e-10 0
-1.13423e-07 -5.48767e-10 0
-1.13368e-07 -3.96819e-10 0
-1.13334e-07 -2.85798e-10 0
-1.13312e-07 -2.05334e-10 0
-1.13296e-07 -1.47306e-10 0
-1.13284e-07 -1.05579e-10 0
-1.13274e-07 -7.5624e-11 0
-1.13264e-07 -5.41367e-11 0
-1.13255e-07 -3.87276e-11 0
-1.13247e-07 -2.76735e-11 0
-1.13238e-07 -1.97334e-11 0
-1.13229e-07 -1.40123e-11 0
-1.1322e-07 -9.86491e-12 0
-1.13211e-07 -6.83533e-12 0
-1.13202e-07 -4.61806e-12 0
-1.13194e-07 -3.0099e-12 0
-1.13186e-07 -1.85732e-12 0
-1.1318e-07 -1.05823e-12 0
-1.13176e-07 -6.21994e-13 0
-1.13173e-07 -6.08138e-13 0
-1.13169e-07 -6.34007e-13 0
-1.13168e-07 1.49918e-13 0
0.00973384 3.7709e-09 0
0 -7.41353e-07 0
8.59443e-12 -4.44905e-08 0
-1.32181e-08 -1.06323e-07 0
-1.1416e-07 -1.18651e-07 0
-2.59273e-07 -9.93287e-08 0
-2.42135e-07 -5.74195e-08 0
-7.03251e-08 -1.49126e-08 0
1.4871e-10 -1.28703e-10 0
-3.26046e-11 3.26046e-11 0
-1.98633e-10 1.24839e-10 0
-8.02147e-08 -4.68729e-08 0
-9.06817e-08 -9.73861e-09 0
-1.38895e-07 1.0683e-07 0
-2.22799e-07 1.15753e-07 0
-2.65041e-07 6.03594e-08 0
-2.42526e-07 1.23424e-08 0
-1.96632e-07 -8.98334e-09 0
-1.60211e-07 -1.45281e-08 0
-1.39132e-07 -1.42456e-08 0
-1.28505e-07 -1.21652e-08 0
-1.23418e-07 -9.64981e-09 0
-1.21025e-07 -7.26811e-09 0
-1.1992e-07 -5.27469e-09 0
-1.19434e-07 -3.73354e-09 0
-1.19241e-07 -2.60268e-09 0
-1.19183e-07 -1.80003e-09 0
-1.19184e-07 -1.24152e-09 0
-1.19207e-07 -8.56923e-10 0
-1.19233e-07 -5.93134e-10 0
-1.19257e-07 -4.12158e-10 0
-1.19276e-07 -2.8764e-10 0
-1.19289e-07 -2.01594e-10 0
-1.19297e-07 -1.41839e-10 0
-1.19302e-07 -1.00133e-10 0
-1.19303e-07 -7.08875e-11 0
-1.19301e-07 -5.02928e-11 0
-1.19297e-07 -3.57371e-11 0
-1.19292e-07 -2.54173e-11 0
-1.19286e-07 -1.80809e-11 0
-1.19279e-07 -1.28553e-11 0
-1.19271e-07 -9.13312e-12 0
-1.19263e-07 -6.49041e-12 0
-1.19255e-07 -4.63135e-12 0
-1.19247e-07 -3.35947e-12 0
-1.19241e-07 -2.56736e-12 0
-1.19235e-07 -2.23945e-12 0
-1.19232e-07 -2.5183e-12 0
-1.1923e-07 -3.77494e-12 0
-1.19226e-07 -6.1653e-12 0
-1.19227e-07 -8.94525e-12 0
0.00971253 1.08137e-07 0
0 -5.23796e-07 0
2.10089e-11 -3.84426e-08 0
-2.20203e-08 -8.9043e-08 0
-1.26903e-07 -9.18097e-08 0
-2.52695e-07 -5.41567e-08 0
-2.63609e-07 -1.65772e-08 0
-1.694e-07 -2.62884e-08 0
-7.96751e-08 -2.26538e-08 0
1.03948e-10 -1.5342e-10 0
-2.12031e-10 -1.225e-10 0
-4.03389e-11 -2.52672e-08 0
-4.34162e-08 4.07311e-08 0
-4.31245e-08 1.70289e-07 0
-1.03857e-07 1.67089e-07 0
-1.89082e-07 7.4933e-08 0
-2.1755e-07 7.2079e-10 0
-1.97192e-07 -2.73307e-08 0
-1.69622e-07 -2.98573e-08 0
-1.52608e-07 -2.44855e-08 0
-1.45345e-07 -1.81017e-08 0
-1.43283e-07 -1.26709e-08 0
-1.4332e-07 -8.57742e-09 0
-1.43979e-07 -5.6953e-09 0
-1.44686e-07 -3.74972e-09 0
-1.45267e-07 -2.46743e-09 0
-1.45699e-07 -1.63129e-09 0
-1.46006e-07 -1.08686e-09 0
-1.46219e-07 -7.30776e-10 0
-1.46365e-07 -4.95994e-10 0
-1.46463e-07 -3.39675e-10 0
-1.4653e-07 -2.34524e-10 0
-1.46574e-07 -1.63082e-10 0
-1.46602e-07 -1.14091e-10 0
-1.46619e-07 -8.02175e-11 0
-1.46629e-07 -5.66283e-11 0
-1.46634e-07 -4.0102e-11 0
-1.46634e-07 -2.84676e-11 0
-1.46632e-07 -2.02466e-11 0
-1.46628e-07 -1.44232e-11 0
-1.46622e-07 -1.02945e-11 0
-1.46615e-07 -7.37187e-12 0
-1.46608e-07 -5.31891e-12 0
-1.46601e-07 -3.91359e-12 0
-1.46593e-07 -3.02895e-12 0
-1.46587e-07 -2.62981e-12 0
-1.46582e-07 -2.77149e-12 0
-1.46579e-07 -3.65546e-12 0
-1.46578e-07 -5.95904e-12 0
-1.46577e-07 -1.10069e-11 0
-1.46578e-07 -1.90335e-11 0
0.00957049 1.92032e-07 0
0 -4.60289e-07 0
3.8388e-11 -2.84274e-08 0
-4.0524e-08 -6.88738e-08 0
-1.56499e-07 -7.16125e-08 0
-2.68778e-07 -3.8605e-08 0
-2.82281e-07 3.10526e-09 0
-2.12385e-07 -3.46119e-09 0
-1.64762e-07 -7.34495e-08 0
-8.53252e-08 -5.94509e-08 0
-8.96978e-08 -6.94617e-14 0
-1.8726e-07 3.12127e-08 0
-2.62047e-07 8.80479e-08 0
-1.40467e-07 1.32873e-07 0
-4.72067e-08 1.28158e-07 0
-1.04225e-07 6.78981e-08 0
-1.8397e-07 1.01038e-08 0
-2.08318e-07 -1.73091e-08 0
-2.0367e-07 -2.19647e-08 0
-1.98106e-07 -1.77625e-08 0
-1.97225e-07 -1.23828e-08 0
-1.9892e-07 -8.1545e-09 0
-2.01171e-07 -5.26896e-09 0
-2.03116e-07 -3.40168e-09 0
-2.04564e-07 -2.21426e-09 0
-2.05571e-07 -1.45881e-09 0
-2.06251e-07 -9.73514e-10 0
-2.06704e-07 -6.57522e-10 0
-2.07005e-07 -4.48846e-10 0
-2.07205e-07 -3.09209e-10 0
-2.07338e-07 -2.14672e-10 0
-2.07426e-07 -1.50013e-10 0
-2.07484e-07 -1.054e-10 0
-2.07522e-07 -7.43854e-11 0
-2.07546e-07 -5.26852e-11 0
-2.07561e-07 -3.74204e-11 0
-2.07568e-07 -2.66358e-11 0
-2.07571e-07 -1.8991e-11 0
-2.0757e-07 -1.35591e-11 0
-2.07567e-07 -9.69531e-12 0
-2.07562e-07 -6.94924e-12 0
-2.07556e-07 -5.00803e-12 0
-2.07549e-07 -3.65968e-12 0
-2.07542e-07 -2.77117e-12 0
-2.07535e-07 -2.27829e-12 0
-2.07529e-07 -2.19757e-12 0
-2.07525e-07 -2.64926e-12 0
-2.07523e-07 -3.86023e-12 0
-2.07523e-07 -6.59431e-12 0
-2.07524e-07 -1.35356e-11 0
-2.07531e-07 -2.7323e-11 0
0.00891484 2.11582e-07 0
0 -4.8525e-07 0
5.09215e-11 -1.39781e-08 0
-5.75633e-08 -3.58462e-08 0
-1.71114e-07 -3.69975e-08 0
-2.62008e-07 -2.06652e-08 0
-2.85064e-07 -1.27283e-08 0
-2.40748e-07 -2.57636e-08 0
-2.09143e-07 -6.74604e-08 0
-2.30629e-07 -5.34377e-08 0
-2.14077e-07 5.66778e-08 0
-2.4894e-07 1.43351e-07 0
-2.34238e-07 1.07968e-07 0
-1.29461e-07 -2.06725e-09 0
-6.6428e-08 -6.9188e-08 0
-1.3065e-07 -6.54425e-08 0
-2.13812e-07 -2.75919e-08 0
-2.42292e-07 1.89993e-09 0
-2.3856e-07 1.06941e-08 0
-2.31167e-07 8.46235e-09 0
-2.27763e-07 4.40763e-09 0
-2.27375e-07 1.64392e-09 0
-2.28224e-07 2.68061e-10 0
-2.29319e-07 -2.68496e-10 0
-2.30278e-07 -4.03945e-10 0
-2.31014e-07 -3.80426e-10 0
-2.31546e-07 -3.09745e-10 0
-2.31918e-07 -2.36417e-10 0
-2.32174e-07 -1.74762e-10 0
-2.3235e-07 -1.27092e-10 0
-2.3247e-07 -9.16649e-11 0
-2.32551e-07 -6.58514e-11 0
-2.32606e-07 -4.72244e-11 0
-2.32641e-07 -3.38439e-11 0
-2.32664e-07 -2.42495e-11 0
-2.32678e-07 -1.73735e-11 0
-2.32685e-07 -1.24456e-11 0
-2.32688e-07 -8.91365e-12 0
-2.32687e-07 -6.383e-12 0
-2.32684e-07 -4.57202e-12 0
-2.32679e-07 -3.28073e-12 0
-2.32673e-07 -2.36917e-12 0
-2.32666e-07 -1.7434e-12 0
-2.32659e-07 -1.34677e-12 0
-2.32652e-07 -1.15889e-12 0
-2.32646e-07 -1.20557e-12 0
-2.32643e-07 -1.58929e-12 0
-2.32641e-07 -2.49891e-12 0
-2.32643e-07 -4.40326e-12 0
-2.32647e-07 -9.41598e-12 0
-2.32662e-07 -2.12736e-11 0
0.00656119 1.17448e-07 0
0 0 0
2.90735e-11 0 0
-3.07574e-08 0 0
-8.24788e-08 0 0
-1.19758e-07 0 0
-1.31899e-07 0 0
-1.27416e-07 0 0
-1.24066e-07 0 0
-1.45328e-07 0 0
-1.24393e-07 0 0
-6.17206e-08 0 0
-6.15833e-09 0 0
3.76053e-09 0 0
-3.07257e-08 0 0
-8.61197e-08 0 0
-1.22686e-07 0 0
-1.29667e-07 0 0
-1.22761e-07 0 0
-1.15168e-07 0 0
-1.10637e-07 0 0
-1.08647e-07 0 0
-1.0804e-07 0 0
-1.08029e-07 0 0
-1.08215e-07 0 0
-1.08428e-07 0 0
-1.08611e-07 0 0
-1.08753e-07 0 0
-1.08857e-07 0 0
-1.08931e-07 0 0
-1.08982e-07 0 0
-1.09018e-07 0 0
-1.09042e-07 0 0
-1.09058e-07 0 0
-1.09068e-07 0 0
-1.09074e-07 0 0
-1.09077e-07 0 0
-1.09078e-07 0 0
-1.09077e-07 0 0
-1.09076e-07 0 0
-1.09073e-07 0 0
-1.0907e-07 0 0
-1.09066e-07 0 0
-1.09063e-07 0 0
-1.09059e-07 0 0
-1.09057e-07 0 0
-1.09055e-07 0 0
-1.09054e-07 0 0
-1.09055e-07 0 0
-1.09058e-07 0 0
-1.09068e-07 0 0
0.00237123 0 0
0 0 5.42531e-07
5.77111e-11 0 2.65052e-08
-4.51135e-08 0 1.01611e-07
-2.51598e-07 0 1.45145e-07
-6.32295e-07 0 -7.59885e-08
-2.38879e-07 0 -2.49637e-07
-5.51556e-08 0 -1.91517e-07
6.4571e-08 0 -1.32784e-07
1.2495e-07 0 -5.07957e-08
1.0576e-07 0 5.02094e-09
3.06533e-08 0 1.92034e-08
-5.55674e-08 0 8.60684e-09
-1.21025e-07 0 -3.57221e-09
-1.59114e-07 0 -7.96485e-09
-1.78685e-07 0 -6.47808e-09
-1.90868e-07 0 -3.27861e-09
-2.01408e-07 0 -7.35724e-10
-2.11231e-07 0 6.03778e-10
-2.19642e-07 0 1.03197e-09
-2.26141e-07 0 9.82061e-10
-2.30744e-07 0 7.6175e-10
-2.33779e-07 0 5.2877e-10
-2.35658e-07 0 3.41682e-10
-2.36748e-07 0 2.09763e-10
-2.37335e-07 0 1.2374e-10
-2.37615e-07 0 7.05655e-11
-2.37722e-07 0 3.89899e-11
-2.37736e-07 0 2.08484e-11
-2.37705e-07 0 1.07298e-11
-2.37658e-07 0 5.25011e-12
-2.37607e-07 0 2.37806e-12
-2.37559e-07 0 9.32512e-13
-2.37518e-07 0 2.45084e-13
-2.37483e-07 0 -5.28923e-14
-2.37453e-07 0 -1.59475e-13
-2.37429e-07 0 -1.77881e-13
-2.37408e-07 0 -1.5979e-13
-2.3739e-07 0 -1.2946e-13
-2.37375e-07 0 -9.67513e-14
-2.37361e-07 0 -6.3901e-14
-2.37348e-07 0 -2.87095e-14
-2.37337e-07 0 1.49053e-14
-2.37327e-07 0 7.76338e-14
-2.37318e-07 0 1.72936e-13
-2.3731e-07 0 3.25767e-13
-2.37305e-07 0 6.01906e-13
-2.37303e-07 0 9.76096e-13
-2.37304e-07 0 1.23839e-12
-2.3731e-07 0 3.50149e-12
-2.37325e-07 0 1.56507e-11
0.00654287 0 -7.91047e-08
0.0036 -1.70526e-07 2.83623e-08
0.00359981 -0.00128986 -1.69164e-05
0.00687547 -0.004053 -0.000334077
0.0140662 -0.00729678 -0.00192056
0.0251611 -0.0140957 -0.00513484
0.0462173 -0.0112532 -0.00469418
0.0492125 -0.00103063 -0.00139152
0.0487357 0.00315236 0.000175931
0.0435077 0.00532 0.000821806
0.0378391 0.00531509 0.000586679
0.0327992 0.00441197 9.41145e-05
0.0286161 0.00328102 -0.000274542
0.0253622 0.00224809 -0.000397279
0.0230046 0.0014603 -0.000335441
0.0213906 0.000931325 -0.000211943
0.020324 0.000596448 -0.000107866
0.0196367 0.000383344 -4.47355e-05
0.0192039 0.000244515 -1.38072e-05
0.0189379 0.00015335 -1.31267e-06
0.0187782 9.4121e-05 2.50128e-06
0.0186848 5.64208e-05 2.89264e-06
0.0186316 3.29848e-05 2.25011e-06
0.0186022 1.87626e-05 1.49577e-06
0.0185865 1.0338e-05 9.05548e-07
0.0185786 5.47175e-06 5.1037e-07
0.0185748 2.73762e-06 2.68489e-07
0.0185733 1.25103e-06 1.29808e-07
0.0185729 4.76317e-07 5.48218e-08
0.018573 9.6553e-08 1.68166e-08
0.0185733 -7.14234e-08 -7.98339e-10
0.0185736 -1.30851e-07 -7.74653e-09
0.0185739 -1.38275e-07 -9.46836e-09
0.0185742 -1.23588e-07 -8.87441e-09
0.0185744 -1.01839e-07 -7.44375e-09
0.0185745 -8.00586e-08 -5.877e-09
0.0185746 -6.11025e-08 -4.46924e-09
0.0185747 -4.5767e-08 -3.31544e-09
0.0185748 -3.3918e-08 -2.41999e-09
0.0185748 -2.50712e-08 -1.75356e-09
0.0185749 -1.86742e-08 -1.28311e-09
0.0185749 -1.42348e-08 -9.89672e-10
0.0185749 -1.13709e-08 -8.8033e-10
0.0185749 -9.83695e-09 -1.00689e-09
0.0185749 -9.54756e-09 -1.48717e-09
0.0185749 -1.05192e-08 -2.40595e-09
0.018575 -1.31231e-08 -3.89557e-09
0.018575 -1.87477e-08 -6.02273e-09
0.0185751 -2.75778e-08 -3.3819e-09
0.0185752 -6.76929e-08 -9.31599e-09
0.0185755 -2.63265e-07 -1.29645e-07
0.0185759 -4.23774e-07 -2.40227e-07
0.01 -9.77628e-08 -1.28111e-06
0.0100009 -0.00309341 -0.000496661
0.0149809 -0.0101894 -0.00104457
0.0240406 -0.0182015 -0.00246239
0.0374285 -0.0306442 -0.00409616
0.0571303 -0.0218639 -0.00112123
0.0550106 -0.00167377 0.0022776
0.0549822 0.00573141 0.0025632
0.0494353 0.0106266 0.00237393
0.0439589 0.0106179 0.00147123
0.0393422 0.0093969 0.00040706
0.0353539 0.00774435 -0.000322264
0.0321326 0.00590469 -0.000596569
0.0298102 0.00417629 -0.000535967
0.0282488 0.00279341 -0.000348916
0.0272392 0.0018034 -0.000181617
0.0266053 0.00113585 -7.73575e-05
0.0262191 0.000700295 -2.51086e-05
0.0259916 0.000422791 -3.34201e-06
0.0258623 0.000249782 3.74773e-06
0.0257916 0.000144193 4.85204e-06
0.0257548 8.11073e-05 4.00517e-06
0.0257368 4.42297e-05 2.82265e-06
0.0257289 2.3171e-05 1.83132e-06
0.0257262 1.14607e-05 1.12836e-06
0.0257258 5.15575e-06 6.70711e-07
0.0257265 1.90317e-06 3.88012e-07
0.0257275 3.27869e-07 2.19584e-07
0.0257284 -3.56444e-07 1.21911e-07
0.0257293 -5.88712e-07 6.64856e-08
0.02573 -6.0719e-07 3.56142e-08
0.0257305 -5.36666e-07 1.87115e-08
0.0257309 -4.39318e-07 9.61338e-09
0.0257312 -3.43771e-07 4.80527e-09
0.0257314 -2.61346e-07 2.3186e-09
0.0257316 -1.94912e-07 1.06775e-09
0.0257317 -1.43578e-07 4.62681e-10
0.0257317 -1.05069e-07 1.86886e-10
0.0257318 -7.68793e-08 7.1399e-11
0.0257318 -5.6763e-08 2.21368e-11
0.0257319 -4.29254e-08 -2.47639e-11
0.0257319 -3.40665e-08 -1.28394e-10
0.0257319 -2.93867e-08 -3.59966e-10
0.0257319 -2.87187e-08 -8.51832e-10
0.025732 -3.27638e-08 -1.61858e-09
0.025732 -4.30202e-08 -2.03049e-09
0.0257321 -6.77977e-08 -2.05733e-09
0.0257321 -1.37766e-07 1.17029e-09
0.0257323 -2.84126e-07 -1.60249e-08
0.0257326 -5.25004e-07 -1.9951e-07
0.0257328 -6.71671e-07 -3.62572e-07
0.0148 -9.5675e-07 -1.59732e-06
0.0148024 -0.00531771 -0.00104466
0.0200188 -0.0162044 -0.00256293
0.0263668 -0.0277058 -0.00454175
0.0307723 -0.0435213 -0.00535861
0.0292881 -0.0267209 -0.000894424
0.0262576 -1.12473e-05 0.00260777
0.0261823 0.00741393 0.00264125
0.0305074 0.0153782 0.00255297
0.0308703 0.0150854 0.00163304
0.0297406 0.0132355 0.000622315
0.0285963 0.0109474 -0.000115843
0.0277892 0.00823885 -0.000413723
0.0274858 0.00566335 -0.000399623
0.0274477 0.00368313 -0.000255395
0.027492 0.00232255 -0.000117857
0.027546 0.00143216 -3.27223e-05
0.0275941 0.000863182 6.24853e-06
0.0276355 0.000507138 1.81082e-05
0.0276708 0.000289634 1.78636e-05
0.0276998 0.000160203 1.37963e-05
0.0277226 8.52581e-05 9.49117e-06
0.0277397 4.30977e-05 6.09803e-06
0.0277522 2.01382e-05 3.74362e-06
0.027761 8.12541e-06 2.22389e-06
0.0277671 2.17811e-06 1.28796e-06
0.0277713 -5.1683e-07 7.3045e-07
0.0277742 -1.53936e-06 4.06656e-07
0.0277761 -1.75226e-06 2.22407e-07
0.0277775 -1.61115e-06 1.194e-07
0.0277784 -1.34614e-06 6.27504e-08
0.027779 -1.06596e-06 3.21082e-08
0.0277794 -8.16156e-07 1.58358e-08
0.0277797 -6.11013e-07 7.38613e-09
0.0277798 -4.50422e-07 3.12846e-09
0.02778 -3.28571e-07 1.07712e-09
0.0277801 -2.38149e-07 1.61433e-10
0.0277801 -1.72233e-07 -1.86807e-10
0.0277802 -1.24997e-07 -2.64156e-10
0.0277802 -9.18714e-08 -2.24654e-10
0.0277802 -6.94863e-08 -1.53698e-10
0.0277803 -5.55729e-08 -1.10304e-10
0.0277803 -4.89152e-08 -1.31687e-10
0.0277803 -4.93706e-08 -1.91808e-10
0.0277803 -5.90957e-08 -1.75717e-10
0.0277803 -8.59108e-08 -4.72871e-11
0.0277804 -1.39952e-07 -1.68467e-09
0.0277804 -2.2511e-07 -7.14338e-09
0.0277805 -3.43331e-07 -4.6114e-08
0.0277806 -4.90813e-07 -2.49327e-07
0.0277805 -5.70372e-07 -4.17358e-07
0.018 -1.97215e-06 -1.71415e-06
0.0180026 -0.00668005 -0.00187908
0.0203552 -0.0178739 -0.00500096
0.0201306 -0.0233959 -0.00659208
0.0158542 -0.0255475 -0.00716315
-1.35903e-06 -0.0133544 -0.00369412
9.93031e-05 3.05073e-05 7.56312e-07
-3.66476e-05 3.84396e-05 0.00049875
0.00713688 0.0048119 0.00104362
0.0149157 0.0109593 0.000930576
0.0183436 0.011759 0.000505379
0.0199651 0.0100254 1.64224e-05
0.021678 0.00735989 -0.000272278
0.0234574 0.00476888 -0.00029834
0.0249881 0.00292543 -0.000192944
0.0261281 0.00175997 -7.65481e-05
0.0269004 0.00104311 -1.17079e-06
0.0273985 0.000601874 3.07543e-05
0.0277136 0.000333269 3.57692e-05
0.0279114 0.000174594 2.94998e-05
0.0280348 8.47082e-05 2.08935e-05
0.0281111 3.62482e-05 1.35586e-05
0.028158 1.16458e-05 8.31161e-06
0.0281864 1.63507e-07 4.89334e-06
0.0282036 -4.45638e-06 2.79298e-06
0.0282139 -5.70372e-06 1.55348e-06
0.0282201 -5.44176e-06 8.43711e-07
0.0282237 -4.61758e-06 4.47056e-07
0.0282259 -3.6818e-06 2.30118e-07
0.0282273 -2.82689e-06 1.13975e-07
0.028228 -2.11749e-06 5.32546e-08
0.0282285 -1.55942e-06 2.24433e-08
0.0282288 -1.13476e-06 7.45519e-09
0.028229 -8.18714e-07 6.42346e-10
0.0282291 -5.87184e-07 -2.07705e-09
0.0282292 -4.19559e-07 -2.83945e-09
0.0282292 -2.99377e-07 -2.73547e-09
0.0282293 -2.14016e-07 -2.30261e-09
0.0282293 -1.5409e-07 -1.79224e-09
0.0282293 -1.12807e-07 -1.3143e-09
0.0282293 -8.5431e-08 -9.14017e-10
0.0282293 -6.88846e-08 -6.0779e-10
0.0282293 -6.16798e-08 -4.29381e-10
0.0282293 -6.42281e-08 -5.18591e-10
0.0282293 -7.8062e-08 -1.17065e-09
0.0282293 -1.03394e-07 -3.49051e-09
0.0282293 -1.38491e-07 -1.07646e-08
0.0282293 -1.79215e-07 -2.36994e-08
0.0282293 -2.24905e-07 -7.23322e-08
0.0282293 -2.78049e-07 -2.74322e-07
0.0282291 -3.06539e-07 -4.35195e-07
0.0196 -2.61312e-06 -2.63806e-06
0.0196008 -0.0053983 -0.00272281
0.0191084 -0.0121644 -0.00649685
0.0161704 -0.0148215 -0.00694889
0.011304 -0.0135684 -0.00667054
0.00213583 -0.00551565 -0.00450929
7.4936e-05 -6.89471e-05 -0.00101103
3.22995e-05 -3.22995e-05 -4.3524e-08
-3.57486e-05 3.75466e-05 0.000155911
0.00475821 0.00361978 0.00032084
0.0108767 0.00815071 0.000257288
0.0136775 0.00774926 -1.72721e-05
0.016944 0.00496061 -0.000295484
0.0202149 0.00253995 -0.000354213
0.0229836 0.00112452 -0.000270762
0.0250114 0.000452697 -0.000138971
0.0263378 0.000161485 -3.40973e-05
0.0271501 3.24668e-05 1.85737e-05
0.027633 -2.53873e-05 3.25723e-05
0.0279164 -4.72797e-05 2.87651e-05
0.0280812 -5.03319e-05 2.03917e-05
0.0281761 -4.46747e-05 1.29135e-05
0.0282301 -3.61576e-05 7.63036e-06
0.0282605 -2.77212e-05 4.2964e-06
0.0282774 -2.05481e-05 2.32881e-06
0.0282867 -1.49066e-05 1.21907e-06
0.0282917 -1.06653e-05 6.14434e-07
0.0282944 -7.56357e-06 2.94799e-07
0.0282958 -5.33398e-06 1.30966e-07
0.0282966 -3.74866e-06 5.00803e-08
0.0282969 -2.62909e-06 1.22313e-08
0.0282971 -1.84179e-06 -3.93435e-09
0.0282971 -1.28961e-06 -9.59533e-09
0.0282971 -9.02978e-07 -1.0467e-08
0.0282971 -6.32603e-07 -9.38555e-09
0.0282971 -4.4377e-07 -7.69893e-09
0.0282971 -3.12145e-07 -6.00363e-09
0.0282971 -2.20732e-07 -4.52905e-09
0.0282971 -1.57717e-07 -3.33529e-09
0.0282971 -1.14962e-07 -2.416e-09
0.0282971 -8.69777e-08 -1.75906e-09
0.0282971 -7.02319e-08 -1.39053e-09
0.0282971 -6.24729e-08 -1.44041e-09
0.0282971 -6.18141e-08 -2.30427e-09
0.0282971 -6.61136e-08 -4.56758e-09
0.028297 -7.26583e-08 -9.01993e-09
0.028297 -7.77602e-08 -1.83606e-08
0.028297 -7.46551e-08 -3.25027e-08
0.0282969 -5.53375e-08 -8.15602e-08
0.0282968 -1.95745e-08 -2.79993e-07
0.0282967 1.63204e-09 -4.37117e-07
0.0196 -1.2751e-06 -3.5434e-06
0.0196001 -0.00332828 -0.00306902
0.0189954 -0.00707385 -0.00655439
0.0177131 -0.00674924 -0.00646993
0.0138152 -0.00302643 -0.00573399
0.009913 0.00329114 -0.00466529
0.00642093 0.00331519 -0.00235536
7.50028e-05 -6.28914e-05 -0.000443208
2.71428e-05 -2.71428e-05 -1.29942e-07
-3.47595e-05 3.67377e-05 4.51936e-05
0.00360678 0.00280525 0.000338523
0.00824003 0.00404025 0.000373825
0.0136403 0.00103437 -2.41167e-05
0.0184568 -0.00103752 -0.000306529
0.0222382 -0.00169519 -0.000382072
0.0248432 -0.00150185 -0.000279763
0.0264171 -0.00106857 -0.000133963
0.0272864 -0.000699525 -3.7488e-05
0.0277469 -0.000448991 2.80807e-06
0.027987 -0.000288287 1.22123e-05
0.0281109 -0.000185346 1.05908e-05
0.0281739 -0.000119075 6.92536e-06
0.0282053 -7.64417e-05 3.96682e-06
0.0282204 -4.91214e-05 2.08434e-06
0.0282273 -3.16689e-05 1.01557e-06
0.0282302 -2.05257e-05 4.5175e-07
0.0282312 -1.33933e-05 1.72044e-07
0.0282313 -8.80536e-06 4.24348e-08
0.0282311 -5.83402e-06 -1.18279e-08
0.0282308 -3.89458e-06 -3.02281e-08
0.0282305 -2.61824e-06 -3.27406e-08
0.0282302 -1.77148e-06 -2.90484e-08
0.02823 -1.20546e-06 -2.36018e-08
0.0282298 -8.24526e-07 -1.82812e-08
0.0282297 -5.6669e-07 -1.37562e-08
0.0282296 -3.91396e-07 -1.01595e-08
0.0282295 -2.71894e-07 -7.40951e-09
0.0282294 -1.90412e-07 -5.36104e-09
0.0282294 -1.35076e-07 -3.87194e-09
0.0282294 -9.79154e-08 -2.83614e-09
0.0282294 -7.35189e-08 -2.20904e-09
0.0282293 -5.80438e-08 -2.03701e-09
0.0282293 -4.84943e-08 -2.48284e-09
0.0282293 -4.21731e-08 -3.85005e-09
0.0282293 -3.61232e-08 -6.47504e-09
0.0282293 -2.65264e-08 -1.09115e-08
0.0282292 -7.9175e-09 -1.99598e-08
0.0282292 3.03577e-08 -3.32657e-08
0.0282291 1.07663e-07 -7.82144e-08
0.0282291 2.3403e-07 -2.71686e-07
0.028229 3.09009e-07 -4.27289e-07
0.018 -8.0684e-07 -3.48019e-06
0.0180009 -0.00168464 -0.00300588
0.0184675 -0.00295886 -0.00621801
0.0187762 -0.00140912 -0.00570782
0.0181168 0.00173371 -0.0046083
0.0180436 0.00760354 -0.00371115
0.0186347 0.0126847 -0.00230248
0.011493 0.00694899 -0.00103526
7.67127e-05 -4.90701e-05 -0.000327606
-2.78636e-05 -5.64849e-05 5.50923e-07
7.74979e-06 -0.000231728 0.000824638
0.00929603 -0.00240553 0.00132857
0.0170475 -0.00514001 0.000719933
0.0219286 -0.00578396 0.000162082
0.0247992 -0.00497252 -0.000229286
0.0264342 -0.00352491 -0.000324654
0.0272802 -0.00218407 -0.000231212
0.027659 -0.00126664 -0.000117974
0.0278013 -0.000724012 -4.92048e-05
0.0278403 -0.000416938 -1.81665e-05
0.0278406 -0.000242759 -6.33286e-06
0.0278293 -0.000142742 -2.26041e-06
0.0278169 -8.47309e-05 -9.31345e-07
0.0278065 -5.08179e-05 -4.89209e-07
0.0277988 -3.08332e-05 -3.17122e-07
0.0277931 -1.89451e-05 -2.27094e-07
0.0277892 -1.17948e-05 -1.66419e-07
0.0277865 -7.44076e-06 -1.21134e-07
0.0277846 -4.75447e-06 -8.6986e-08
0.0277833 -3.07484e-06 -6.17065e-08
0.0277824 -2.01075e-06 -4.339e-08
0.0277817 -1.32814e-06 -3.03464e-08
0.0277813 -8.85156e-07 -2.11683e-08
0.027781 -5.94679e-07 -1.47579e-08
0.0277808 -4.02492e-07 -1.02984e-08
0.0277806 -2.74407e-07 -7.20215e-09
0.0277805 -1.88593e-07 -5.05696e-09
0.0277804 -1.30943e-07 -3.58027e-09
0.0277804 -9.22228e-08 -2.58691e-09
0.0277804 -6.62679e-08 -1.97046e-09
0.0277803 -4.88235e-08 -1.69519e-09
0.0277803 -3.67514e-08 -1.79024e-09
0.0277803 -2.74341e-08 -2.36122e-09
0.0277803 -1.82501e-08 -3.64012e-09
0.0277802 -5.98705e-09 -5.87631e-09
0.0277802 1.39537e-08 -9.46667e-09
0.0277802 4.83538e-08 -1.71093e-08
0.0277802 1.102e-07 -2.7883e-08
0.0277802 2.32522e-07 -6.32319e-08
0.0277802 4.42239e-07 -2.45169e-07
0.0277802 5.69694e-07 -3.97148e-07
0.0148 -4.71355e-07 -3.03554e-06
0.0148015 -0.000773561 -0.00279229
0.016452 -0.000879333 -0.00554877
0.0184898 0.00102784 -0.00476091
0.0204044 0.00406192 -0.00356403
0.0224934 0.00761868 -0.00290446
0.0261405 0.0127707 -0.00208566
0.0292736 0.0197819 -0.00115219
0.0238768 0.0117021 -0.000154742
0.0242613 -4.30057e-11 0.0006076
0.0277247 -0.00690924 0.00150299
0.0321999 -0.0136512 0.00226303
0.0334629 -0.0118568 0.00201148
0.0323475 -0.00870789 0.00126602
0.0303668 -0.00593319 0.000288233
0.0286122 -0.00371561 -0.000290814
0.0274268 -0.00212109 -0.000368696
0.0267146 -0.00113711 -0.00024302
0.0263027 -0.000597479 -0.000123825
0.0260659 -0.000316615 -5.57668e-05
0.0259293 -0.000171182 -2.36916e-05
0.02585 -9.46729e-05 -9.82827e-06
0.0258035 -5.35318e-05 -4.06433e-06
0.0257759 -3.09055e-05 -1.6993e-06
0.0257594 -1.81906e-05 -7.25448e-07
0.0257493 -1.08997e-05 -3.17768e-07
0.0257431 -6.63981e-06 -1.42512e-07
0.0257392 -4.10711e-06 -6.47217e-08
0.0257367 -2.57667e-06 -2.91172e-08
0.0257351 -1.6377e-06 -1.24718e-08
0.0257341 -1.05338e-06 -4.66395e-09
0.0257334 -6.84918e-07 -1.09165e-09
0.0257329 -4.49744e-07 4.26132e-10
0.0257326 -2.97999e-07 9.56946e-10
0.0257324 -1.99153e-07 1.03187e-09
0.0257322 -1.34259e-07 9.13607e-10
0.0257322 -9.13978e-08 7.26992e-10
0.0257321 -6.29618e-08 5.24388e-10
0.025732 -4.40054e-08 3.18353e-10
0.025732 -3.12147e-08 9.62572e-11
0.025732 -2.2236e-08 -1.77375e-10
0.025732 -1.52021e-08 -5.65647e-10
0.0257319 -8.34511e-09 -1.17501e-09
0.0257319 3.80717e-10 -2.19867e-09
0.0257319 1.37337e-08 -3.83348e-09
0.0257319 3.6092e-08 -6.31416e-09
0.0257319 7.46555e-08 -1.16126e-08
0.025732 1.41393e-07 -1.86998e-08
0.025732 2.74878e-07 -4.28437e-08
0.0257322 5.15558e-07 -2.02333e-07
0.0257324 6.65098e-07 -3.41008e-07
0.01 -9.15404e-07 -2.70958e-06
0.0100007 -0.000480167 -0.00231601
0.0116654 -0.000294367 -0.00433999