# vtk DataFile Version 2.0
Tobias Weinzierl: CPU, Manycore and Cluster Computing
ASCII

DATASET STRUCTURED_POINTS
DIMENSIONS  51 11 6

ORIGIN 0 0 0 

SPACING 0.1 0.1 0.1 

POINT_DATA 3366

VECTORS velocity float
0 0 0
-6.87249e-13 0 0
-1.88751e-10 0 0
-2.22195e-10 0 0
-1.79286e-09 0 0
1.51072e-09 0 0
2.22911e-09 0 0
2.30413e-09 0 0
2.59115e-09 0 0
3.18474e-09 0 0
3.83508e-09 0 0
4.22229e-09 0 0
4.16163e-09 0 0
3.63917e-09 0 0
2.68076e-09 0 0
1.41838e-09 0 0
1.41092e-10 0 0
-8.75793e-10 0 0
-1.57714e-09 0 0
-2.11385e-09 0 0
-2.67186e-09 0 0
-3.34078e-09 0 0
-4.09733e-09 0 0
-4.85922e-09 0 0
-5.54444e-09 0 0
-6.10313e-09 0 0
-6.5218e-09 0 0
-6.8127e-09 0 0
-7.00051e-09 0 0
-7.11228e-09 0 0
-7.17196e-09 0 0
-7.19832e-09 0 0
-7.20489e-09 0 0
-7.20083e-09 0 0
-7.19193e-09 0 0
-7.18162e-09 0 0
-7.17175e-09 0 0
-7.16316e-09 0 0
-7.15612e-09 0 0
-7.1506e-09 0 0
-7.14641e-09 0 0
-7.14333e-09 0 0
-7.14114e-09 0 0
-7.13963e-09 0 0
-7.13862e-09 0 0
-7.13798e-09 0 0
-7.13762e-09 0 0
-7.13743e-09 0 0
-7.13741e-09 0 0
-7.1377e-09 0 0
0.00189999 0 0
0 3.80185e-07 0
-1.37953e-12 -6.85267e-11 0
-2.9808e-10 -5.62204e-10 0
1.93992e-10 -1.67732e-10 0
-7.95637e-10 -1.25432e-09 0
4.79124e-09 -1.28948e-09 0
5.59179e-09 9.54058e-10 0
5.52959e-09 6.77529e-10 0
6.86624e-09 -7.4467e-10 0
9.19932e-09 -2.07213e-09 0
1.14154e-08 -2.8713e-09 0
1.27134e-08 -2.96161e-09 0
1.26367e-08 -2.17058e-09 0
1.11611e-08 -6.2163e-10 0
8.68931e-09 1.01262e-09 0
5.85459e-09 1.96747e-09 0
3.21758e-09 2.02068e-09 0
1.01825e-09 1.53447e-09 0
-8.83976e-10 1.01941e-09 0
-2.80623e-09 7.52901e-10 0
-4.97445e-09 7.25903e-10 0
-7.39745e-09 7.96287e-10 0
-9.90457e-09 8.38265e-10 0
-1.22624e-08 7.99999e-10 0
-1.42812e-08 6.90577e-10 0
-1.58669e-08 5.44882e-10 0
-1.7017e-08 3.96722e-10 0
-1.77899e-08 2.67575e-10 0
-1.82691e-08 1.66277e-10 0
-1.85385e-08 9.30652e-11 0
-1.86687e-08 4.38349e-11 0
-1.87133e-08 1.30982e-11 0
-1.87098e-08 -4.40579e-12 0
-1.86827e-08 -1.30418e-11 0
-1.86468e-08 -1.61256e-11 0
-1.86106e-08 -1.60127e-11 0
-1.85782e-08 -1.42776e-11 0
-1.85511e-08 -1.19073e-11 0
-1.85295e-08 -9.47332e-12 0
-1.85129e-08 -7.26988e-12 0
-1.85004e-08 -5.41781e-12 0
-1.84914e-08 -3.93683e-12 0
-1.8485e-08 -2.79334e-12 0
-1.84805e-08 -1.93098e-12 0
-1.84775e-08 -1.28812e-12 0
-1.84756e-08 -8.05497e-13 0
-1.84745e-08 -4.25353e-13 0
-1.84739e-08 -7.48724e-14 0
-1.84739e-08 4.05568e-13 0
-1.84748e-08 1.39591e-12 0
0.00547142 -1.3597e-08 0
0 -1.87907e-08 0
-8.96297e-13 -1.62642e-10 0
4.60303e-10 -1.695e-09 0
2.60967e-09 -3.85188e-09 0
4.95885e-09 -6.80489e-09 0
8.82117e-09 -4.86556e-09 0
6.79659e-09 7.93409e-11 0
5.53812e-09 -3.91172e-10 0
6.88959e-09 -3.12925e-09 0
1.07447e-08 -5.75401e-09 0
1.43601e-08 -8.00006e-09 0
1.60535e-08 -9.50436e-09 0
1.56039e-08 -9.18356e-09 0
1.32124e-08 -6.58357e-09 0
9.82574e-09 -2.6583e-09 0
6.37427e-09 1.21448e-09 0
3.3394e-09 4.16663e-09 0
7.72122e-10 5.9227e-09 0
-1.51246e-09 6.59371e-09 0
-3.73914e-09 6.48659e-09 0
-6.05577e-09 5.92812e-09 0
-8.48013e-09 5.14898e-09 0
-1.08987e-08 4.27696e-09 0
-1.31261e-08 3.38881e-09 0
-1.49942e-08 2.54767e-09 0
-1.64143e-08 1.8069e-09 0
-1.73886e-08 1.20026e-09 0
-1.79836e-08 7.37077e-10 0
-1.82933e-08 4.06449e-10 0
-1.84099e-08 1.85858e-10 0
-1.84098e-08 4.92628e-11 0
-1.83481e-08 -2.75891e-11 0
-1.82612e-08 -6.46651e-11 0
-1.81707e-08 -7.70579e-11 0
-1.80881e-08 -7.54162e-11 0
-1.80182e-08 -6.67944e-11 0
-1.7962e-08 -5.55658e-11 0
-1.79184e-08 -4.42284e-11 0
-1.78854e-08 -3.40442e-11 0
-1.78611e-08 -2.55122e-11 0
-1.78435e-08 -1.86946e-11 0
-1.78311e-08 -1.34313e-11 0
-1.78224e-08 -9.46927e-12 0
-1.78164e-08 -6.53739e-12 0
-1.78125e-08 -4.38293e-12 0
-1.78099e-08 -2.78005e-12 0
-1.78085e-08 -1.50952e-12 0
-1.78078e-08 -2.84025e-13 0
-1.78078e-08 1.24452e-12 0
-1.78088e-08 3.40692e-12 0
0.00790274 -3.3491e-08 0
0 -6.28511e-07 0
-2.4906e-13 -1.02401e-09 0
1.21189e-09 -3.81847e-09 0
4.08969e-09 -7.4174e-09 0
5.72565e-09 -1.00904e-08 0
5.54074e-09 -5.46906e-09 0
3.43354e-09 -2.5732e-12 0
2.31264e-09 -1.17713e-09 0
1.5488e-09 -4.32747e-09 0
3.341e-09 -8.60779e-09 0
6.45881e-09 -1.31486e-08 0
7.98057e-09 -1.65307e-08 0
7.77021e-09 -1.67063e-08 0
5.57821e-09 -1.31186e-08 0
2.13893e-09 -6.9494e-09 0
-1.713e-09 2.91449e-10 0
-5.28186e-09 6.87921e-09 0
-8.00129e-09 1.12678e-08 0
-9.53647e-09 1.28628e-08 0
-9.92869e-09 1.21876e-08 0
-9.57259e-09 1.02803e-08 0
-8.97174e-09 8.02654e-09 0
-8.47203e-09 5.91394e-09 0
-8.17169e-09 4.12336e-09 0
-8.00313e-09 2.68944e-09 0
-7.85976e-09 1.59581e-09 0
-7.67348e-09 8.07e-10 0
-7.42928e-09 2.75775e-10 0
-7.14647e-09 -5.17524e-11 0
-6.85523e-09 -2.29358e-10 0
-6.58165e-09 -3.04708e-10 0
-6.34204e-09 -3.16058e-10 0
-6.14322e-09 -2.91604e-10 0
-5.98507e-09 -2.50541e-10 0
-5.86346e-09 -2.04906e-10 0
-5.77245e-09 -1.61519e-10 0
-5.70587e-09 -1.2368e-10 0
-5.65803e-09 -9.24928e-11 0
-5.62419e-09 -6.78119e-11 0
-5.60055e-09 -4.88759e-11 0
-5.58425e-09 -3.46981e-11 0
-5.57315e-09 -2.42872e-11 0
-5.56572e-09 -1.67548e-11 0
-5.56083e-09 -1.13548e-11 0
-5.5577e-09 -7.48107e-12 0
-5.5558e-09 -4.63382e-12 0
-5.55477e-09 -2.3803e-12 0
-5.55428e-09 -3.2765e-13 0
-5.55405e-09 1.80957e-12 0
-5.55429e-09 3.98342e-12 0
0.00898512 -3.70522e-08 0
0 -1.23417e-06 0
-1.1162e-12 -1.98407e-09 0
2.67151e-10 -5.61022e-09 0
1.29358e-09 -7.45792e-09 0
1.33552e-09 -6.02066e-09 0
-8.25034e-14 -2.18966e-09 0
-4.27343e-12 -4.51955e-12 0
3.94545e-12 -4.06811e-12 0
-1.06575e-09 -2.40832e-09 0
-4.31318e-09 -8.64855e-09 0
-5.83483e-09 -1.58223e-08 0
-4.94108e-09 -2.11374e-08 0
-5.02731e-09 -2.2083e-08 0
-6.73919e-09 -1.75267e-08 0
-9.47726e-09 -8.8951e-09 0
-1.25225e-08 1.42326e-09 0
-1.51711e-08 1.03791e-08 0
-1.66972e-08 1.55577e-08 0
-1.65044e-08 1.64141e-08 0
-1.44883e-08 1.41532e-08 0
-1.11859e-08 1.0564e-08 0
-7.46827e-09 6.99562e-09 0
-4.0699e-09 4.07506e-09 0
-1.3428e-09 1.92636e-09 0
6.94827e-10 4.59642e-10 0
2.18422e-09 -4.63665e-10 0
3.28541e-09 -9.75601e-10 0
4.11757e-09 -1.19219e-09 0
4.7551e-09 -1.21221e-09 0
5.24315e-09 -1.11529e-09 0
5.61214e-09 -9.6085e-10 0
5.8859e-09 -7.89217e-10 0
6.08474e-09 -6.2486e-10 0
6.22617e-09 -4.80419e-10 0
6.3248e-09 -3.60585e-10 0
6.39238e-09 -2.65257e-10 0
6.43797e-09 -1.91834e-10 0
6.4683e-09 -1.36718e-10 0
6.48825e-09 -9.61986e-11 0
6.50123e-09 -6.69191e-11 0
6.50957e-09 -4.60605e-11 0
6.51485e-09 -3.13712e-11 0
6.5181e-09 -2.11126e-11 0
6.52004e-09 -1.39722e-11 0
6.52113e-09 -8.96832e-12 0
6.5217e-09 -5.36783e-12 0
6.52199e-09 -2.64056e-12 0
6.52233e-09 -4.60484e-13 0
6.523e-09 1.3241e-12 0
6.52353e-09 2.65954e-12 0
0.00942048 -1.97061e-08 0
0 -1.11878e-06 0
-2.29206e-12 -1.92667e-09 0
-1.04335e-09 -4.4587e-09 0
-1.28119e-09 -5.7067e-09 0
-1.96404e-09 -5.90145e-09 0
-1.38281e-09 -2.72717e-09 0
-4.00035e-12 3.65551e-12 0
2.3415e-13 -2.3415e-13 0
4.29057e-12 -3.56109e-12 0
-2.92415e-09 -4.12658e-09 0
-1.01185e-08 -1.4256e-08 0
-1.31738e-08 -2.2666e-08 0
-1.5348e-08 -2.37338e-08 0
-1.739e-08 -1.8201e-08 0
-1.88842e-08 -8.24804e-09 0
-1.96272e-08 3.01419e-09 0
-1.95915e-08 1.20576e-08 0
-1.8654e-08 1.64667e-08 0
-1.64595e-08 1.60417e-08 0
-1.28138e-08 1.2439e-08 0
-8.09766e-09 7.79879e-09 0
-3.13907e-09 3.62518e-09 0
1.26718e-09 5.32589e-10 0
4.69991e-09 -1.45337e-09 0
7.1254e-09 -2.54102e-09 0
8.72793e-09 -2.97577e-09 0
9.74322e-09 -2.97403e-09 0
1.03707e-08 -2.71067e-09 0
1.07518e-08 -2.31859e-09 0
1.09789e-08 -1.89072e-09 0
1.11102e-08 -1.48491e-09 0
1.11827e-08 -1.13131e-09 0
1.12197e-08 -8.40728e-10 0
1.12359e-08 -6.12035e-10 0
1.12407e-08 -4.37953e-10 0
1.12395e-08 -3.08886e-10 0
1.12358e-08 -2.15197e-10 0
1.12312e-08 -1.48348e-10 0
1.12269e-08 -1.01317e-10 0
1.12231e-08 -6.86094e-11 0
1.122e-08 -4.60768e-11 0
1.12174e-08 -3.06677e-11 0
1.12155e-08 -2.01794e-11 0
1.12139e-08 -1.30427e-11 0
1.12128e-08 -8.15583e-12 0
1.1212e-08 -4.77215e-12 0
1.12116e-08 -2.42453e-12 0
1.12118e-08 -8.5751e-13 0
1.12126e-08 2.67607e-14 0
1.12133e-08 3.00012e-13 0
0.00953333 8.87407e-09 0
0 -7.70535e-07 0
-1.8861e-12 -1.11833e-09 0
-1.01984e-09 -2.88047e-09 0
-1.0386e-09 -3.7905e-09 0
-2.3933e-09 -4.1493e-09 0
-3.16222e-09 -3.39872e-09 0
-1.43657e-09 -1.27783e-09 0
-3.45048e-12 3.89121e-12 0
3.78525e-13 -3.78525e-13 0
5.33949e-12 -3.18495e-12 0
-4.60471e-09 -7.72762e-09 0
-1.28089e-08 -1.90963e-08 0
-1.89147e-08 -2.1329e-08 0
-2.24237e-08 -1.54904e-08 0
-2.35258e-08 -5.5369e-09 0
-2.23234e-08 4.67757e-09 0
-1.9408e-08 1.18954e-08 0
-1.56179e-08 1.44345e-08 0
-1.14157e-08 1.26467e-08 0
-6.92202e-09 8.36748e-09 0
-2.36642e-09 3.64807e-09 0
1.77243e-09 -1.98655e-10 0
5.02189e-09 -2.74026e-09 0
7.17641e-09 -4.08475e-09 0
8.32933e-09 -4.53063e-09 0
8.74183e-09 -4.38364e-09 0
8.69896e-09 -3.89697e-09 0
8.42832e-09 -3.2605e-09 0
8.07969e-09 -2.6036e-09 0
7.73689e-09 -2.00321e-09 0
7.43864e-09 -1.49568e-09 0
7.19694e-09 -1.08985e-09 0
7.00996e-09 -7.78535e-10 0
6.86993e-09 -5.47231e-10 0
6.76752e-09 -3.79593e-10 0
6.69394e-09 -2.60446e-10 0
6.64176e-09 -1.7706e-10 0
6.60515e-09 -1.19413e-10 0
6.57967e-09 -7.99503e-11 0
6.56205e-09 -5.31488e-11 0
6.54992e-09 -3.50626e-11 0
6.54157e-09 -2.29175e-11 0
6.53583e-09 -1.47891e-11 0
6.53192e-09 -9.36252e-12 0
6.52933e-09 -5.76056e-12 0
6.52773e-09 -3.4177e-12 0
6.52691e-09 -1.98849e-12 0
6.5268e-09 -1.28739e-12 0
6.52729e-09 -1.31179e-12 0
6.52767e-09 -2.03758e-12 0
0.00942048 3.44826e-08 0
0 -5.39674e-07 0
-1.12376e-12 -6.27547e-10 0
-3.84065e-10 -1.76689e-09 0
-4.52259e-10 -2.80906e-09 0
-1.50747e-09 -3.13338e-09 0
-3.54637e-09 -2.07847e-09 0
-4.12745e-09 -4.82081e-10 0
-2.60603e-09 1.32748e-10 0
-4.56722e-12 3.24332e-12 0
5.72368e-12 1.48819e-12 0
1.94839e-12 -4.33417e-09 0
-7.18265e-09 -1.25589e-08 0
-1.69447e-08 -1.49302e-08 0
-2.4296e-08 -8.94263e-09 0
-2.68929e-08 -8.6303e-12 0
-2.42792e-08 7.27517e-09 0
-1.8196e-08 1.07553e-08 0
-1.13106e-08 1.02551e-08 0
-5.52134e-09 6.97593e-09 0
-1.4125e-09 2.75778e-09 0
1.19394e-09 -8.72993e-10 0
2.59624e-09 -3.23366e-09 0
3.00973e-09 -4.35582e-09 0
2.63628e-09 -4.5825e-09 0
1.72363e-09 -4.27335e-09 0
5.37284e-10 -3.69806e-09 0
-6.9771e-10 -3.03352e-09 0
-1.831e-09 -2.38687e-09 0
-2.78741e-09 -1.81583e-09 0
-3.54791e-09 -1.34388e-09 0
-4.12681e-09 -9.72541e-10 0
-4.55335e-09 -6.91145e-10 0
-4.86002e-09 -4.8402e-10 0
-5.07649e-09 -3.34956e-10 0
-5.22722e-09 -2.29531e-10 0
-5.3311e-09 -1.55973e-10 0
-5.40216e-09 -1.05193e-10 0
-5.4505e-09 -7.04361e-11 0
-5.48323e-09 -4.68165e-11 0
-5.50531e-09 -3.08648e-11 0
-5.52017e-09 -2.01527e-11 0
-5.53016e-09 -1.30004e-11 0
-5.53686e-09 -8.26105e-12 0
-5.54132e-09 -5.16282e-12 0
-5.54421e-09 -3.19427e-12 0
-5.54602e-09 -2.02653e-12 0
-5.54707e-09 -1.46835e-12 0
-5.54752e-09 -1.4534e-12 0
-5.54756e-09 -2.08903e-12 0
-5.54788e-09 -3.42552e-12 0
0.00898512 4.45097e-08 0
0 -4.57274e-07 0
-1.05103e-12 -3.20796e-10 0
9.58494e-11 -9.69465e-10 0
-1.43751e-10 -1.6099e-09 0
-1.69737e-09 -1.87482e-09 0
-4.47406e-09 -6.89115e-10 0
-6.2294e-09 1.17704e-09 0
-6.14503e-09 -3.41535e-10 0
-4.09928e-09 -1.29426e-09 0
-3.17871e-09 -1.4724e-13 0
-1.85426e-09 -3.6235e-09 0
-6.86629e-09 -7.96514e-09 0
-1.76747e-08 -6.6935e-09 0
-2.66642e-08 -1.4534e-09 0
-2.84085e-08 4.24501e-09 0
-2.27346e-08 7.42262e-09 0
-1.36033e-08 7.29302e-09 0
-5.61569e-09 4.67074e-09 0
-1.21271e-09 1.12676e-09 0
-2.98809e-10 -1.81881e-09 0
-1.54896e-09 -3.40721e-09 0
-3.69791e-09 -3.74426e-09 0
-6.01727e-09 -3.35442e-09 0
-8.21034e-09 -2.72058e-09 0
-1.01803e-08 -2.10845e-09 0
-1.18915e-08 -1.60613e-09 0
-1.33277e-08 -1.21586e-09 0
-1.44901e-08 -9.15788e-10 0
-1.53986e-08 -6.84678e-10 0
-1.60868e-08 -5.06851e-10 0
-1.65948e-08 -3.70975e-10 0
-1.69618e-08 -2.68324e-10 0
-1.72226e-08 -1.91803e-10 0
-1.74054e-08 -1.35536e-10 0
-1.75322e-08 -9.47095e-11 0
-1.76195e-08 -6.54546e-11 0
-1.76792e-08 -4.47372e-11 0
-1.77199e-08 -3.02283e-11 0
-1.77473e-08 -2.01751e-11 0
-1.77659e-08 -1.32827e-11 0
-1.77783e-08 -8.61014e-12 0
-1.77866e-08 -5.48483e-12 0
-1.77922e-08 -3.434e-12 0
-1.77959e-08 -2.13093e-12 0
-1.77983e-08 -1.35676e-12 0
-1.77999e-08 -9.78034e-13 0
-1.7801e-08 -9.33103e-13 0
-1.78017e-08 -1.22319e-12 0
-1.78023e-08 -1.92581e-12 0
-1.78035e-08 -3.07588e-12 0
0.00790276 3.38038e-08 0
0 -4.71106e-07 0
-7.89555e-13 -2.54994e-11 0
3.22486e-10 -1.35133e-10 0
-6.30214e-11 -2.8785e-10 0
-1.976e-09 -3.53748e-10 0
-5.27797e-09 -2.55733e-10 0
-7.61935e-09 5.98549e-10 0
-7.61129e-09 4.81352e-10 0
-8.88826e-09 -5.4646e-10 0
-8.26257e-09 -9.99236e-10 0
-6.88418e-09 -1.51519e-09 0
-9.80979e-09 -7.6066e-10 0
-1.4938e-08 1.11092e-09 0
-1.85788e-08 2.52296e-09 0
-1.73794e-08 3.03664e-09 0
-1.17279e-08 2.53279e-09 0
-5.07439e-09 1.22709e-09 0
-8.47746e-10 -2.90055e-10 0
-2.51235e-10 -1.38382e-09 0
-2.36189e-09 -1.77063e-09 0
-5.55192e-09 -1.58943e-09 0
-8.62387e-09 -1.16446e-09 0
-1.10872e-08 -7.54886e-10 0
-1.29199e-08 -4.68488e-10 0
-1.42697e-08 -3.03539e-10 0
-1.52854e-08 -2.18153e-10 0
-1.60677e-08 -1.72934e-10 0
-1.66763e-08 -1.43874e-10 0
-1.71478e-08 -1.20133e-10 0
-1.75086e-08 -9.83627e-11 0
-1.778e-08 -7.83372e-11 0
-1.79808e-08 -6.063e-11 0
-1.8127e-08 -4.56825e-11 0
-1.82318e-08 -3.3588e-11 0
-1.83061e-08 -2.41503e-11 0
-1.83582e-08 -1.70081e-11 0
-1.83943e-08 -1.17424e-11 0
-1.84192e-08 -7.94756e-12 0
-1.84361e-08 -5.2685e-12 0
-1.84475e-08 -3.41415e-12 0
-1.84552e-08 -2.15684e-12 0
-1.84604e-08 -1.32515e-12 0
-1.84639e-08 -7.94551e-13 0
-1.84662e-08 -4.78165e-13 0
-1.84678e-08 -3.19514e-13 0
-1.84689e-08 -2.87232e-13 0
-1.84698e-08 -3.6766e-13 0
-1.84705e-08 -5.51481e-13 0
-1.84714e-08 -8.19302e-13 0
-1.84729e-08 -1.21084e-12 0
0.00547146 1.1697e-08 0
0 0 0
-1.97077e-13 0 0
1.94177e-10 0 0
-1.14954e-11 0 0
-9.28334e-10 0 0
-2.5707e-09 0 0
-4.08091e-09 0 0
-4.07257e-09 0 0
-4.78958e-09 0 0
-5.08354e-09 0 0
-5.02792e-09 0 0
-5.13182e-09 0 0
-4.97253e-09 0 0
-4.54985e-09 0 0
-3.42329e-09 0 0
-1.70489e-09 0 0
-2.24268e-10 0 0
2.39002e-10 0 0
-4.30144e-10 0 0
-1.76105e-09 0 0
-3.17377e-09 0 0
-4.32121e-09 0 0
-5.1256e-09 0 0
-5.65569e-09 0 0
-6.0103e-09 0 0
-6.26393e-09 0 0
-6.45888e-09 0 0
-6.61514e-09 0 0
-6.74145e-09 0 0
-6.84231e-09 0 0
-6.92117e-09 0 0
-6.9814e-09 0 0
-7.02639e-09 0 0
-7.05932e-09 0 0
-7.083e-09 0 0
-7.09977e-09 0 0
-7.1115e-09 0 0
-7.1196e-09 0 0
-7.12513e-09 0 0
-7.12887e-09 0 0
-7.13138e-09 0 0
-7.13307e-09 0 0
-7.13421e-09 0 0
-7.13499e-09 0 0
-7.13554e-09 0 0
-7.13594e-09 0 0
-7.13628e-09 0 0
-7.13661e-09 0 0
-7.13701e-09 0 0
-7.13768e-09 0 0
0.00190001 0 0
0 0 5.27389e-07
-1.3318e-12 0 2.56248e-10
-7.12284e-10 0 7.82859e-10
-4.9483e-10 0 1.7705e-09
-6.1724e-09 0 -4.80784e-10
2.5143e-09 0 -2.73464e-09
5.10105e-09 0 -1.74878e-09
5.95849e-09 0 -1.04019e-09
6.7715e-09 0 -1.36233e-10
7.78615e-09 0 8.2804e-10
9.15322e-09 0 1.83354e-09
1.12212e-08 0 2.63471e-09
1.37317e-08 0 2.75326e-09
1.57226e-08 0 2.10203e-09
1.60158e-08 0 1.20768e-09
1.41406e-08 0 5.71718e-10
1.06646e-08 0 2.7305e-10
6.63272e-09 0 1.83427e-10
2.76802e-09 0 2.18479e-10
-7.7976e-10 0 3.41829e-10
-4.1493e-09 0 5.01183e-10
-7.4299e-09 0 6.29389e-10
-1.05486e-08 0 6.8035e-10
-1.33418e-08 0 6.47195e-10
-1.56667e-08 0 5.5331e-10
-1.74632e-08 0 4.32375e-10
-1.87561e-08 0 3.12707e-10
-1.96245e-08 0 2.10998e-10
-2.01672e-08 0 1.33197e-10
-2.04786e-08 0 7.83117e-11
-2.06364e-08 0 4.21353e-11
-2.0699e-08 0 1.97489e-11
-2.07069e-08 0 6.79584e-12
-2.06869e-08 0 -8.70944e-14
-2.06553e-08 0 -3.28368e-12
-2.06215e-08 0 -4.37952e-12
-2.05903e-08 0 -4.37364e-12
-2.05638e-08 0 -3.86269e-12
-2.05424e-08 0 -3.18195e-12
-2.05258e-08 0 -2.50484e-12
-2.05132e-08 0 -1.90976e-12
-2.0504e-08 0 -1.42224e-12
-2.04975e-08 0 -1.04018e-12
-2.04929e-08 0 -7.49624e-13
-2.04898e-08 0 -5.34156e-13
-2.04878e-08 0 -3.79507e-13
-2.04866e-08 0 -2.78164e-13
-2.0486e-08 0 -2.39691e-13
-2.04859e-08 0 -2.61759e-13
-2.04867e-08 0 -1.09029e-13
0.00540078 0 -6.68858e-10
0.0036 -3.01625e-07 -6.10955e-08
0.0035998 -0.00138966 -2.17311e-05
0.00669972 -0.00393776 0.000113764
0.0136115 -0.00587639 -0.000491245
0.0235011 -0.0144891 -0.00426662
0.0464032 -0.0134621 -0.00488984
0.0499419 -0.00194876 -0.00164723
0.0496856 0.00262371 -0.00016441
0.0447074 0.00494651 0.000572745
0.0391116 0.00510801 0.000569028
0.0340222 0.00443451 0.000311889
0.0297553 0.00354786 4.64085e-05
0.0263741 0.00268038 -0.00014616
0.0238029 0.00193223 -0.000249186
0.0218852 0.00134657 -0.000273889
0.02045 0.000923384 -0.000243682
0.0193587 0.000635443 -0.000184664
0.0185171 0.000446695 -0.00011928
0.0178663 0.00032334 -6.28715e-05
0.0173688 0.000239396 -2.25459e-05
0.0169966 0.00017821 1.40804e-06
0.016726 0.00013092 1.25467e-05
0.0165359 9.35592e-05 1.54553e-05
0.0164073 6.44318e-05 1.40579e-05
0.0163239 4.24913e-05 1.10276e-05
0.0162725 2.66698e-05 7.86188e-06
0.0162427 1.57792e-05 5.21793e-06
0.0162267 8.63113e-06 3.2617e-06
0.0162193 4.16907e-06 1.92689e-06
0.0162167 1.53895e-06 1.07055e-06
0.0162168 9.99594e-08 5.49358e-07
0.0162181 -6.01155e-07 2.48002e-07
0.0162199 -8.69483e-07 8.36708e-08
0.0162216 -9.01397e-07 9.2608e-10
0.0162231 -8.17661e-07 -3.54906e-08
0.0162244 -6.88737e-07 -4.70643e-08
0.0162254 -5.52999e-07 -4.63623e-08
0.0162262 -4.29218e-07 -4.04112e-08
0.0162268 -3.24794e-07 -3.29198e-08
0.0162272 -2.40964e-07 -2.56842e-08
0.0162275 -1.75963e-07 -1.9444e-08
0.0162278 -1.26841e-07 -1.43869e-08
0.0162279 -9.0457e-08 -1.04458e-08
0.016228 -6.39592e-08 -7.46303e-09
0.0162281 -4.49661e-08 -5.25747e-09
0.0162282 -3.15857e-08 -3.62039e-09
0.0162282 -2.23678e-08 -2.24546e-09
0.0162282 -1.63516e-08 -3.26151e-10
0.0162283 -1.42401e-08 2.85595e-09
0.0162283 -2.75144e-08 6.74375e-10
0.0162283 -4.06103e-08 -3.43982e-09
0.01 -1.34382e-07 -1.43323e-06
0.0100007 -0.00298428 -0.000598468
0.0147864 -0.00996904 -0.000793601
0.024194 -0.0177656 -0.00122883
0.0386339 -0.0326497 -0.00333397
0.0593553 -0.0249675 -0.00081212
0.0565751 -0.0027762 0.00319091
0.0560094 0.00505628 0.00339065
0.0502369 0.0100168 0.00300586
0.0447869 0.0101444 0.00213085
0.0403103 0.00903898 0.00120909
0.0366268 0.00760322 0.000481382
0.0336792 0.00613925 -3.14723e-05
0.0314158 0.00481893 -0.000339431
0.0296825 0.00372444 -0.000463409
0.0283289 0.00285579 -0.000451729
0.027253 0.00217383 -0.000362901
0.0263982 0.00163766 -0.000248321
0.0257328 0.00121646 -0.000143142
0.0252317 0.000888183 -6.43518e-05
0.0248689 0.00063567 -1.46352e-05
0.024617 0.000444483 1.12777e-05
0.0244499 0.000302375 2.11233e-05
0.0243449 0.000199096 2.18778e-05
0.0242834 0.000126073 1.85294e-05
0.024251 7.60924e-05 1.40558e-05
0.0242368 4.31247e-05 9.9199e-06
0.0242332 2.22712e-05 6.64618e-06
0.0242354 9.71185e-06 4.27706e-06
0.0242401 2.60285e-06 2.66144e-06
0.0242454 -1.07681e-06 1.60606e-06
0.0242505 -2.70184e-06 9.39612e-07
0.0242549 -3.16855e-06 5.30984e-07
0.0242585 -3.03662e-06 2.87423e-07
0.0242613 -2.63906e-06 1.46542e-07
0.0242634 -2.16251e-06 6.78615e-08
0.024265 -1.70302e-06 2.5854e-08
0.0242662 -1.30314e-06 4.83065e-09
0.024267 -9.75644e-07 -4.6119e-09
0.0242676 -7.181e-07 -7.96002e-09
0.024268 -5.21398e-07 -8.31607e-09
0.0242683 -3.74448e-07 -7.36105e-09
0.0242686 -2.66572e-07 -5.96508e-09
0.0242687 -1.88548e-07 -4.56409e-09
0.0242688 -1.32917e-07 -3.3457e-09
0.0242689 -9.3951e-08 -2.28207e-09
0.0242689 -6.75526e-08 -1.0073e-09
0.024269 -5.30282e-08 1.20262e-09
0.024269 -5.32228e-08 4.29258e-09
0.024269 -7.87854e-08 -3.10443e-09
0.0242691 -1.00108e-07 -1.2146e-08
0.0148 -9.43779e-07 -1.7224e-06
0.0148023 -0.00530025 -0.00112454
0.0204084 -0.0164598 -0.00244963
0.0276195 -0.0289331 -0.00394334
0.0322981 -0.0463753 -0.00577931
0.0307469 -0.0286211 -0.00142273
0.0269322 -1.21786e-05 0.00331029
0.0263684 0.00704596 0.00352656
0.0298518 0.0143504 0.00343686
0.0302015 0.0137236 0.00248271
0.0294203 0.0119032 0.00153874
0.0286067 0.0100365 0.000718614
0.0279999 0.00817018 0.000123579
0.0276999 0.00646763 -0.000237041
0.0275791 0.00505989 -0.000384071
0.0275312 0.00392477 -0.000382364
0.02751 0.00300078 -0.000301918
0.0275055 0.00224483 -0.000196942
0.0275194 0.00163535 -0.000101013
0.0275514 0.00115831 -2.94835e-05
0.0275972 0.000797271 1.5007e-05
0.0276509 0.000532233 3.67775e-05
0.0277072 0.00034278 4.27069e-05
0.0277621 0.000210879 3.94866e-05
0.0278129 0.000121803 3.22619e-05
0.0278578 6.38862e-05 2.42949e-05
0.0278958 2.80051e-05 1.72491e-05
0.0279269 7.15209e-06 1.17086e-05
0.0279514 -3.89337e-06 7.66672e-06
0.0279703 -8.86518e-06 4.86943e-06
0.0279845 -1.03126e-05 3.00874e-06
0.0279948 -9.89142e-06 1.81004e-06
0.0280023 -8.61986e-06 1.05895e-06
0.0280075 -7.08455e-06 6.00386e-07
0.0280112 -5.59494e-06 3.27621e-07
0.0280138 -4.29196e-06 1.69859e-07
0.0280155 -3.22045e-06 8.15128e-08
0.0280167 -2.37499e-06 3.39934e-08
0.0280175 -1.72748e-06 9.81113e-09
0.0280181 -1.24257e-06 -1.46934e-09
0.0280185 -8.85736e-07 -5.91239e-09
0.0280187 -6.26803e-07 -6.93084e-09
0.0280189 -4.411e-07 -6.3804e-09
0.028019 -3.09328e-07 -5.24678e-09
0.0280191 -2.169e-07 -3.97839e-09
0.0280191 -1.53457e-07 -2.67819e-09
0.0280192 -1.12318e-07 -9.69102e-10
0.0280192 -9.09057e-08 1.11334e-09
0.0280192 -9.03524e-08 7.11406e-10
0.0280193 -1.05896e-07 -1.28006e-08
0.0280193 -1.16218e-07 -2.48796e-08
0.018 -1.90339e-06 -1.66841e-06
0.0180029 -0.00701864 -0.00187333
0.0208002 -0.0190704 -0.00492706
0.0207661 -0.0251136 -0.00635164
0.0161167 -0.0271265 -0.00763982
-1.58343e-06 -0.0140742 -0.00434289
9.55549e-05 2.55799e-05 9.14446e-07
-3.25359e-05 3.3858e-05 0.000655807
0.00655228 0.0040396 0.00144753
0.0133515 0.00912937 0.00142306
0.0167396 0.00986302 0.00102071
0.0185313 0.00885137 0.000493771
0.0202459 0.00731543 1.50897e-05
0.021947 0.00576299 -0.000257481
0.023466 0.00448558 -0.000339231
0.0247389 0.00345083 -0.000306277
0.0257785 0.00258922 -0.000224467
0.0266223 0.0018701 -0.000135078
0.0273057 0.00128958 -5.86937e-05
0.0278546 0.000845171 -2.80359e-06
0.0282886 0.000523326 3.20182e-05
0.0286252 0.000301381 4.86947e-05
0.0288816 0.000154763 5.19204e-05
0.0290739 6.21693e-05 4.68606e-05
0.0292161 7.11725e-06 3.80137e-05
0.0293198 -2.25912e-05 2.85389e-05
0.0293944 -3.58645e-05 2.01818e-05
0.0294471 -3.91144e-05 1.36006e-05
0.0294838 -3.68064e-05 8.80163e-06
0.0295089 -3.18898e-05 5.49506e-06
0.0295258 -2.61767e-05 3.31623e-06
0.0295369 -2.06754e-05 1.93339e-06
0.0295442 -1.58654e-05 1.08487e-06
0.0295489 -1.19052e-05 5.8099e-07
0.0295519 -8.77691e-06 2.91845e-07
0.0295538 -6.37955e-06 1.32283e-07
0.029555 -4.58416e-06 4.84512e-08
0.0295558 -3.26349e-06 7.37702e-09
0.0295562 -2.30572e-06 -1.05085e-08
0.0295565 -1.61901e-06 -1.64567e-08
0.0295567 -1.1312e-06 -1.67135e-08
0.0295568 -7.87367e-07 -1.45924e-08
0.0295569 -5.46661e-07 -1.17453e-08
0.0295569 -3.79345e-07 -8.94911e-09
0.029557 -2.64234e-07 -6.45686e-09
0.029557 -1.8673e-07 -4.3287e-09
0.029557 -1.37243e-07 -2.42375e-09
0.029557 -1.08406e-07 -1.16536e-09
0.029557 -9.57313e-08 -6.14242e-09
0.029557 -8.34021e-08 -2.21466e-08
0.0295569 -7.35857e-08 -3.28627e-08
0.0196 -2.77003e-06 -2.5155e-06
0.019601 -0.00593529 -0.00274373
0.0190522 -0.0132477 -0.00648769
0.0159243 -0.0163011 -0.00670045
0.010851 -0.0152914 -0.00669663
0.00170023 -0.00630544 -0.00504827
7.10969e-05 -6.52719e-05 -0.00130571
3.2736e-05 -3.2736e-05 -4.1586e-08
-3.19418e-05 3.313e-05 0.000264734
0.00386106 0.00268647 0.000567921
0.0087975 0.00623889 0.000501744
0.0116914 0.00644646 0.000153184
0.0149317 0.00501159 -0.00023153
0.0180784 0.00368331 -0.00040346
0.0207723 0.00273045 -0.000405598
0.0229527 0.00200534 -0.00032696
0.0246824 0.00140038 -0.000228325
0.0260456 0.000889313 -0.000139526
0.0271114 0.000483714 -6.9792e-05
0.0279315 0.00019245 -1.92836e-05
0.0285477 6.15747e-06 1.39087e-05
0.0289982 -9.80254e-05 3.2022e-05
0.0293187 -0.00014571 3.81067e-05
0.0295412 -0.000158172 3.60584e-05
0.0296923 -0.000150523 2.97882e-05
0.0297926 -0.000132697 2.23391e-05
0.0298579 -0.000110982 1.55364e-05
0.0298993 -8.91954e-05 1.01503e-05
0.0299249 -6.94532e-05 6.27449e-06
0.0299404 -5.2711e-05 3.6779e-06
0.0299494 -3.91755e-05 2.03703e-06
0.0299544 -2.86225e-05 1.05275e-06
0.0299571 -2.06237e-05 4.91927e-07
0.0299584 -1.46941e-05 1.90171e-07
0.029959 -1.0375e-05 3.93465e-08
0.0299592 -7.27265e-06 -2.78756e-08
0.0299592 -5.06862e-06 -5.14522e-08
0.0299591 -3.51642e-06 -5.4012e-08
0.029959 -2.43078e-06 -4.77326e-08
0.0299589 -1.67564e-06 -3.87675e-08
0.0299588 -1.1527e-06 -2.99537e-08
0.0299587 -7.9194e-07 -2.23833e-08
0.0299587 -5.43977e-07 -1.62914e-08
0.0299586 -3.74324e-07 -1.15864e-08
0.0299586 -2.59125e-07 -8.0613e-09
0.0299586 -1.81692e-07 -5.58902e-09
0.0299585 -1.30016e-07 -4.21423e-09
0.0299585 -9.3416e-08 -3.95385e-09
0.0299585 -6.3078e-08 -1.11617e-08
0.0299585 -2.19333e-08 -2.498e-08
0.0299584 4.81489e-09 -3.17355e-08
0.0196 -1.33585e-06 -3.51559e-06
0.0195999 -0.00370281 -0.0031285
0.01875 -0.0081396 -0.00652919
0.0174934 -0.00818944 -0.00605885
0.0131523 -0.00437012 -0.00554512
0.00905099 0.00251161 -0.00534021
0.00613488 0.00313042 -0.00312996
7.12733e-05 -5.92705e-05 -0.000680384
2.73287e-05 -2.73287e-05 -1.2511e-07
-3.14135e-05 3.24701e-05 9.77812e-05
0.00263833 0.00182824 0.000371418
0.00685493 0.00278622 0.000272872
0.0120757 0.00126186 -0.000166876
0.0166841 0.000365359 -0.000372517
0.0202733 4.17498e-05 -0.000386701
0.0229594 -0.000104138 -0.000313567
0.0249559 -0.000243013 -0.000223135
0.026436 -0.000387466 -0.000146547
0.027519 -0.000498662 -8.94738e-05
0.0282895 -0.000548991 -4.82496e-05
0.0288153 -0.000538718 -1.92775e-05
0.0291567 -0.000486227 -7.62715e-07
0.0293661 -0.000413201 8.83779e-06
0.0294865 -0.000336072 1.18124e-05
0.0295503 -0.000264401 1.0844e-05
0.0295799 -0.000202543 8.2279e-06
0.0295905 -0.000151725 5.44239e-06
0.029591 -0.0001115 3.18139e-06
0.0295871 -8.06085e-05 1.61457e-06
0.0295818 -5.74804e-05 6.53216e-07
0.0295764 -4.05291e-05 1.28739e-07
0.0295717 -2.83209e-05 -1.17986e-07
0.0295679 -1.96521e-05 -2.06124e-07
0.0295649 -1.35644e-05 -2.13607e-07
0.0295627 -9.32564e-06 -1.86373e-07
0.0295611 -6.39301e-06 -1.4894e-07
0.0295599 -4.37351e-06 -1.12885e-07
0.029559 -2.98752e-06 -8.26478e-08
0.0295584 -2.03862e-06 -5.91045e-08
0.029558 -1.39014e-06 -4.15868e-08
0.0295577 -9.47619e-07 -2.89294e-08
0.0295575 -6.46058e-07 -1.9947e-08
0.0295573 -4.40885e-07 -1.36369e-08
0.0295572 -3.01495e-07 -9.28011e-09
0.0295572 -2.06652e-07 -6.41526e-09
0.0295571 -1.41072e-07 -4.76032e-09
0.0295571 -9.31894e-08 -4.30453e-09
0.029557 -5.28568e-08 -4.53617e-09
0.029557 -9.96997e-09 -1.05168e-08
0.0295569 4.75437e-08 -1.94484e-08
0.0295569 8.1732e-08 -2.25388e-08
0.018 -8.48994e-07 -3.51091e-06
0.0180009 -0.00201852 -0.00305173
0.0183109 -0.00390959 -0.00616789
0.0183588 -0.00272562 -0.00529107
0.0173327 0.000559583 -0.00419023
0.0170451 0.00701981 -0.00396572
0.0177775 0.0125522 -0.00301875
0.0109124 0.00692564 -0.00151393
7.271e-05 -4.58311e-05 -0.000441835
-2.4584e-05 -5.34191e-05 5.47536e-07
7.77649e-06 -0.00076318 0.000755462
0.00819925 -0.00300913 0.0010982
0.0154158 -0.00457499 0.00044864
0.0203253 -0.00415152 0.0001108
0.0234591 -0.00317185 -2.47158e-05
0.0254611 -0.00235061 -6.89803e-05
0.0267573 -0.00181455 -7.95226e-05
0.0275878 -0.00147614 -8.00854e-05
0.028091 -0.00122928 -7.59803e-05
0.0283596 -0.001013 -6.67149e-05
0.0284665 -0.000810598 -5.31555e-05
0.0284722 -0.000627335 -3.83737e-05
0.0284237 -0.000471478 -2.54644e-05
0.0283534 -0.000346298 -1.59403e-05
0.0282811 -0.000249966 -9.73486e-06
0.0282167 -0.000178016 -6.00453e-06
0.028164 -0.000125407 -3.83346e-06
0.0281231 -8.75608e-05 -2.54728e-06
0.0280926 -6.06955e-05 -1.74223e-06
0.0280705 -4.1836e-05 -1.20567e-06
0.0280547 -2.87163e-05 -8.32078e-07
0.0280437 -1.96537e-05 -5.67583e-07
0.028036 -1.34256e-05 -3.81065e-07
0.0280307 -9.1604e-06 -2.51524e-07
0.0280271 -6.24575e-06 -1.63315e-07
0.0280246 -4.25651e-06 -1.04466e-07
0.0280229 -2.89975e-06 -6.59533e-08
0.0280217 -1.97474e-06 -4.11822e-08
0.028021 -1.34427e-06 -2.54854e-08
0.0280204 -9.14739e-07 -1.56612e-08
0.02802 -6.22275e-07 -9.57288e-09
0.0280198 -4.23262e-07 -5.82455e-09
0.0280196 -2.87789e-07 -3.53949e-09
0.0280195 -1.95109e-07 -2.21739e-09
0.0280194 -1.3053e-07 -1.58645e-09
0.0280193 -8.3262e-08 -1.44606e-09
0.0280193 -4.48732e-08 -1.74404e-09
0.0280193 -8.14934e-09 -1.90431e-09
0.0280192 3.54644e-08 -4.56655e-09
0.0280192 9.04732e-08 -8.84953e-09
0.0280192 1.20679e-07 -1.03614e-08
0.0148 -4.75705e-07 -3.11043e-06
0.0148015 -0.0010425 -0.00283271
0.0162278 -0.00166806 -0.00543273
0.0177816 -7.05418e-05 -0.00429303
0.0190855 0.00312261 -0.00305932
0.0208024 0.0073136 -0.00283434
0.0246097 0.0129712 -0.00240978
0.027902 0.0194999 -0.00152719
0.0229513 0.0112752 -0.000354736
0.0234114 5.43262e-12 0.000619964
0.0265627 -0.00673994 0.00156192
0.0299324 -0.0131683 0.00212113
0.0306585 -0.0110805 0.00164507
0.0300094 -0.00770443 0.00113178
0.0290032 -0.00502022 0.00066663
0.0280662 -0.00327477 0.000313873
0.0272957 -0.00221396 8.85377e-05
0.0266724 -0.00155573 -3.35878e-05
0.0261597 -0.00111362 -8.5526e-05
0.025733 -0.000792913 -9.47927e-05
0.0253804 -0.000554085 -8.19447e-05
0.0250954 -0.000379779 -6.13355e-05
0.0248713 -0.000257265 -4.14576e-05
0.0247003 -0.000173902 -2.59365e-05
0.0245733 -0.000118145 -1.52803e-05
0.024481 -8.09161e-05 -8.58103e-06
0.0244153 -5.58464e-05 -4.62567e-06
0.0243692 -3.87601e-05 -2.39476e-06
0.0243374 -2.69874e-05 -1.17999e-06
0.0243155 -1.88126e-05 -5.38755e-07
0.0243006 -1.31106e-05 -2.11679e-07
0.0242904 -9.12566e-06 -5.26661e-08
0.0242836 -6.34021e-06 1.85543e-08
0.0242789 -4.39513e-06 4.53274e-08
0.0242757 -3.03927e-06 5.06851e-08
0.0242736 -2.09625e-06 4.66189e-08
0.0242721 -1.44204e-06 3.9179e-08
0.0242711 -9.89427e-07 3.12607e-08
0.0242705 -6.77182e-07 2.4116e-08
0.02427 -4.62382e-07 1.8169e-08
0.0242697 -3.14979e-07 1.34478e-08
0.0242695 -2.13916e-07 9.8167e-09
0.0242693 -1.44373e-07 7.08104e-09
0.0242692 -9.5797e-08 5.03625e-09
0.0242692 -6.05161e-08 3.51962e-09
0.0242691 -3.27442e-08 2.4504e-09
0.0242691 -7.77164e-09 1.8171e-09
0.0242691 1.80838e-08 1.86951e-09
0.0242691 4.87222e-08 1.77274e-09
0.0242691 8.3338e-08 -6.56419e-10
0.0242691 1.00845e-07 -2.73119e-09
0.01 -9.10868e-07 -2.81892e-06
0.0100008 -0.000638545 -0.00230698
0.0113172 -0.000724363 -0.00414716
0.0131671 0.000533309 -0.00290557
0.0155775 0.00249764 -0.00179725
0.019448 0.00554419 -0.00180238
0.0253507 0.00835895 -0.00235798
0.0344708 0.0101199 -0.00209454
0.0460793 0.00481384 -0.00051686