# vtk DataFile Version 2.0
Tobias Weinzierl: CPU, Manycore and Cluster Computing
ASCII

DATASET STRUCTURED_POINTS
DIMENSIONS  51 11 6

ORIGIN 0 0 0 

SPACING 0.1 0.1 0.1 

POINT_DATA 3366

VECTORS velocity float
0 0 0
-4.4963e-13 0 0
1.30628e-09 0 0
2.57028e-09 0 0
-4.6403e-09 0 0
4.69434e-09 0 0
6.20612e-09 0 0
5.24633e-09 0 0
4.79333e-09 0 0
4.08969e-09 0 0
2.90931e-09 0 0
1.93659e-09 0 0
1.03955e-09 0 0
-7.12631e-10 0 0
-3.43032e-09 0 0
-6.03058e-09 0 0
-7.59006e-09 0 0
-8.20078e-09 0 0
-8.53618e-09 0 0
-9.11549e-09 0 0
-1.00457e-08 0 0
-1.1166e-08 0 0
-1.22642e-08 0 0
-1.31959e-08 0 0
-1.39062e-08 0 0
-1.44036e-08 0 0
-1.47267e-08 0 0
-1.49214e-08 0 0
-1.50287e-08 0 0
-1.50802e-08 0 0
-1.50986e-08 0 0
-1.50989e-08 0 0
-1.50905e-08 0 0
-1.50789e-08 0 0
-1.50671e-08 0 0
-1.50566e-08 0 0
-1.50479e-08 0 0
-1.50411e-08 0 0
-1.50358e-08 0 0
-1.50319e-08 0 0
-1.5029e-08 0 0
-1.5027e-08 0 0
-1.50255e-08 0 0
-1.50246e-08 0 0
-1.50239e-08 0 0
-1.50236e-08 0 0
-1.50235e-08 0 0
-1.50236e-08 0 0
-1.50239e-08 0 0
-1.50249e-08 0 0
0.0019489 0 0
0 3.79825e-07 0
-1.82708e-12 -1.41547e-09 0
1.97511e-09 -3.93234e-09 0
5.87271e-09 -1.27403e-09 0
-2.07247e-09 -6.37938e-09 0
1.46394e-08 -8.60714e-09 0
1.685e-08 -2.38748e-11 0
1.45767e-08 1.46624e-09 0
1.3949e-08 9.55414e-10 0
1.33131e-08 7.26648e-10 0
1.13998e-08 8.53624e-11 0
8.89783e-09 -8.61072e-12 0
5.74418e-09 1.78496e-09 0
1.11067e-09 4.33218e-09 0
-4.48558e-09 5.30362e-09 0
-9.17727e-09 4.14438e-09 0
-1.20012e-08 2.23922e-09 0
-1.37452e-08 9.86572e-10 0
-1.57517e-08 7.04477e-10 0
-1.86913e-08 9.58212e-10 0
-2.23825e-08 1.2504e-09 0
-2.62397e-08 1.34346e-09 0
-2.97179e-08 1.22984e-09 0
-3.25138e-08 9.97911e-10 0
-3.45626e-08 7.36848e-10 0
-3.59499e-08 5.02224e-10 0
-3.68223e-08 3.16965e-10 0
-3.73289e-08 1.83287e-10 0
-3.7594e-08 9.36421e-11 0
-3.77103e-08 3.75955e-11 0
-3.77412e-08 5.2575e-12 0
-3.7728e-08 -1.14055e-11 0
-3.76953e-08 -1.83543e-11 0
-3.76573e-08 -1.97234e-11 0
-3.76212e-08 -1.82131e-11 0
-3.75902e-08 -1.54809e-11 0
-3.7565e-08 -1.24717e-11 0
-3.75454e-08 -9.67043e-12 0
-3.75306e-08 -7.28282e-12 0
-3.75196e-08 -5.35735e-12 0
-3.75117e-08 -3.86217e-12 0
-3.7506e-08 -2.73095e-12 0
-3.7502e-08 -1.8895e-12 0
-3.74993e-08 -1.26871e-12 0
-3.74976e-08 -8.06324e-13 0
-3.74966e-08 -4.49063e-13 0
-3.74963e-08 -1.44222e-13 0
-3.74965e-08 1.88714e-13 0
-3.74977e-08 8.28087e-13 0
-3.75003e-08 2.62819e-12 0
0.0055956 -2.70562e-08 0
0 -2.05213e-08 0
-1.60376e-12 -1.4304e-09 0
2.66642e-09 -6.69031e-09 0
1.09146e-08 -1.11478e-08 0
1.35091e-08 -2.09615e-08 0
2.6423e-08 -1.73725e-08 0
2.2523e-08 -1.62771e-09 0
2.15283e-08 -3.955e-10 0
2.00799e-08 -4.80454e-09 0
1.71894e-08 -9.80142e-09 0
1.13332e-08 -1.25681e-08 0
6.31211e-09 -1.05132e-08 0
2.93652e-09 -4.2868e-09 0
-1.37032e-09 2.18831e-09 0
-6.65092e-09 6.36115e-09 0
-1.10083e-08 8.56921e-09 0
-1.3491e-08 9.79147e-09 0
-1.48644e-08 1.03356e-08 0
-1.64323e-08 1.01891e-08 0
-1.89264e-08 9.4059e-09 0
-2.22677e-08 8.14277e-09 0
-2.5903e-08 6.61346e-09 0
-2.92434e-08 5.04274e-09 0
-3.19236e-08 3.61404e-09 0
-3.3842e-08 2.43503e-09 0
-3.50786e-08 1.53727e-09 0
-3.57916e-08 8.99215e-10 0
-3.61453e-08 4.73388e-10 0
-3.62752e-08 2.06602e-10 0
-3.62793e-08 5.11478e-11 0
-3.62219e-08 -3.09125e-11 0
-3.61416e-08 -6.74183e-11 0
-3.60599e-08 -7.75534e-11 0
-3.59868e-08 -7.38053e-11 0
-3.59261e-08 -6.38427e-11 0
-3.5878e-08 -5.20646e-11 0
-3.58413e-08 -4.07691e-11 0
-3.58139e-08 -3.09797e-11 0
-3.57938e-08 -2.2997e-11 0
-3.57794e-08 -1.67484e-11 0
-3.57691e-08 -1.19966e-11 0
-3.57619e-08 -8.45543e-12 0
-3.57568e-08 -5.8488e-12 0
-3.57535e-08 -3.93675e-12 0
-3.57513e-08 -2.51462e-12 0
-3.57502e-08 -1.39625e-12 0
-3.57498e-08 -3.63597e-13 0
-3.57503e-08 9.68097e-13 0
-3.57518e-08 3.03032e-12 0
-3.57547e-08 6.10491e-12 0
0.00802171 -6.19512e-08 0
0 -6.29587e-07 0
1.50618e-12 -3.23921e-09 0
4.38784e-09 -1.13926e-08 0
1.43698e-08 -2.14758e-08 0
1.5284e-08 -2.9658e-08 0
1.64779e-08 -1.63391e-08 0
1.18775e-08 -5.42331e-12 0
1.21981e-08 -1.78951e-09 0
6.39833e-09 -9.28234e-09 0
-3.67939e-10 -1.87374e-08 0
-5.31614e-09 -2.42201e-08 0
-8.26991e-09 -2.50821e-08 0
-9.78338e-09 -2.00583e-08 0
-1.41694e-08 -9.85833e-09 0
-2.05627e-08 2.38784e-09 0
-2.57819e-08 1.29698e-08 0
-2.77274e-08 1.89807e-08 0
-2.63945e-08 2.00589e-08 0
-2.3258e-08 1.7945e-08 0
-2.00824e-08 1.46177e-08 0
-1.79364e-08 1.12354e-08 0
-1.69616e-08 8.22953e-09 0
-1.67546e-08 5.71414e-09 0
-1.684e-08 3.71302e-09 0
-1.69136e-08 2.21121e-09 0
-1.68633e-08 1.15636e-09 0
-1.66946e-08 4.68099e-10 0
-1.64565e-08 5.63798e-11 0
-1.61989e-08 -1.62377e-10 0
-1.59564e-08 -2.56386e-10 0
-1.5747e-08 -2.76249e-10 0
-1.55766e-08 -2.56658e-10 0
-1.54439e-08 -2.19694e-10 0
-1.53437e-08 -1.78318e-10 0
-1.52699e-08 -1.39379e-10 0
-1.52166e-08 -1.05904e-10 0
-1.51786e-08 -7.87138e-11 0
-1.5152e-08 -5.74768e-11 0
-1.51334e-08 -4.13582e-11 0
-1.51206e-08 -2.93852e-11 0
-1.51117e-08 -2.06336e-11 0
-1.51057e-08 -1.43078e-11 0
-1.51017e-08 -9.759e-12 0
-1.5099e-08 -6.47125e-12 0
-1.50974e-08 -4.02968e-12 0
-1.50967e-08 -2.05949e-12 0
-1.50965e-08 -1.84395e-13 0
-1.50969e-08 1.90278e-12 0
-1.50974e-08 4.26927e-12 0
-1.50987e-08 6.52921e-12 0
0.00902918 -6.57801e-08 0
0 -1.23166e-06 0
5.93351e-13 -6.27961e-09 0
1.74118e-09 -1.73787e-08 0
5.44591e-09 -2.29095e-08 0
3.12915e-09 -1.85621e-08 0
-2.49462e-13 -6.75279e-09 0
-5.13356e-11 -4.8878e-11 0
4.76581e-11 -4.94875e-11 0
-4.52583e-09 -7.38279e-09 0
-1.92333e-08 -2.33376e-08 0
-2.54875e-08 -3.61623e-08 0
-2.41789e-08 -3.95776e-08 0
-2.55021e-08 -3.138e-08 0
-3.04083e-08 -1.40079e-08 0
-3.60281e-08 4.98743e-09 0
-3.98695e-08 1.90778e-08 0
-4.02902e-08 2.48153e-08 0
-3.65523e-08 2.3231e-08 0
-2.95227e-08 1.80068e-08 0
-2.13801e-08 1.23768e-08 0
-1.41761e-08 7.80269e-09 0
-8.83994e-09 4.47379e-09 0
-5.27899e-09 2.15334e-09 0
-2.97513e-09 5.98676e-10 0
-1.43534e-09 -3.68129e-10 0
-3.41826e-10 -8.91414e-10 0
4.724e-10 -1.10078e-09 0
1.08915e-09 -1.10884e-09 0
1.55323e-09 -1.00445e-09 0
1.896e-09 -8.50515e-10 0
2.14362e-09 -6.86815e-10 0
2.31869e-09 -5.35375e-10 0
2.44012e-09 -4.06099e-10 0
2.52299e-09 -3.01469e-10 0
2.5788e-09 -2.19951e-10 0
2.61597e-09 -1.58226e-10 0
2.64053e-09 -1.12506e-10 0
2.65664e-09 -7.92186e-11 0
2.66716e-09 -5.53098e-11 0
2.674e-09 -3.83177e-11 0
2.67845e-09 -2.6334e-11 0
2.68134e-09 -1.79182e-11 0
2.68318e-09 -1.20014e-11 0
2.68429e-09 -7.7899e-12 0
2.68489e-09 -4.67911e-12 0
2.68516e-09 -2.22132e-12 0
2.68531e-09 -1.47829e-13 0
2.68567e-09 1.59892e-12 0
2.6863e-09 2.96088e-12 0
2.68624e-09 3.91329e-12 0
0.0093955 -3.67927e-08 0
0 -1.11479e-06 0
-3.73207e-12 -6.80389e-09 0
-2.40852e-09 -1.50516e-08 0
-2.60292e-09 -1.77647e-08 0
-5.91048e-09 -1.7577e-08 0
-4.849e-09 -8.0611e-09 0
-4.99608e-11 4.94724e-11 0
-1.89938e-12 1.89938e-12 0
4.67509e-11 -4.85564e-11 0
-1.08993e-08 -1.28421e-08 0
-3.22113e-08 -3.70498e-08 0
-3.51858e-08 -4.67506e-08 0
-3.7321e-08 -3.58232e-08 0
-3.92072e-08 -1.50282e-08 0
-3.97466e-08 6.32953e-09 0
-3.96349e-08 2.11983e-08 0
-3.87907e-08 2.59511e-08 0
-3.54355e-08 2.21198e-08 0
-2.85401e-08 1.44599e-08 0
-1.94429e-08 7.12641e-09 0
-1.05603e-08 1.87584e-09 0
-3.5284e-09 -1.28904e-09 0
1.30257e-09 -2.93695e-09 0
4.35019e-09 -3.59597e-09 0
6.2007e-09 -3.63857e-09 0
7.31865e-09 -3.32402e-09 0
8.00058e-09 -2.83686e-09 0
8.41979e-09 -2.30294e-09 0
8.67669e-09 -1.79896e-09 0
8.83163e-09 -1.36348e-09 0
8.92248e-09 -1.00899e-09 0
8.97361e-09 -7.32587e-10 0
9.00074e-09 -5.23887e-10 0
9.01387e-09 -3.70129e-10 0
9.01917e-09 -2.58973e-10 0
9.02038e-09 -1.79788e-10 0
9.01963e-09 -1.24019e-10 0
9.01811e-09 -8.50888e-11 0
9.01643e-09 -5.80958e-11 0
9.01489e-09 -3.94715e-11 0
9.01361e-09 -2.66595e-11 0
9.0126e-09 -1.78476e-11 0
9.01184e-09 -1.17567e-11 0
9.01127e-09 -7.49141e-12 0
9.01089e-09 -4.45378e-12 0
9.01075e-09 -2.28862e-12 0
9.01094e-09 -8.10782e-13 0
9.01158e-09 7.6183e-14 0
9.01246e-09 3.70938e-13 0
9.01246e-09 2.35748e-13 0
0.00948266 8.10778e-09 0
0 -7.69199e-07 0
-2.03923e-12 -4.07043e-09 0
-2.5237e-09 -1.0363e-08 0
-2.22972e-09 -1.35933e-08 0
-8.49627e-09 -1.36373e-08 0
-1.22098e-08 -8.61822e-09 0
-5.51509e-09 -2.28131e-09 0
-4.86682e-11 5.04703e-11 0
-3.70321e-12 3.70321e-12 0
4.54072e-11 -4.80217e-11 0
-1.48826e-08 -2.1719e-08 0
-2.88141e-08 -4.3404e-08 0
-3.60149e-08 -3.36883e-08 0
-3.77707e-08 -1.27179e-08 0
-3.49652e-08 7.57896e-09 0
-3.03656e-08 2.08116e-08 0
-2.68794e-08 2.4017e-08 0
-2.40124e-08 1.87867e-08 0
-1.95841e-08 9.94689e-09 0
-1.32433e-08 1.92077e-09 0
-6.61372e-09 -3.38125e-09 0
-1.34228e-09 -6.04328e-09 0
1.99357e-09 -6.85331e-09 0
3.68106e-09 -6.56655e-09 0
4.29487e-09 -5.72588e-09 0
4.33533e-09 -4.68558e-09 0
4.12757e-09 -3.65898e-09 0
3.84818e-09 -2.75699e-09 0
3.57938e-09 -2.02088e-09 0
3.35209e-09 -1.45023e-09 0
3.17245e-09 -1.024e-09 0
3.03613e-09 -7.14217e-10 0
2.9354e-09 -4.93574e-10 0
2.86233e-09 -3.38738e-10 0
2.80999e-09 -2.31261e-10 0
2.77286e-09 -1.57247e-10 0
2.7467e-09 -1.06569e-10 0
2.72836e-09 -7.20118e-11 0
2.71557e-09 -4.85142e-11 0
2.70669e-09 -3.25647e-11 0
2.70056e-09 -2.17433e-11 0
2.69638e-09 -1.4393e-11 0
2.69358e-09 -9.39277e-12 0
2.69174e-09 -6.00147e-12 0
2.69062e-09 -3.74216e-12 0
2.69003e-09 -2.31373e-12 0
2.68987e-09 -1.53793e-12 0
2.69009e-09 -1.35411e-12 0
2.69043e-09 -1.91795e-12 0
2.68992e-09 -3.24839e-12 0
0.00939548 4.98901e-08 0
0 -5.39351e-07 0
7.04647e-13 -2.85297e-09 0
-9.88917e-10 -7.44137e-09 0
-1.92583e-09 -1.02517e-08 0
-7.85311e-09 -9.65584e-09 0
-1.55562e-08 -4.658e-09 0
-1.56616e-08 -3.15586e-10 0
-9.03991e-09 3.49791e-10 0
-5.46078e-11 4.62973e-11 0
4.45087e-11 4.62191e-11 0
2.86307e-14 -1.20555e-08 0
-1.77807e-08 -2.57297e-08 0
-3.35758e-08 -1.90664e-08 0
-4.01555e-08 -2.16688e-09 0
-3.58669e-08 1.14991e-08 0
-2.47943e-08 1.76668e-08 0
-1.49889e-08 1.66502e-08 0
-1.03537e-08 1.07234e-08 0
-8.9877e-09 3.35609e-09 0
-8.12225e-09 -2.55585e-09 0
-7.09926e-09 -5.94158e-09 0
-6.51584e-09 -7.14672e-09 0
-6.78361e-09 -6.96411e-09 0
-7.7763e-09 -6.07863e-09 0
-9.12142e-09 -4.94474e-09 0
-1.04869e-08 -3.82568e-09 0
-1.16818e-08 -2.85162e-09 0
-1.2638e-08 -2.06718e-09 0
-1.33608e-08 -1.46805e-09 0
-1.3887e-08 -1.02719e-09 0
-1.42608e-08 -7.1118e-10 0
-1.4522e-08 -4.88761e-10 0
-1.47025e-08 -3.34155e-10 0
-1.48265e-08 -2.27588e-10 0
-1.49113e-08 -1.54548e-10 0
-1.49692e-08 -1.04679e-10 0
-1.50087e-08 -7.0724e-11 0
-1.50356e-08 -4.76518e-11 0
-1.50539e-08 -3.20002e-11 0
-1.50663e-08 -2.13968e-11 0
-1.50747e-08 -1.42246e-11 0
-1.50803e-08 -9.3893e-12 0
-1.50841e-08 -6.1552e-12 0
-1.50865e-08 -4.03048e-12 0
-1.50881e-08 -2.69389e-12 0
-1.50891e-08 -1.95373e-12 0
-1.50898e-08 -1.73111e-12 0
-1.50901e-08 -2.08221e-12 0
-1.50906e-08 -3.32047e-12 0
-1.5092e-08 -5.67016e-12 0
0.00902915 7.05594e-08 0
0 -4.57617e-07 0
4.71584e-13 -1.49105e-09 0
-6.81555e-11 -4.16771e-09 0
-2.49436e-09 -6.27175e-09 0
-1.02813e-08 -6.37328e-09 0
-2.00376e-08 -1.441e-09 0
-2.28289e-08 3.35633e-09 0
-2.05575e-08 -3.25599e-09 0
-1.30819e-08 -5.27523e-09 0
-1.09692e-08 -2.76622e-13 0
-1.14195e-08 -5.09253e-09 0
-2.64326e-08 -8.54554e-09 0
-4.29578e-08 -1.09833e-09 0
-4.7267e-08 8.90361e-09 0
-3.66711e-08 1.32149e-08 0
-1.91904e-08 1.07655e-08 0
-6.90112e-09 4.94461e-09 0
-4.9253e-09 -7.82098e-10 0
-9.59184e-09 -4.34814e-09 0
-1.54021e-08 -5.45319e-09 0
-1.98563e-08 -5.01198e-09 0
-2.29942e-08 -4.06035e-09 0
-2.54648e-08 -3.15731e-09 0
-2.76232e-08 -2.44388e-09 0
-2.95238e-08 -1.89229e-09 0
-3.11234e-08 -1.45508e-09 0
-3.23983e-08 -1.10378e-09 0
-3.33682e-08 -8.23822e-10 0
-3.40806e-08 -6.05231e-10 0
-3.45908e-08 -4.38436e-10 0
-3.49499e-08 -3.13808e-10 0
-3.51997e-08 -2.22317e-10 0
-3.53721e-08 -1.56117e-10 0
-3.54906e-08 -1.08781e-10 0
-3.55718e-08 -7.52689e-11 0
-3.56273e-08 -5.17428e-11 0
-3.56651e-08 -3.53483e-11 0
-3.56909e-08 -2.39979e-11 0
-3.57085e-08 -1.61873e-11 0
-3.57204e-08 -1.08449e-11 0
-3.57284e-08 -7.21645e-12 0
-3.57338e-08 -4.77611e-12 0
-3.57373e-08 -3.1621e-12 0
-3.57397e-08 -2.13202e-12 0
-3.57414e-08 -1.53646e-12 0
-3.57426e-08 -1.30228e-12 0
-3.57436e-08 -1.43071e-12 0
-3.57445e-08 -2.00882e-12 0
-3.57458e-08 -3.29806e-12 0
-3.57486e-08 -5.56395e-12 0
0.00802171 5.79696e-08 0
0 -4.72047e-07 0
1.97132e-12 -2.36904e-10 0
4.59627e-10 -9.90522e-10 0
-2.98093e-09 -1.90645e-09 0
-1.18657e-08 -2.16475e-09 0
-2.26519e-08 -1.47498e-09 0
-2.64785e-08 5.43715e-10 0
-2.43953e-08 -9.76397e-10 0
-2.81911e-08 -2.75424e-09 0
-2.61833e-08 1.06495e-10 0
-2.41254e-08 3.1276e-09 0
-2.82916e-08 5.81339e-09 0
-3.19684e-08 7.01193e-09 0
-2.89267e-08 6.01405e-09 0
-1.8238e-08 3.70215e-09 0
-6.54801e-09 4.43348e-10 0
-2.0803e-09 -2.80951e-09 0
-6.52736e-09 -4.53381e-09 0
-1.51358e-08 -4.22028e-09 0
-2.28571e-08 -2.76729e-09 0
-2.78524e-08 -1.33383e-09 0
-3.06349e-08 -4.5834e-10 0
-3.2232e-08 -1.03994e-10 0
-3.33262e-08 -3.98661e-11 0
-3.42073e-08 -7.74897e-11 0
-3.49549e-08 -1.21732e-10 0
-3.55786e-08 -1.42759e-10 0
-3.608e-08 -1.40784e-10 0
-3.64688e-08 -1.2465e-10 0
-3.67611e-08 -1.02736e-10 0
-3.6976e-08 -8.05369e-11 0
-3.71311e-08 -6.08741e-11 0
-3.72414e-08 -4.47657e-11 0
-3.73192e-08 -3.22249e-11 0
-3.73735e-08 -2.28034e-11 0
-3.74112e-08 -1.5908e-11 0
-3.74372e-08 -1.09616e-11 0
-3.74551e-08 -7.46945e-12 0
-3.74673e-08 -5.03697e-12 0
-3.74756e-08 -3.36322e-12 0
-3.74812e-08 -2.22629e-12 0
-3.7485e-08 -1.46749e-12 0
-3.74875e-08 -9.76655e-13 0
-3.74892e-08 -6.81383e-13 0
-3.74905e-08 -5.41377e-13 0
-3.74915e-08 -5.41979e-13 0
-3.74925e-08 -6.96346e-13 0
-3.74937e-08 -1.02668e-12 0
-3.74956e-08 -1.55159e-12 0
-3.74991e-08 -2.44492e-12 0
0.00559563 2.16077e-08 0
0 0 0
1.65067e-12 0 0
3.03113e-10 0 0
-1.47394e-09 0 0
-5.63815e-09 0 0
-1.08097e-08 0 0
-1.37964e-08 0 0
-1.28785e-08 0 0
-1.51134e-08 0 0
-1.5215e-08 0 0
-1.27058e-08 0 0
-9.45322e-09 0 0
-6.40573e-09 0 0
-3.81905e-09 0 0
-1.15419e-09 0 0
5.28011e-10 0 0
-4.36793e-10 0 0
-3.90104e-09 0 0
-8.00616e-09 0 0
-1.11284e-08 0 0
-1.28714e-08 0 0
-1.36349e-08 0 0
-1.39278e-08 0 0
-1.40694e-08 0 0
-1.41916e-08 0 0
-1.43244e-08 0 0
-1.44601e-08 0 0
-1.4586e-08 0 0
-1.46939e-08 0 0
-1.47809e-08 0 0
-1.48482e-08 0 0
-1.48986e-08 0 0
-1.49354e-08 0 0
-1.49619e-08 0 0
-1.49806e-08 0 0
-1.49937e-08 0 0
-1.50028e-08 0 0
-1.50091e-08 0 0
-1.50134e-08 0 0
-1.50163e-08 0 0
-1.50183e-08 0 0
-1.50196e-08 0 0
-1.50205e-08 0 0
-1.50211e-08 0 0
-1.50215e-08 0 0
-1.5022e-08 0 0
-1.50224e-08 0 0
-1.5023e-08 0 0
-1.5024e-08 0 0
-1.50257e-08 0 0
0.00194892 0 0
0 0 5.27329e-07
-1.96737e-12 0 1.08059e-10
1.1216e-09 0 1.36029e-09
6.14812e-09 0 7.21841e-09
-1.60447e-08 0 4.25216e-09
7.46208e-09 0 -2.24187e-09
1.34372e-08 0 -5.29051e-10
1.26196e-08 0 -5.31501e-11
1.26369e-08 0 2.02335e-10
1.38405e-08 0 1.15946e-09
1.60427e-08 0 2.07075e-09
1.92606e-08 0 1.88178e-09
2.17005e-08 0 8.67516e-10
2.03094e-08 0 1.40541e-10
1.41016e-08 0 1.67097e-11
5.53781e-09 0 1.71213e-11
-2.32347e-09 0 -6.79624e-11
-8.45361e-09 0 -4.00172e-11
-1.35491e-08 0 2.10297e-10
-1.84559e-08 0 5.51274e-10
-2.33722e-08 0 8.00235e-10
-2.80024e-08 0 8.75335e-10
-3.19754e-08 0 8.00491e-10
-3.50895e-08 0 6.44699e-10
-3.73429e-08 0 4.71408e-10
-3.88624e-08 0 3.18805e-10
-3.98205e-08 0 2.01424e-10
-4.03828e-08 0 1.19145e-10
-4.06842e-08 0 6.54475e-11
-4.08236e-08 0 3.24943e-11
-4.08691e-08 0 1.3462e-11
-4.08646e-08 0 3.22117e-12
-4.0837e-08 0 -1.75828e-12
-4.08017e-08 0 -3.76114e-12
-4.07669e-08 0 -4.19303e-12
-4.07362e-08 0 -3.87782e-12
-4.07111e-08 0 -3.27309e-12
-4.06913e-08 0 -2.61583e-12
-4.06762e-08 0 -2.01604e-12
-4.0665e-08 0 -1.51453e-12
-4.06568e-08 0 -1.11665e-12
-4.0651e-08 0 -8.11059e-13
-4.06468e-08 0 -5.8102e-13
-4.0644e-08 0 -4.10693e-13
-4.06422e-08 0 -2.84468e-13
-4.06411e-08 0 -1.90926e-13
-4.06407e-08 0 -1.27753e-13
-4.06409e-08 0 -1.17014e-13
-4.06418e-08 0 -1.12923e-13
-4.06444e-08 0 5.38431e-13
0.00553683 0 -3.0099e-09
0.0036 -3.03442e-07 -6.19512e-08
0.0035998 -0.00138758 -2.28104e-05
0.00671236 -0.0039217 0.000107387
0.0136091 -0.00590226 -0.000529689
0.0235224 -0.014437 -0.00429216
0.0463093 -0.0133348 -0.00487931
0.0498136 -0.0018929 -0.00164434
0.0495504 0.00266546 -0.000165609
0.0445601 0.00499234 0.000563864
0.0389501 0.0051602 0.000541821
0.0338357 0.00449334 0.0002625
0.0295285 0.00360916 -1.62769e-05
0.0261124 0.0027269 -0.000207062
0.0235307 0.00194181 -0.00029704
0.0216262 0.00131297 -0.000303073
0.0202193 0.000862504 -0.000251993
0.0191685 0.000569904 -0.000174905
0.0183808 0.000389833 -9.98816e-05
0.017796 0.0002768 -4.36174e-05
0.0173714 0.000199674 -9.7043e-06
0.0170722 0.000142511 6.39788e-06
0.016869 9.87881e-05 1.1443e-05
0.0167362 6.58632e-05 1.10124e-05
0.016653 4.20179e-05 8.60897e-06
0.0166034 2.55233e-05 5.99999e-06
0.0165753 1.46294e-05 3.86744e-06
0.0165607 7.75755e-06 2.34389e-06
0.0165539 3.62736e-06 1.34266e-06
0.0165515 1.28135e-06 7.23519e-07
0.0165514 4.62874e-08 3.59755e-07
0.0165523 -5.28317e-07 1.56502e-07
0.0165536 -7.31267e-07 4.94342e-08
0.0165549 -7.40238e-07 -2.46224e-09
0.016556 -6.59767e-07 -2.41645e-08
0.0165569 -5.48101e-07 -3.02914e-08
0.0165577 -4.35326e-07 -2.90663e-08
0.0165582 -3.35133e-07 -2.49071e-08
0.0165587 -2.52181e-07 -2.00455e-08
0.016559 -1.86523e-07 -1.55037e-08
0.0165592 -1.36152e-07 -1.16639e-08
0.0165594 -9.83904e-08 -8.5891e-09
0.0165595 -7.05954e-08 -6.2063e-09
0.0165596 -5.04729e-08 -4.41146e-09
0.0165596 -3.61636e-08 -3.09314e-09
0.0165597 -2.62481e-08 -2.14597e-09
0.0165597 -1.96879e-08 -1.42486e-09
0.0165597 -1.57654e-08 -5.75969e-10
0.0165598 -1.42776e-08 1.55705e-09
0.0165598 -1.84424e-08 5.39494e-09
0.0165598 -5.10956e-08 -2.73109e-09
0.0165599 -7.94731e-08 -1.3084e-08
0.01 -1.36753e-07 -1.43355e-06
0.0100007 -0.00298903 -0.000599514
0.0147872 -0.00995033 -0.00079044
0.0241648 -0.0177189 -0.00125233
0.0385206 -0.0324889 -0.00335611
0.0591702 -0.0247856 -0.000819959
0.0564172 -0.00270931 0.00317089
0.0558539 0.00511667 0.00338387
0.0500698 0.0101079 0.00299523
0.044589 0.0102722 0.0020853
0.0400818 0.0092102 0.00112135
0.0363673 0.00779445 0.000370704
0.0333946 0.00629505 -0.000145155
0.0311172 0.0048924 -0.000439384
0.0293754 0.00370313 -0.000530081
0.0280243 0.00275524 -0.000471047
0.0269775 0.00202091 -0.00033864
0.0261844 0.00145998 -0.000200273
0.0256038 0.00103647 -9.37031e-05
0.0251944 0.000720748 -2.7716e-05
0.0249171 0.000488965 5.26291e-06
0.0247373 0.000322213 1.72567e-05
0.0246266 0.000205328 1.84068e-05
0.0245627 0.000125893 1.52323e-05
0.0245288 7.37264e-05 1.11467e-05
0.0245133 4.07054e-05 7.57197e-06
0.0245082 2.0625e-05 4.88982e-06
0.0245086 8.9664e-06 3.04081e-06
0.0245113 2.58487e-06 1.83338e-06
0.0245148 -6.19894e-07 1.07471e-06
0.0245182 -1.99824e-06 6.12245e-07
0.0245212 -2.38681e-06 3.37755e-07
0.0245236 -2.2839e-06 1.7901e-07
0.0245255 -1.97302e-06 8.97282e-08
0.024527 -1.60607e-06 4.11368e-08
0.0245281 -1.25744e-06 1.57922e-08
0.0245288 -9.57909e-07 3.3617e-09
0.0245294 -7.15223e-07 -2.1347e-09
0.0245298 -5.26012e-07 -4.07171e-09
0.0245301 -3.82453e-07 -4.29768e-09
0.0245303 -2.75737e-07 -3.78202e-09
0.0245305 -1.97704e-07 -3.00991e-09
0.0245306 -1.4151e-07 -2.23727e-09
0.0245306 -1.01739e-07 -1.5772e-09
0.0245307 -7.43123e-08 -1.03524e-09
0.0245307 -5.64383e-08 -4.47208e-10
0.0245308 -4.68092e-08 8.55906e-10
0.0245308 -4.92009e-08 3.80416e-09
0.0245309 -7.26456e-08 6.76349e-09
0.0245309 -1.35932e-07 -1.25445e-08
0.024531 -1.8099e-07 -3.2827e-08
0.0148 -9.46335e-07 -1.72091e-06
0.0148023 -0.00529311 -0.001128
0.0203755 -0.016412 -0.00244338
0.0275204 -0.0287859 -0.00394052
0.0321561 -0.0461314 -0.00576524
0.0306331 -0.0284838 -0.00141324
0.0268592 -1.2127e-05 0.00329438
0.0263021 0.00707518 0.0035196
0.0298227 0.0144611 0.00342453
0.0301755 0.0139218 0.00244444
0.0293704 0.0121629 0.0014635
0.0285387 0.0103258 0.000617067
0.0279049 0.00842708 1.26741e-05
0.0275829 0.00662257 -0.000338076
0.0274544 0.00506823 -0.000450064
0.0274235 0.00378163 -0.000398301
0.0274455 0.00274396 -0.000273687
0.0274972 0.00193631 -0.000145119
0.0275619 0.00133193 -4.76078e-05
0.0276277 0.000894087 1.0915e-05
0.0276891 0.000584184 3.72331e-05
0.0277444 0.000369202 4.27772e-05
0.0277936 0.000223574 3.78153e-05
0.0278364 0.000127939 2.92855e-05
0.0278726 6.75302e-05 2.08873e-05
0.0279022 3.11384e-05 1.40798e-05
0.0279256 1.04788e-05 9.10707e-06
0.0279436 -3.26998e-07 5.70412e-06
0.027957 -5.26399e-06 3.47789e-06
0.0279668 -6.91088e-06 2.06968e-06
0.0279738 -6.85971e-06 1.20289e-06
0.0279788 -6.04475e-06 6.81974e-07
0.0279822 -4.98194e-06 3.75917e-07
0.0279846 -3.93326e-06 2.00171e-07
0.0279863 -3.01405e-06 1.01731e-07
0.0279874 -2.26003e-06 4.81684e-08
0.0279882 -1.66723e-06 2.0075e-08
0.0279887 -1.21469e-06 6.07911e-09
0.0279891 -8.76564e-07 -3.42072e-10
0.0279893 -6.28025e-07 -2.84416e-09
0.0279895 -4.47714e-07 -3.41637e-09
0.0279896 -3.18387e-07 -3.10474e-09
0.0279897 -2.26708e-07 -2.47143e-09
0.0279897 -1.62754e-07 -1.78386e-09
0.0279898 -1.19449e-07 -1.03247e-09
0.0279898 -9.27124e-08 -3.41401e-11
0.0279898 -8.16713e-08 1.86983e-09
0.0279899 -8.93391e-08 4.07613e-09
0.0279899 -1.21028e-07 5.42114e-11
0.0279899 -1.7044e-07 -3.01304e-08
0.0279899 -1.9736e-07 -5.5407e-08
0.018 -1.90735e-06 -1.67286e-06
0.0180029 -0.00698977 -0.00187873
0.0207671 -0.0189637 -0.00492201
0.0207129 -0.0249331 -0.00633319
0.0160818 -0.0269683 -0.00761843
-1.5777e-06 -0.0140187 -0.00432951
9.58649e-05 2.59337e-05 9.06599e-07
-3.28581e-05 3.41896e-05 0.000652292
0.00659029 0.00411113 0.00143101
0.013499 0.00934951 0.00139387
0.0169274 0.0102 0.000979658
0.0186914 0.00924204 0.000433971
0.0203748 0.00766599 -5.55022e-05
0.0220641 0.00595829 -0.000317893
0.0235952 0.00446532 -0.000372434
0.0248999 0.00322605 -0.000308509
0.0259767 0.00223351 -0.000202212
0.0268433 0.00148117 -9.85996e-05
0.0275197 0.000944441 -1.88522e-05
0.0280297 0.000579331 3.06347e-05
0.028403 0.000338246 5.27962e-05
0.0286706 0.000182522 5.5627e-05
0.0288599 8.49189e-05 4.80023e-05
0.0289926 2.67905e-05 3.68022e-05
0.0290847 -5.0383e-06 2.60382e-05
0.0291479 -2.00872e-05 1.73775e-05
0.0291907 -2.51166e-05 1.10899e-05
0.0292191 -2.46993e-05 6.82516e-06
0.0292379 -2.17319e-05 4.07045e-06
0.02925 -1.7912e-05 2.35725e-06
0.0292578 -1.41411e-05 1.32496e-06
0.0292628 -1.08304e-05 7.20405e-07
0.0292659 -8.11222e-06 3.76024e-07
0.0292679 -5.97528e-06 1.85506e-07
0.0292691 -4.34521e-06 8.36119e-08
0.0292699 -3.12869e-06 3.14217e-08
0.0292703 -2.23552e-06 6.30748e-09
0.0292706 -1.58788e-06 -4.55973e-09
0.0292708 -1.12285e-06 -8.26622e-09
0.029271 -7.9156e-07 -8.61084e-09
0.029271 -5.57154e-07 -7.5468e-09
0.0292711 -3.92433e-07 -6.02312e-09
0.0292711 -2.77692e-07 -4.48874e-09
0.0292711 -1.99006e-07 -3.10566e-09
0.0292712 -1.47073e-07 -1.78445e-09
0.0292712 -1.16285e-07 -5.44685e-10
0.0292712 -1.03501e-07 6.16935e-10
0.0292712 -1.04848e-07 4.06678e-10
0.0292712 -1.17022e-07 -1.14324e-08
0.0292712 -1.23398e-07 -4.55158e-08
0.0292711 -1.2113e-07 -6.85693e-08
0.0196 -2.76365e-06 -2.52543e-06
0.019601 -0.00589458 -0.00274473
0.0190599 -0.0131513 -0.00647497
0.0159553 -0.0161635 -0.00668049
0.0109139 -0.015142 -0.0066854
0.00174142 -0.00623792 -0.0050391
7.14084e-05 -6.55705e-05 -0.00130153
3.27124e-05 -3.27124e-05 -4.02287e-08
-3.22586e-05 3.34576e-05 0.000256738
0.00394723 0.00280092 0.000546479
0.00905777 0.00657029 0.000475572
0.0119791 0.00688558 0.000125585
0.015227 0.00538341 -0.00025459
0.0183816 0.00386567 -0.000410099
0.0210825 0.00267222 -0.000397665
0.0232678 0.00173351 -0.000314548
0.0249945 0.00100828 -0.000216514
0.0263346 0.000492664 -0.000125314
0.0273466 0.000168078 -4.9957e-05
0.0280834 -1.08963e-05 3.392e-06
0.0286002 -9.62752e-05 3.28089e-05
0.0289513 -0.000128324 4.23033e-05
0.0291839 -0.000131902 3.9325e-05
0.029335 -0.000120989 3.09708e-05
0.0294312 -0.000103568 2.19192e-05
0.0294914 -8.43973e-05 1.43674e-05
0.0295282 -6.62404e-05 8.87456e-06
0.0295503 -5.04892e-05 5.21626e-06
0.0295632 -3.76124e-05 2.92942e-06
0.0295705 -2.75254e-05 1.56964e-06
0.0295746 -1.9869e-05 7.95524e-07
0.0295768 -1.41927e-05 3.73045e-07
0.0295779 -1.00581e-05 1.52928e-07
0.0295784 -7.08592e-06 4.48035e-08
0.0295786 -4.97019e-06 -3.79692e-09
0.0295786 -3.47507e-06 -2.22266e-08
0.0295786 -2.4242e-06 -2.6319e-08
0.0295786 -1.68854e-06 -2.42766e-08
0.0295785 -1.17516e-06 -2.01402e-08
0.0295785 -8.17839e-07 -1.5758e-08
0.0295784 -5.69834e-07 -1.18587e-08
0.0295784 -3.98345e-07 -8.63172e-09
0.0295784 -2.80584e-07 -6.07314e-09
0.0295784 -2.00911e-07 -4.1277e-09
0.0295784 -1.48623e-07 -2.74147e-09
0.0295783 -1.15708e-07 -2.10454e-09
0.0295783 -9.52978e-08 -2.50591e-09
0.0295783 -7.96774e-08 -4.58226e-09
0.0295783 -6.09158e-08 -1.9339e-08
0.0295782 -2.28881e-08 -5.05994e-08
0.0295781 4.11348e-09 -6.87043e-08
0.0196 -1.329e-06 -3.5187e-06
0.0195999 -0.00368084 -0.00312516
0.0187759 -0.00807199 -0.00651407
0.0175286 -0.00808624 -0.00605009
0.0132155 -0.00424908 -0.00554583
0.00911859 0.00261512 -0.00532459
0.00615613 0.00317044 -0.0031014
7.1571e-05 -5.957e-05 -0.000665146
2.73114e-05 -2.73114e-05 -1.24995e-07
-3.17263e-05 3.27909e-05 9.2368e-05
0.00276122 0.00200996 0.000355141
0.00710984 0.00317372 0.000260078
0.0124049 0.00160315 -0.000153409
0.0170517 0.000522953 -0.000330177
0.0206532 -3.052e-05 -0.000335057
0.0233239 -0.000372926 -0.000277413
0.0252763 -0.000610317 -0.000212924
0.0266839 -0.000734579 -0.000152724
0.0276699 -0.000741027 -9.56811e-05
0.0283302 -0.000662752 -4.6304e-05
0.0287496 -0.000546914 -1.1407e-05
0.0290021 -0.000428652 7.2247e-06
0.0291462 -0.00032499 1.33635e-05
0.0292238 -0.000240723 1.25976e-05
0.0292626 -0.000175063 9.32984e-06
0.0292799 -0.000125364 5.96983e-06
0.0292859 -8.86193e-05 3.41035e-06
0.0292864 -6.19958e-05 1.74538e-06
0.0292846 -4.30294e-05 7.76403e-07
0.0292821 -2.96994e-05 2.65088e-07
0.0292797 -2.04257e-05 2.3363e-08
0.0292776 -1.40198e-05 -7.32446e-08
0.0292759 -9.61513e-06 -9.86241e-08
0.0292746 -6.59444e-06 -9.30806e-08
0.0292737 -4.52519e-06 -7.68906e-08
0.0292729 -3.10791e-06 -5.93079e-08
0.0292724 -2.13673e-06 -4.3946e-08
0.0292721 -1.47077e-06 -3.17585e-08
0.0292718 -1.01379e-06 -2.25818e-08
0.0292716 -7.00103e-07 -1.58789e-08
0.0292715 -4.84872e-07 -1.1059e-08
0.0292714 -3.3748e-07 -7.61386e-09
0.0292713 -2.36946e-07 -5.21713e-09
0.0292713 -1.68609e-07 -3.70603e-09
0.0292712 -1.2175e-07 -3.02403e-09
0.0292712 -8.78574e-08 -3.22737e-09
0.0292712 -5.95725e-08 -4.36385e-09
0.0292711 -2.92013e-08 -6.4718e-09
0.0292711 1.41416e-08 -1.87186e-08
0.029271 8.42557e-08 -4.33767e-08
0.029271 1.27797e-07 -5.71019e-08
0.018 -8.49274e-07 -3.50839e-06
0.0180009 -0.00200421 -0.00304758
0.0183208 -0.00385953 -0.00615542
0.0183837 -0.00263397 -0.00528604
0.0173755 0.000671175 -0.00420319
0.0171049 0.00711186 -0.00396663
0.0178411 0.012596 -0.00298712
0.0109634 0.00693306 -0.00148025
7.3032e-05 -4.6108e-05 -0.000431032
-2.48977e-05 -5.36611e-05 5.46319e-07
7.74393e-06 -0.000671498 0.000743469
0.00833496 -0.00277802 0.00108296
0.0157011 -0.00434817 0.000462154
0.0207175 -0.00407244 0.000162332
0.0238929 -0.00327548 4.80632e-05
0.0258647 -0.00258789 -9.03652e-06
0.0270714 -0.00209231 -5.91918e-05
0.0277774 -0.00170001 -9.77456e-05
0.0281494 -0.0013444 -0.000108565
0.0283057 -0.00101839 -9.26841e-05
0.0283352 -0.000740353 -6.50463e-05
0.0283011 -0.000521833 -3.9462e-05
0.0282436 -0.000360354 -2.16719e-05
0.0281843 -0.000245616 -1.13129e-05
0.0281329 -0.000165996 -5.92148e-06
0.0280923 -0.000111569 -3.26284e-06
0.0280619 -7.47508e-05 -1.93875e-06
0.0280399 -5.00269e-05 -1.23053e-06
0.0280244 -3.35021e-05 -8.11339e-07
0.0280136 -2.24808e-05 -5.41452e-07
0.0280061 -1.5129e-05 -3.59892e-07
0.028001 -1.02154e-05 -2.36498e-07
0.0279975 -6.92131e-06 -1.53331e-07
0.0279951 -4.70462e-06 -9.81464e-08
0.0279935 -3.20719e-06 -6.21458e-08
0.0279923 -2.19192e-06 -3.90229e-08
0.0279916 -1.50134e-06 -2.43638e-08
0.027991 -1.03036e-06 -1.51641e-08
0.0279907 -7.08527e-07 -9.43164e-09
0.0279904 -4.88345e-07 -5.87543e-09
0.0279902 -3.37645e-07 -3.67368e-09
0.0279901 -2.34433e-07 -2.32732e-09
0.02799 -1.6341e-07 -1.59504e-09
0.02799 -1.13639e-07 -1.36476e-09
0.0279899 -7.69588e-08 -1.55684e-09
0.0279899 -4.67746e-08 -2.12049e-09
0.0279898 -1.70112e-08 -2.96024e-09
0.0279898 1.90013e-08 -4.00683e-09
0.0279898 7.29132e-08 -1.05987e-08
0.0279898 1.53125e-07 -2.74427e-08
0.0279898 1.99913e-07 -3.82755e-08
0.0148 -4.7688e-07 -3.10828e-06
0.0148015 -0.00103128 -0.00282594
0.016234 -0.00162923 -0.00542049
0.0178098 1.00284e-06 -0.00429292
0.0191545 0.0032142 -0.00308125
0.0209128 0.0073825 -0.00285992
0.024732 0.0129808 -0.00241204
0.0280233 0.019523 -0.00150497
0.0230352 0.01131 -0.000334822
0.023481 3.67224e-11 0.000627616
0.0266245 -0.00668878 0.00155783
0.0300938 -0.0130673 0.00210699
0.0309898 -0.0110241 0.00164433
0.0304552 -0.00774722 0.00116438
0.0294484 -0.00515306 0.000729542
0.0284176 -0.00343972 0.000372715
0.0275175 -0.00234401 0.000106523
0.0267767 -0.00160837 -6.05947e-05
0.0261841 -0.00108662 -0.000131892
0.0257216 -0.000714944 -0.00013375
0.0253707 -0.000460235 -0.000102978
0.0251122 -0.000293694 -6.74146e-05
0.0249271 -0.000188145 -3.96462e-05
0.0247978 -0.000121871 -2.16822e-05
0.0247093 -7.99596e-05 -1.12886e-05
0.0246496 -5.30679e-05 -5.68133e-06
0.0246098 -3.55495e-05 -2.78613e-06
0.0245834 -2.39885e-05 -1.33153e-06
0.0245659 -1.62799e-05 -6.13851e-07
0.0245544 -1.10978e-05 -2.65297e-07
0.0245467 -7.59123e-06 -9.95355e-08
0.0245416 -5.20595e-06 -2.35823e-08
0.0245381 -3.57678e-06 8.70091e-09
0.0245358 -2.46058e-06 2.01709e-08
0.0245342 -1.69413e-06 2.21242e-08
0.0245331 -1.16706e-06 2.00967e-08
0.0245324 -8.04276e-07 1.67424e-08
0.0245319 -5.5449e-07 1.3274e-08
0.0245316 -3.82515e-07 1.0189e-08
0.0245313 -2.64124e-07 7.63711e-09
0.0245312 -1.82541e-07 5.61178e-09
0.024531 -1.2604e-07 4.03912e-09
0.024531 -8.62758e-08 2.80637e-09
0.0245309 -5.71307e-08 1.82606e-09
0.0245309 -3.38388e-08 1.05697e-09
0.0245308 -1.22781e-08 4.82859e-10
0.0245308 1.17145e-08 2.4113e-10
0.0245308 4.24372e-08 2.70904e-10
0.0245308 8.66948e-08 -1.49738e-09
0.0245309 1.4631e-07 -1.29215e-08
0.0245309 1.79252e-07 -2.25473e-08
0.01 -9.10307e-07 -2.81474e-06
0.0100007 -0.00063222 -0.00230133
0.0113278 -0.000704121 -0.00414164
0.0132089 0.000567656 -0.00291783
0.0156737 0.00254038 -0.00183136
0.0196071 0.00558502 -0.00184227
0.0255387 0.00836803 -0.00237926
0.0346401 0.0101224 -0.00209551