# vtk DataFile Version 2.0
Tobias Weinzierl: CPU, Manycore and Cluster Computing
ASCII

DATASET STRUCTURED_POINTS
DIMENSIONS  51 11 6

ORIGIN 0 0 0 

SPACING 0.1 0.1 0.1 

POINT_DATA 3366

VECTORS velocity float
0 0 0
7.36169e-12 0 0
-1.5996e-07 0 0
-3.24751e-07 0 0
-3.58625e-07 0 0
-9.83875e-08 0 0
-7.17799e-09 0 0
-4.45928e-09 0 0
-6.07338e-08 0 0
-1.4424e-07 0 0
-2.00739e-07 0 0
-2.19384e-07 0 0
-2.16688e-07 0 0
-2.08711e-07 0 0
-2.03049e-07 0 0
-2.01206e-07 0 0
-2.01963e-07 0 0
-2.03776e-07 0 0
-2.05666e-07 0 0
-2.0721e-07 0 0
-2.08319e-07 0 0
-2.09049e-07 0 0
-2.09497e-07 0 0
-2.09754e-07 0 0
-2.0989e-07 0 0
-2.09954e-07 0 0
-2.09977e-07 0 0
-2.09979e-07 0 0
-2.09971e-07 0 0
-2.0996e-07 0 0
-2.09948e-07 0 0
-2.09938e-07 0 0
-2.09929e-07 0 0
-2.09922e-07 0 0
-2.09917e-07 0 0
-2.09912e-07 0 0
-2.09909e-07 0 0
-2.09907e-07 0 0
-2.09905e-07 0 0
-2.09904e-07 0 0
-2.09903e-07 0 0
-2.09903e-07 0 0
-2.09903e-07 0 0
-2.09903e-07 0 0
-2.09903e-07 0 0
-2.09904e-07 0 0
-2.09905e-07 0 0
-2.09908e-07 0 0
-2.09913e-07 0 0
-2.09934e-07 0 0
0.00272267 0 0
0 4.63937e-07 0
7.89741e-11 8.08053e-08 0
-2.96428e-07 1.46767e-07 0
-6.27276e-07 1.12142e-07 0
-6.50805e-07 6.79976e-08 0
-2.16291e-07 8.17837e-08 0
-7.76207e-08 1.30446e-07 0
-5.52039e-08 1.29023e-07 0
-8.79141e-08 1.1883e-07 0
-2.01843e-07 1.0366e-07 0
-2.99377e-07 6.41736e-08 0
-3.41582e-07 2.63678e-08 0
-3.50543e-07 4.7291e-09 0
-3.51911e-07 -2.51413e-09 0
-3.57097e-07 -2.05862e-09 0
-3.66947e-07 4.25207e-10 0
-3.78325e-07 2.13892e-09 0
-3.88563e-07 2.64427e-09 0
-3.96529e-07 2.38721e-09 0
-4.02168e-07 1.8389e-09 0
-4.05898e-07 1.27714e-09 0
-4.08236e-07 8.17639e-10 0
-4.09635e-07 4.84783e-10 0
-4.10433e-07 2.63054e-10 0
-4.10866e-07 1.2523e-10 0
-4.11084e-07 4.51805e-11 0
-4.11182e-07 2.27121e-12 0
-4.11217e-07 -1.81501e-11 0
-4.1122e-07 -2.57612e-11 0
-4.11208e-07 -2.65955e-11 0
-4.11192e-07 -2.42212e-11 0
-4.11176e-07 -2.06343e-11 0
-4.11162e-07 -1.68765e-11 0
-4.1115e-07 -1.34367e-11 0
-4.11141e-07 -1.04997e-11 0
-4.11134e-07 -8.09373e-12 0
-4.11128e-07 -6.17386e-12 0
-4.11124e-07 -4.6676e-12 0
-4.11121e-07 -3.49756e-12 0
-4.11119e-07 -2.5918e-12 0
-4.11118e-07 -1.887e-12 0
-4.11117e-07 -1.3276e-12 0
-4.11117e-07 -8.62169e-13 0
-4.11118e-07 -4.32446e-13 0
-4.11119e-07 5.83154e-14 0
-4.11121e-07 7.65682e-13 0
-4.11125e-07 1.86608e-12 0
-4.11133e-07 4.30649e-12 0
-4.11149e-07 1.43938e-11 0
-4.11192e-07 4.72248e-11 0
0.00727867 -2.50514e-07 0
0 3.62529e-08 0
1.91667e-10 9.51743e-08 0
-1.89102e-07 1.09964e-07 0
-4.78841e-07 -3.79173e-08 0
-3.85311e-07 -4.18919e-08 0
-8.89356e-08 1.04938e-07 0
-1.36828e-07 1.83273e-07 0
-1.59581e-07 9.1163e-08 0
-1.43314e-07 3.38932e-09 0
-1.75467e-07 1.30024e-08 0
-2.34136e-07 3.85444e-08 0
-2.59536e-07 6.65724e-08 0
-2.66004e-07 7.93185e-08 0
-2.68188e-07 7.20218e-08 0
-2.75789e-07 5.67269e-08 0
-2.89269e-07 4.19771e-08 0
-3.0422e-07 2.98751e-08 0
-3.17132e-07 2.05126e-08 0
-3.26752e-07 1.35962e-08 0
-3.33264e-07 8.70616e-09 0
-3.37383e-07 5.38656e-09 0
-3.39852e-07 3.21604e-09 0
-3.41265e-07 1.84602e-09 0
-3.42036e-07 1.01045e-09 0
-3.42435e-07 5.18405e-10 0
-3.42626e-07 2.3959e-10 0
-3.42706e-07 8.87932e-11 0
-3.42731e-07 1.2291e-11 0
-3.42729e-07 -2.26727e-11 0
-3.42716e-07 -3.54472e-11 0
-3.42701e-07 -3.70993e-11 0
-3.42686e-07 -3.37347e-11 0
-3.42674e-07 -2.85741e-11 0
-3.42664e-07 -2.32113e-11 0
-3.42656e-07 -1.83538e-11 0
-3.4265e-07 -1.42471e-11 0
-3.42645e-07 -1.09102e-11 0
-3.42642e-07 -8.26271e-12 0
-3.4264e-07 -6.18904e-12 0
-3.42638e-07 -4.56862e-12 0
-3.42637e-07 -3.28623e-12 0
-3.42637e-07 -2.22943e-12 0
-3.42637e-07 -1.27551e-12 0
-3.42638e-07 -2.70223e-13 0
-3.4264e-07 1.04098e-12 0
-3.42642e-07 3.31015e-12 0
-3.42646e-07 8.18802e-12 0
-3.42652e-07 1.81984e-11 0
-3.42661e-07 3.36594e-11 0
-3.42689e-07 5.54531e-11 0
0.0095342 -3.41273e-07 0
0 -5.85176e-07 0
2.38988e-10 3.58316e-08 0
-8.58643e-08 -5.50906e-08 0
-3.57198e-07 -2.89527e-07 0
-2.68897e-07 -3.14277e-07 0
2.89657e-08 -1.15752e-07 0
-6.63466e-08 -9.47448e-11 0
-1.08833e-07 -9.10639e-08 0
-2.68581e-07 -2.10302e-07 0
-3.01492e-07 -1.86274e-07 0
-3.29871e-07 -6.87086e-08 0
-3.36215e-07 4.82492e-08 0
-3.21353e-07 1.10321e-07 0
-2.92274e-07 1.10928e-07 0
-2.67595e-07 8.84208e-08 0
-2.55831e-07 6.47716e-08 0
-2.53648e-07 4.51091e-08 0
-2.55492e-07 3.00255e-08 0
-2.57994e-07 1.91584e-08 0
-2.59911e-07 1.17522e-08 0
-2.6107e-07 6.93823e-09 0
-2.61654e-07 3.93464e-09 0
-2.61888e-07 2.12887e-09 0
-2.61937e-07 1.08172e-09 0
-2.61903e-07 4.97375e-10 0
-2.61841e-07 1.85879e-10 0
-2.61776e-07 2.99154e-11 0
-2.6172e-07 -4.05796e-11 0
-2.61675e-07 -6.61667e-11 0
-2.61641e-07 -6.96009e-11 0
-2.61615e-07 -6.32082e-11 0
-2.61596e-07 -5.33761e-11 0
-2.61582e-07 -4.32082e-11 0
-2.61572e-07 -3.40523e-11 0
-2.61565e-07 -2.63582e-11 0
-2.6156e-07 -2.01455e-11 0
-2.61556e-07 -1.52505e-11 0
-2.61554e-07 -1.145e-11 0
-2.61552e-07 -8.51923e-12 0
-2.61551e-07 -6.25293e-12 0
-2.6155e-07 -4.46816e-12 0
-2.6155e-07 -2.99461e-12 0
-2.6155e-07 -1.64703e-12 0
-2.61551e-07 -1.66778e-13 0
-2.61552e-07 1.80653e-12 0
-2.61552e-07 4.58981e-12 0
-2.61553e-07 8.30426e-12 0
-2.61551e-07 1.34123e-11 0
-2.61547e-07 2.15081e-11 0
-2.61558e-07 3.45338e-11 0
0.0100275 -2.6606e-07 0
0 -1.12778e-06 0
1.58428e-10 -4.18506e-08 0
-9.34967e-08 -1.68212e-07 0
-3.79221e-07 -2.80028e-07 0
-4.04911e-07 -2.24595e-07 0
-5.14148e-11 -7.09561e-08 0
-2.2526e-10 -3.26712e-10 0
3.04713e-10 -3.32241e-10 0
-1.52445e-07 -1.38491e-07 0
-3.49195e-07 -2.38772e-07 0
-3.73378e-07 -1.15121e-07 0
-3.90929e-07 2.9471e-08 0
-3.93432e-07 9.60484e-08 0
-3.60374e-07 9.2299e-08 0
-3.15353e-07 7.06348e-08 0
-2.81153e-07 5.17466e-08 0
-2.61283e-07 3.63054e-08 0
-2.50852e-07 2.38868e-08 0
-2.45271e-07 1.46849e-08 0
-2.42021e-07 8.45883e-09 0
-2.39965e-07 4.55763e-09 0
-2.38603e-07 2.26414e-09 0
-2.3769e-07 9.91636e-10 0
-2.37082e-07 3.27557e-10 0
-2.36683e-07 7.44993e-12 0
-2.36424e-07 -1.27723e-10 0
-2.36258e-07 -1.68992e-10 0
-2.36152e-07 -1.66243e-10 0
-2.36085e-07 -1.4562e-10 0
-2.36042e-07 -1.20091e-10 0
-2.36015e-07 -9.55729e-11 0
-2.35998e-07 -7.43647e-11 0
-2.35987e-07 -5.70078e-11 0
-2.3598e-07 -4.32626e-11 0
-2.35975e-07 -3.26011e-11 0
-2.35972e-07 -2.44416e-11 0
-2.3597e-07 -1.82499e-11 0
-2.35969e-07 -1.35731e-11 0
-2.35968e-07 -1.00431e-11 0
-2.35968e-07 -7.36546e-12 0
-2.35968e-07 -5.30323e-12 0
-2.35968e-07 -3.66024e-12 0
-2.35968e-07 -2.28061e-12 0
-2.35968e-07 -1.07164e-12 0
-2.35968e-07 1.77154e-14 0
-2.35967e-07 1.11253e-12 0
-2.35966e-07 2.5253e-12 0
-2.35962e-07 4.79968e-12 0
-2.35957e-07 9.01597e-12 0
-2.35967e-07 1.60077e-11 0
0.0101079 -1.37155e-07 0
0 -1.00812e-06 0
9.07751e-11 -6.87593e-08 0
-1.16073e-07 -1.6583e-07 0
-3.93987e-07 -2.2722e-07 0
-4.94601e-07 -2.43512e-07 0
-1.71146e-07 -1.1338e-07 0
-2.44772e-10 2.84633e-10 0
1.70312e-11 -1.70312e-11 0
2.74036e-10 -3.32469e-10 0
-1.65568e-07 -1.02591e-07 0
-2.89321e-07 -1.14572e-07 0
-3.41475e-07 5.10088e-08 0
-4.15912e-07 1.19786e-07 0
-4.21717e-07 8.86793e-08 0
-3.71019e-07 4.94479e-08 0
-3.16658e-07 2.77842e-08 0
-2.80123e-07 1.59294e-08 0
-2.59237e-07 8.34474e-09 0
-2.47639e-07 3.54404e-09 0
-2.41045e-07 8.52037e-10 0
-2.37194e-07 -4.25547e-10 0
-2.34913e-07 -8.89204e-10 0
-2.33561e-07 -9.4848e-10 0
-2.32763e-07 -8.39769e-10 0
-2.32297e-07 -6.82771e-10 0
-2.32026e-07 -5.30396e-10 0
-2.31871e-07 -4.01532e-10 0
-2.31783e-07 -2.9953e-10 0
-2.31733e-07 -2.21621e-10 0
-2.31706e-07 -1.63294e-10 0
-2.31691e-07 -1.20108e-10 0
-2.31683e-07 -8.8319e-11 0
-2.3168e-07 -6.49792e-11 0
-2.31678e-07 -4.78536e-11 0
-2.31677e-07 -3.52805e-11 0
-2.31677e-07 -2.60377e-11 0
-2.31677e-07 -1.92313e-11 0
-2.31678e-07 -1.42086e-11 0
-2.31678e-07 -1.04928e-11 0
-2.31679e-07 -7.73644e-12 0
-2.31679e-07 -5.69014e-12 0
-2.31679e-07 -4.18203e-12 0
-2.3168e-07 -3.09379e-12 0
-2.3168e-07 -2.32927e-12 0
-2.3168e-07 -1.81391e-12 0
-2.3168e-07 -1.5371e-12 0
-2.31679e-07 -1.55408e-12 0
-2.31677e-07 -1.78262e-12 0
-2.31672e-07 -1.54766e-12 0
-2.31682e-07 -2.11881e-13 0
0.0101171 1.85494e-09 0
0 -7.14387e-07 0
8.90047e-11 -7.3617e-08 0
-1.1485e-07 -1.69723e-07 0
-3.85365e-07 -1.69522e-07 0
-5.15952e-07 -1.29611e-07 0
-3.79969e-07 -9.8797e-08 0
-1.18564e-07 -4.25905e-08 0
-2.68896e-10 3.01344e-10 0
-2.84094e-11 2.84094e-11 0
2.00144e-10 -3.43046e-10 0
-1.10318e-07 2.12691e-08 0
-2.00003e-07 1.46582e-07 0
-3.85775e-07 2.09847e-07 0
-4.77141e-07 1.09147e-07 0
-4.30411e-07 2.39762e-08 0
-3.49519e-07 -6.7292e-09 0
-2.93373e-07 -1.25911e-08 0
-2.63731e-07 -1.19537e-08 0
-2.49374e-07 -9.87892e-09 0
-2.42471e-07 -7.56665e-09 0
-2.39105e-07 -5.48143e-09 0
-2.37446e-07 -3.81962e-09 0
-2.36629e-07 -2.5987e-09 0
-2.36231e-07 -1.74692e-09 0
-2.36043e-07 -1.17064e-09 0
-2.35959e-07 -7.86908e-10 0
-2.35926e-07 -5.32784e-10 0
-2.35917e-07 -3.64205e-10 0
-2.35919e-07 -2.51641e-10 0
-2.35925e-07 -1.75762e-10 0
-2.35932e-07 -1.2404e-10 0
-2.35938e-07 -8.837e-11 0
-2.35944e-07 -6.34859e-11 0
-2.35949e-07 -4.59383e-11 0
-2.35953e-07 -3.3443e-11 0
-2.35956e-07 -2.44692e-11 0
-2.35958e-07 -1.79781e-11 0
-2.3596e-07 -1.32568e-11 0
-2.35962e-07 -9.81181e-12 0
-2.35963e-07 -7.30025e-12 0
-2.35964e-07 -5.48368e-12 0
-2.35965e-07 -4.19689e-12 0
-2.35966e-07 -3.33302e-12 0
-2.35967e-07 -2.84445e-12 0
-2.35967e-07 -2.75772e-12 0
-2.35968e-07 -3.22288e-12 0
-2.35968e-07 -4.60896e-12 0
-2.35966e-07 -7.40738e-12 0
-2.35963e-07 -1.16177e-11 0
-2.35973e-07 -1.64765e-11 0
0.0101079 1.40001e-07 0
0 -5.11286e-07 0
8.0571e-11 -7.6428e-08 0
-1.27896e-07 -1.60121e-07 0
-3.81351e-07 -1.35768e-07 0
-4.96785e-07 -6.7478e-08 0
-4.10077e-07 -3.92248e-08 0
-2.71362e-07 -9.19193e-08 0
-1.48176e-07 -6.81041e-08 0
-3.53376e-10 2.4817e-10 0
1.58185e-10 2.527e-10 0
-6.0238e-11 6.32241e-08 0
-5.33997e-08 2.75117e-07 0
-2.21203e-07 3.42065e-07 0
-3.95115e-07 1.45123e-07 0
-4.18114e-07 -8.3583e-09 0
-3.5762e-07 -4.64921e-08 0
-3.03521e-07 -3.98716e-08 0
-2.75387e-07 -2.79208e-08 0
-2.64135e-07 -1.85402e-08 0
-2.60543e-07 -1.19554e-08 0
-2.59832e-07 -7.54481e-09 0
-2.6002e-07 -4.70373e-09 0
-2.60391e-07 -2.92525e-09 0
-2.60724e-07 -1.82933e-09 0
-2.60974e-07 -1.15698e-09 0
-2.6115e-07 -7.42772e-10 0
-2.61271e-07 -4.85005e-10 0
-2.61353e-07 -3.22323e-10 0
-2.61409e-07 -2.17949e-10 0
-2.61448e-07 -1.49797e-10 0
-2.61475e-07 -1.04494e-10 0
-2.61495e-07 -7.38527e-11 0
-2.61508e-07 -5.27885e-11 0
-2.61518e-07 -3.80925e-11 0
-2.61526e-07 -2.77052e-11 0
-2.61531e-07 -2.02818e-11 0
-2.61535e-07 -1.49292e-11 0
-2.61538e-07 -1.10451e-11 0
-2.6154e-07 -8.21793e-12 0
-2.61542e-07 -6.16467e-12 0
-2.61544e-07 -4.69255e-12 0
-2.61545e-07 -3.67842e-12 0
-2.61547e-07 -3.06202e-12 0
-2.61548e-07 -2.85313e-12 0
-2.61549e-07 -3.15194e-12 0
-2.6155e-07 -4.20045e-12 0
-2.61551e-07 -6.58556e-12 0
-2.61552e-07 -1.15873e-11 0
-2.61551e-07 -2.08705e-11 0
-2.61563e-07 -3.44482e-11 0
0.0100275 2.64396e-07 0
0 -4.6161e-07 0
7.3231e-11 -6.94035e-08 0
-1.64739e-07 -1.42289e-07 0
-4.04343e-07 -1.11744e-07 0
-5.06558e-07 -4.74387e-08 0
-4.45177e-07 -1.07052e-08 0
-3.26558e-07 -4.64113e-08 0
-2.78956e-07 -1.63199e-07 0
-1.74e-07 -1.18912e-07 0
-2.74525e-07 -3.20309e-12 0
-4.14373e-07 8.22654e-08 0
-3.10889e-07 2.77099e-07 0
-1.41108e-07 3.38507e-07 0
-2.17619e-07 1.71076e-07 0
-3.3414e-07 4.35727e-09 0
-3.5647e-07 -4.85228e-08 0
-3.4291e-07 -4.22884e-08 0
-3.34371e-07 -2.65194e-08 0
-3.33376e-07 -1.51642e-08 0
-3.353e-07 -8.54661e-09 0
-3.3754e-07 -4.89136e-09 0
-3.39294e-07 -2.87594e-09 0
-3.40493e-07 -1.74294e-09 0
-3.41266e-07 -1.08772e-09 0
-3.41753e-07 -6.97087e-10 0
-3.42059e-07 -4.57375e-10 0
-3.42251e-07 -3.06393e-10 0
-3.42375e-07 -2.09059e-10 0
-3.42455e-07 -1.44977e-10 0
-3.42508e-07 -1.01973e-10 0
-3.42543e-07 -7.26073e-11 0
-3.42568e-07 -5.22382e-11 0
-3.42585e-07 -3.7911e-11 0
-3.42598e-07 -2.77099e-11 0
-3.42607e-07 -2.03715e-11 0
-3.42613e-07 -1.50476e-11 0
-3.42618e-07 -1.11602e-11 0
-3.42622e-07 -8.30982e-12 0
-3.42625e-07 -6.21817e-12 0
-3.42627e-07 -4.69201e-12 0
-3.42629e-07 -3.60144e-12 0
-3.4263e-07 -2.86937e-12 0
-3.42632e-07 -2.47168e-12 0
-3.42634e-07 -2.452e-12 0
-3.42635e-07 -2.95473e-12 0
-3.42637e-07 -4.26741e-12 0
-3.4264e-07 -7.01133e-12 0
-3.42643e-07 -1.30639e-11 0
-3.42648e-07 -2.70475e-11 0
-3.4267e-07 -5.30474e-11 0
0.00953406 3.27288e-07 0
0 -4.94816e-07 0
6.03983e-11 -4.10854e-08 0
-1.96366e-07 -8.40197e-08 0
-4.08103e-07 -6.37406e-08 0
-4.96101e-07 -3.20327e-08 0
-4.8743e-07 -3.92151e-08 0
-4.1902e-07 -8.14066e-08 0
-3.76388e-07 -1.27819e-07 0
-4.22603e-07 -3.26853e-09 0
-4.32337e-07 2.25577e-07 0
-4.65407e-07 2.09748e-07 0
-3.44079e-07 -1.43413e-08 0
-2.07802e-07 -1.49949e-07 0
-2.81646e-07 -1.11886e-07 0
-4.04459e-07 -2.40261e-08 0
-4.37031e-07 2.44551e-08 0
-4.25048e-07 2.89428e-08 0
-4.12972e-07 1.82118e-08 0
-4.08003e-07 8.75747e-09 0
-4.07111e-07 3.47987e-09 0
-4.07684e-07 1.07676e-09 0
-4.08539e-07 1.31345e-10 0
-4.09282e-07 -1.78577e-10 0
-4.09836e-07 -2.41119e-10 0
-4.10226e-07 -2.19849e-10 0
-4.10493e-07 -1.77826e-10 0
-4.10676e-07 -1.36868e-10 0
-4.10802e-07 -1.03009e-10 0
-4.10889e-07 -7.67402e-11 0
-4.1095e-07 -5.69301e-11 0
-4.10993e-07 -4.21798e-11 0
-4.11024e-07 -3.12537e-11 0
-4.11047e-07 -2.31744e-11 0
-4.11063e-07 -1.72004e-11 0
-4.11076e-07 -1.27785e-11 0
-4.11085e-07 -9.50186e-12 0
-4.11091e-07 -7.07197e-12 0
-4.11097e-07 -5.27028e-12 0
-4.11101e-07 -3.93765e-12 0
-4.11104e-07 -2.9601e-12 0
-4.11106e-07 -2.25973e-12 0
-4.11108e-07 -1.79084e-12 0
-4.1111e-07 -1.54192e-12 0
-4.11113e-07 -1.54674e-12 0
-4.11115e-07 -1.91452e-12 0
-4.11118e-07 -2.88112e-12 0
-4.11122e-07 -4.92399e-12 0
-4.11129e-07 -9.54856e-12 0
-4.11142e-07 -2.20699e-11 0
-4.11182e-07 -5.12708e-11 0
0.00727866 2.24933e-07 0
0 0 0
3.00145e-11 0 0
-1.00478e-07 0 0
-1.95393e-07 0 0
-2.35831e-07 0 0
-2.43457e-07 0 0
-2.45241e-07 0 0
-2.45624e-07 0 0
-2.48656e-07 0 0
-1.57854e-07 0 0
-5.10917e-08 0 0
-3.601e-08 0 0
-1.13807e-07 0 0
-2.1063e-07 0 0
-2.59542e-07 0 0
-2.5647e-07 0 0
-2.36916e-07 0 0
-2.21789e-07 0 0
-2.13861e-07 0 0
-2.10511e-07 0 0
-2.09366e-07 0 0
-2.09119e-07 0 0
-2.09183e-07 0 0
-2.09324e-07 0 0
-2.09461e-07 0 0
-2.09573e-07 0 0
-2.09658e-07 0 0
-2.09722e-07 0 0
-2.09769e-07 0 0
-2.09803e-07 0 0
-2.09828e-07 0 0
-2.09846e-07 0 0
-2.0986e-07 0 0
-2.0987e-07 0 0
-2.09877e-07 0 0
-2.09883e-07 0 0
-2.09887e-07 0 0
-2.0989e-07 0 0
-2.09893e-07 0 0
-2.09895e-07 0 0
-2.09896e-07 0 0
-2.09898e-07 0 0
-2.09899e-07 0 0
-2.099e-07 0 0
-2.09901e-07 0 0
-2.09903e-07 0 0
-2.09905e-07 0 0
-2.0991e-07 0 0
-2.09919e-07 0 0
-2.09944e-07 0 0
0.00272274 0 0
0 0 5.37738e-07
1.2874e-10 0 7.91884e-08
-3.05614e-07 0 1.78022e-07
-7.14354e-07 0 8.65335e-08
-9.88456e-07 0 -2.94382e-07
-2.09096e-07 0 -4.33274e-07
1.05496e-07 0 -2.24414e-07
1.85846e-07 0 -7.54866e-08
1.20192e-07 0 2.09512e-08
-2.66923e-08 0 3.63577e-08
-1.58908e-07 0 1.09821e-08
-2.45e-07 0 -1.04139e-08
-2.95613e-07 0 -1.54038e-08
-3.26166e-07 0 -1.11316e-08
-3.47092e-07 0 -5.45356e-09
-3.64081e-07 0 -1.51749e-09
-3.78518e-07 0 4.26612e-10
-3.90148e-07 0 1.05557e-09
-3.98841e-07 0 1.04343e-09
-4.04921e-07 0 8.11267e-10
-4.08947e-07 0 5.5943e-10
-4.11494e-07 0 3.58276e-10
-4.1304e-07 0 2.18065e-10
-4.1394e-07 0 1.278e-10
-4.14442e-07 0 7.26924e-11
-4.14706e-07 0 4.03257e-11
-4.14835e-07 0 2.18844e-11
-4.14888e-07 0 1.16416e-11
-4.14903e-07 0 6.08038e-12
-4.14899e-07 0 3.12532e-12
-4.14888e-07 0 1.58841e-12
-4.14874e-07 0 8.06468e-13
-4.14862e-07 0 4.17484e-13
-4.14851e-07 0 2.28155e-13
-4.14842e-07 0 1.37632e-13
-4.14835e-07 0 9.47484e-14
-4.1483e-07 0 7.45707e-14
-4.14826e-07 0 6.58977e-14
-4.14823e-07 0 6.48691e-14
-4.14821e-07 0 7.2001e-14
-4.1482e-07 0 9.12946e-14
-4.14819e-07 0 1.30697e-13
-4.14819e-07 0 2.03217e-13
-4.1482e-07 0 3.31473e-13
-4.14821e-07 0 5.61672e-13
-4.14822e-07 0 9.28173e-13
-4.14826e-07 0 1.28369e-12
-4.14833e-07 0 1.92447e-12
-4.14849e-07 0 8.37298e-12
-4.14893e-07 0 3.60677e-11
0.00727015 0 -1.6938e-07
0.0036 5.75047e-08 1.63517e-07
0.00359964 -0.00158589 -0.000275794
0.0074581 -0.00492435 -0.00120663
0.0155368 -0.00841407 -0.0029408
0.0272839 -0.0132766 -0.00487509
0.0465171 -0.00939358 -0.00361666
0.0488738 -0.00034873 -0.000681968
0.0482404 0.00334753 0.000555648
0.0429361 0.00516314 0.000773447
0.0373185 0.00490136 0.000271562
0.0323446 0.00394478 -0.000191203
0.0282791 0.00290433 -0.000362668
0.0252502 0.00200115 -0.000319796
0.023179 0.00131557 -0.000205951
0.0218375 0.000843334 -0.000107738
0.020995 0.000532761 -4.7415e-05
0.0204781 0.00033153 -1.72154e-05
0.0201678 0.000202705 -4.38345e-06
0.0199856 0.000121641 1.2996e-07
0.0198809 7.16472e-05 1.21714e-06
0.019822 4.14326e-05 1.13117e-06
0.0197898 2.35213e-05 7.75853e-07
0.0197726 1.30974e-05 4.53641e-07
0.0197638 7.1394e-06 2.31063e-07
0.0197596 3.79626e-06 9.72676e-08
0.0197577 1.95712e-06 2.50413e-08
0.019757 9.67841e-07 -9.53647e-09
0.0197569 4.49962e-07 -2.30856e-08
0.019757 1.88256e-07 -2.58835e-08
0.0197571 6.24521e-08 -2.37973e-08
0.0197573 6.59755e-09 -1.99464e-08
0.0197575 -1.47054e-08 -1.58588e-08
0.0197576 -1.99676e-08 -1.21943e-08
0.0197577 -1.8546e-08 -9.16808e-09
0.0197578 -1.49484e-08 -6.78617e-09
0.0197578 -1.11883e-08 -4.96957e-09
0.0197579 -8.04651e-09 -3.61668e-09
0.0197579 -5.73298e-09 -2.63243e-09
0.0197579 -4.2231e-09 -1.94163e-09
0.0197579 -3.4239e-09 -1.49637e-09
0.019758 -3.25454e-09 -1.28359e-09
0.019758 -3.68963e-09 -1.33729e-09
0.019758 -4.79528e-09 -1.75737e-09
0.019758 -6.76654e-09 -2.71473e-09
0.019758 -1.00358e-08 -4.45247e-09
0.019758 -1.59055e-08 -7.53721e-09
0.0197581 -2.63382e-08 -1.12181e-08
0.0197582 -4.23558e-08 -7.706e-09
0.0197584 -1.20792e-07 -3.4701e-08
0.0197588 -4.59633e-07 -2.73986e-07
0.0197594 -7.29552e-07 -4.81141e-07
0.01 4.67871e-08 -9.43375e-07
0.0100012 -0.00353762 -0.0007436
0.0151104 -0.0111235 -0.00206302
0.0241355 -0.0186254 -0.00373184
0.0368526 -0.028712 -0.00442489
0.0559917 -0.0194904 -0.00122568
0.0545463 -0.00111352 0.00181182
0.0549364 0.00590024 0.00221072
0.0493284 0.0107934 0.00190386
0.0434675 0.0106587 0.000809226
0.0384464 0.00924931 -0.000142318
0.0342509 0.00731986 -0.000520876
0.0311547 0.00526828 -0.000498831
0.0291365 0.00351197 -0.000333079
0.0278936 0.00223218 -0.000177707
0.0271496 0.00137846 -7.93343e-05
0.0267156 0.000832633 -2.91891e-05
0.0264696 0.000492806 -7.46912e-06
0.0263345 0.000285885 4.02344e-07
0.0262629 0.000162467 2.43141e-06
0.0262266 9.0305e-05 2.36998e-06
0.0262093 4.89362e-05 1.7674e-06
0.0262018 2.57016e-05 1.17223e-06
0.0261993 1.29424e-05 7.26767e-07
0.026199 6.11891e-06 4.30711e-07
0.0261997 2.59066e-06 2.46786e-07
0.0262006 8.50169e-07 1.37493e-07
0.0262014 5.28836e-08 7.46371e-08
0.0262022 -2.64743e-07 3.94351e-08
0.0262028 -3.51157e-07 2.01849e-08
0.0262033 -3.35616e-07 9.90709e-09
0.0262036 -2.82683e-07 4.56585e-09
0.0262039 -2.22677e-07 1.88344e-09
0.026204 -1.68363e-07 6.00392e-10
0.0262042 -1.23918e-07 3.33378e-11
0.0262043 -8.96075e-08 -1.81745e-10
0.0262043 -6.41635e-08 -2.35539e-10
0.0262044 -4.59156e-08 -2.27561e-10
0.0262044 -3.33005e-08 -2.12983e-10
0.0262044 -2.50608e-08 -2.31324e-10
0.0262044 -2.03107e-08 -3.27043e-10
0.0262045 -1.85673e-08 -5.67346e-10
0.0262045 -1.98304e-08 -1.06319e-09
0.0262045 -2.48161e-08 -1.97254e-09
0.0262045 -3.52496e-08 -3.32681e-09
0.0262046 -5.50631e-08 -4.98963e-09
0.0262046 -1.00976e-07 -6.80926e-09
0.0262048 -2.18244e-07 -3.17284e-09
0.026205 -4.39117e-07 -4.8555e-08
0.0262053 -7.77171e-07 -3.84128e-07
0.0262056 -9.7874e-07 -6.69843e-07
0.0148 -9.25407e-07 -1.24136e-06
0.0148026 -0.00560219 -0.00125435
0.019614 -0.0165426 -0.00343177
0.0255823 -0.0269261 -0.00535024
0.029873 -0.041114 -0.00504296
0.0284156 -0.0251466 -0.000807478
0.0261 -1.0648e-05 0.00194068
0.0263252 0.00773555 0.00206704
0.0310643 0.0161277 0.00197247
0.0311461 0.0157629 0.00104354
0.0297322 0.0134348 0.000168758
0.0284629 0.0105183 -0.000281796
0.0276818 0.00736394 -0.000346977
0.027411 0.00472734 -0.000247387
0.0273641 0.00290542 -0.000126515
0.0273895 0.00174161 -4.54278e-05
0.0274347 0.00102109 -5.73681e-06
0.0274819 0.000584915 8.49686e-06
0.0275236 0.000326881 1.08625e-05
0.0275573 0.000177786 9.01671e-06
0.0275828 9.36501e-05 6.37516e-06
0.0276011 4.73236e-05 4.1356e-06
0.027614 2.25034e-05 2.54109e-06
0.0276228 9.64231e-06 1.50354e-06
0.0276288 3.27379e-06 8.64758e-07
0.0276327 3.33593e-07 4.86041e-07
0.0276354 -8.59423e-07 2.67663e-07
0.0276372 -1.20597e-06 1.44487e-07
0.0276383 -1.17497e-06 7.63143e-08
0.0276391 -1.00134e-06 3.9254e-08
0.0276397 -7.96163e-07 1.94817e-08
0.02764 -6.06985e-07 9.16151e-09
0.0276403 -4.50086e-07 3.92565e-09
0.0276404 -3.27371e-07 1.37543e-09
0.0276405 -2.34916e-07 2.12321e-10
0.0276406 -1.6709e-07 -2.5605e-10
0.0276407 -1.18392e-07 -3.9285e-10
0.0276407 -8.41623e-08 -3.85733e-10
0.0276407 -6.07584e-08 -3.3221e-10
0.0276407 -4.55206e-08 -2.88429e-10
0.0276408 -3.66877e-08 -2.99526e-10
0.0276408 -3.33593e-08 -4.18954e-10
0.0276408 -3.55687e-08 -7.08247e-10
0.0276408 -4.47227e-08 -1.21953e-09
0.0276408 -6.54907e-08 -2.08302e-09
0.0276409 -1.08289e-07 -4.01526e-09
0.0276409 -1.8297e-07 -8.95483e-09
0.027641 -2.92257e-07 -1.62212e-08
0.027641 -4.43522e-07 -8.45352e-08
0.0276411 -6.46056e-07 -4.3815e-07
0.027641 -7.60609e-07 -7.27252e-07
0.018 -2.01001e-06 -1.53391e-06
0.0180025 -0.0065809 -0.0020667
0.0199837 -0.0174252 -0.00562825
0.0198147 -0.0225384 -0.00707328
0.0158982 -0.0243075 -0.00644407
-1.12445e-06 -0.0126219 -0.00293348
0.000102574 3.43164e-05 5.89167e-07
-3.96995e-05 4.18823e-05 0.000393321
0.00755979 0.00533206 0.000790111
0.0158456 0.0118208 0.00065331
0.0191744 0.0120515 0.00029652
0.0207659 0.00958115 -6.07214e-05
0.022497 0.00650272 -0.00021395
0.0241778 0.0039454 -0.000178953
0.0254841 0.0023088 -8.66721e-05
0.0263782 0.00132552 -1.70715e-05
0.0269544 0.000740544 1.53508e-05
0.0273158 0.000398542 2.31628e-05
0.027539 0.000204711 2.022e-05
0.0276751 9.8896e-05 1.45584e-05
0.0277572 4.34693e-05 9.46584e-06
0.0278063 1.58225e-05 5.77556e-06
0.0278353 2.93079e-06 3.37258e-06
0.0278524 -2.4341e-06 1.90512e-06
0.0278625 -4.14991e-06 1.04671e-06
0.0278684 -4.22708e-06 5.60157e-07
0.0278719 -3.66712e-06 2.91309e-07
0.0278739 -2.94213e-06 1.46135e-07
0.0278751 -2.25529e-06 6.95858e-08
0.0278758 -1.67869e-06 3.03441e-08
0.0278762 -1.22447e-06 1.098e-08
0.0278765 -8.80226e-07 1.9695e-09
0.0278766 -6.25959e-07 -1.80156e-09
0.0278767 -4.41569e-07 -3.02868e-09
0.0278768 -3.09718e-07 -3.10081e-09
0.0278768 -2.16546e-07 -2.71225e-09
0.0278769 -1.51469e-07 -2.19519e-09
0.0278769 -1.06665e-07 -1.69839e-09
0.0278769 -7.65217e-08 -1.28323e-09
0.0278769 -5.71584e-08 -9.76418e-10
0.0278769 -4.60816e-08 -8.0172e-10
0.0278769 -4.20068e-08 -8.07766e-10
0.0278769 -4.4932e-08 -1.11567e-09
0.0278769 -5.62302e-08 -1.988e-09
0.0278769 -7.75808e-08 -4.04598e-09
0.0278769 -1.09209e-07 -9.22181e-09
0.0278769 -1.50443e-07 -2.00549e-08
0.0278769 -1.99668e-07 -3.30358e-08
0.0278768 -2.615e-07 -1.06822e-07
0.0278768 -3.4566e-07 -4.57255e-07
0.0278766 -3.94278e-07 -7.39877e-07
0.0196 -2.48798e-06 -2.54476e-06
0.0196008 -0.00514323 -0.00284851
0.0190718 -0.0116787 -0.00697781
0.0163277 -0.0139606 -0.007457
0.0117606 -0.0123519 -0.00628041
0.00252658 -0.00492932 -0.00370649
7.79453e-05 -7.18942e-05 -0.000751313
3.21947e-05 -3.21947e-05 -5.05196e-08
-3.85445e-05 4.08545e-05 0.000100178
0.0053018 0.00399462 0.000211608
0.0117687 0.0084913 0.000169213
0.0145631 0.00727518 -4.63403e-05
0.0180442 0.00407096 -0.000249304
0.0214022 0.00183104 -0.000247118
0.0239445 0.000748345 -0.000143508
0.0255932 0.000280422 -4.54061e-05
0.026582 7.67587e-05 6.35464e-06
0.0271563 -1.02613e-05 2.17172e-05
0.0274851 -4.16813e-05 2.03899e-05
0.0276715 -4.70413e-05 1.45931e-05
0.0277762 -4.17144e-05 9.20412e-06
0.0278345 -3.33007e-05 5.3903e-06
0.0278667 -2.51192e-05 3.001e-06
0.0278842 -1.83237e-05 1.60492e-06
0.0278938 -1.30927e-05 8.2604e-07
0.0278989 -9.2327e-06 4.0659e-07
0.0279016 -6.45545e-06 1.87787e-07
0.027903 -4.48814e-06 7.75433e-08
0.0279037 -3.10827e-06 2.44729e-08
0.027904 -2.14661e-06 6.91092e-10
0.0279042 -1.47929e-06 -8.58933e-09
0.0279043 -1.01765e-06 -1.1035e-08
0.0279043 -6.99058e-07 -1.0518e-08
0.0279043 -4.79691e-07 -8.9253e-09
0.0279043 -3.29021e-07 -7.12742e-09
0.0279043 -2.25887e-07 -5.48801e-09
0.0279042 -1.55671e-07 -4.12868e-09
0.0279042 -1.08326e-07 -3.06458e-09
0.0279042 -7.70077e-08 -2.27417e-09
0.0279042 -5.71285e-08 -1.73851e-09
0.0279042 -4.57255e-08 -1.47211e-09
0.0279042 -4.09886e-08 -1.56216e-09
0.0279042 -4.17484e-08 -2.24077e-09
0.0279042 -4.68741e-08 -3.98352e-09
0.0279042 -5.49044e-08 -7.51699e-09
0.0279042 -6.35357e-08 -1.43193e-08
0.0279041 -6.87696e-08 -2.64142e-08
0.0279041 -6.35375e-08 -3.95535e-08
0.027904 -4.33236e-08 -1.12579e-07
0.027904 -1.43689e-08 -4.60267e-07
0.0279038 7.40456e-10 -7.40547e-07
0.0196 -1.26232e-06 -3.42215e-06
0.0196002 -0.00305252 -0.00316714
0.0190544 -0.00637567 -0.00703192
0.0178454 -0.00591408 -0.00705011
0.0144448 -0.00230868 -0.00557652
0.0106599 0.00370698 -0.00383124
0.00666891 0.00342599 -0.0017642
7.80002e-05 -6.57882e-05 -0.000327718
2.72437e-05 -2.72437e-05 -1.29997e-07
-3.71592e-05 3.99297e-05 2.6635e-05
0.00398416 0.00276029 0.000325319
0.00864302 0.00336124 0.000343488
0.0144766 -0.00019245 -0.000116994
0.0197433 -0.00181987 -0.000350496
0.0234489 -0.0018034 -0.000298874
0.0255977 -0.00128419 -0.000149623
0.0267228 -0.000822143 -4.58012e-05
0.0272951 -0.000513068 -2.88726e-06
0.0275859 -0.000319243 7.80669e-06
0.0277337 -0.000198593 7.48017e-06
0.0278084 -0.000123522 4.97052e-06
0.0278457 -7.69259e-05 2.84619e-06
0.0278639 -4.80706e-05 1.48565e-06
0.0278725 -3.02037e-05 7.14286e-07
0.0278764 -1.91105e-05 3.08976e-07
0.0278779 -1.21868e-05 1.09273e-07
0.0278783 -7.83476e-06 1.79676e-08
0.0278783 -5.0766e-06 -1.90696e-08
0.0278781 -3.31336e-06 -3.04125e-08
0.0278778 -2.17646e-06 -3.05191e-08
0.0278776 -1.43749e-06 -2.63966e-08
0.0278774 -9.53709e-07 -2.12548e-08
0.0278773 -6.35049e-07 -1.64338e-08
0.0278772 -4.24145e-07 -1.239e-08
0.0278771 -2.84105e-07 -9.18869e-09
0.0278771 -1.91005e-07 -6.74133e-09
0.027877 -1.29216e-07 -4.91674e-09
0.027877 -8.84726e-08 -3.59042e-09
0.027877 -6.20045e-08 -2.6674e-09
0.0278769 -4.53231e-08 -2.09727e-09
0.0278769 -3.53847e-08 -1.89322e-09
0.0278769 -2.99683e-08 -2.16109e-09
0.0278769 -2.71799e-08 -3.1314e-09
0.0278769 -2.49724e-08 -5.18125e-09
0.0278769 -2.05734e-08 -8.89386e-09
0.0278768 -9.7799e-09 -1.56966e-08
0.0278768 1.44324e-08 -2.76837e-08
0.0278768 6.56286e-08 -3.98575e-08
0.0278767 1.63237e-07 -1.09081e-07
0.0278767 3.10735e-07 -4.54044e-07
0.0278765 3.95267e-07 -7.345e-07
0.018 -7.75608e-07 -3.3591e-06
0.018001 -0.00137664 -0.0031174
0.018561 -0.00221141 -0.00667536
0.0191302 -0.000617902 -0.00628709
0.0188073 0.00223523 -0.00467332
0.0187945 0.00775138 -0.00319331
0.0192084 0.0127842 -0.00177026
0.0118298 0.00705035 -0.000797502
7.98138e-05 -5.17625e-05 -0.000272798
-3.01035e-05 -5.93101e-05 4.98514e-07
8.09204e-06 -0.000278987 0.000900842
0.00947983 -0.00330412 0.00133623
0.0171961 -0.00689385 0.000433055
0.0222693 -0.00692159 -0.000195718
0.0252445 -0.00493684 -0.000353832
0.0267234 -0.00290866 -0.000241757
0.0273505 -0.00159204 -0.000112783
0.0275855 -0.000868866 -4.2578e-05
0.0276618 -0.000482785 -1.41983e-05
0.0276792 -0.000272663 -4.40681e-06
0.027677 -0.000155879 -1.35205e-06
0.0276697 -9.00611e-05 -4.73575e-07
0.0276624 -5.25913e-05 -2.3571e-07
0.0276564 -3.10573e-05 -1.65908e-07
0.0276518 -1.8556e-05 -1.33072e-07
0.0276486 -1.12184e-05 -1.06973e-07
0.0276462 -6.86122e-06 -8.34434e-08
0.0276446 -4.24279e-06 -6.31773e-08
0.0276434 -2.65037e-06 -4.67592e-08
0.0276426 -1.67066e-06 -3.40677e-08
0.0276421 -1.06134e-06 -2.45674e-08
0.0276417 -6.78625e-07 -1.76043e-08
0.0276414 -4.36182e-07 -1.2569e-08
0.0276412 -2.81527e-07 -8.95802e-09
0.0276411 -1.82383e-07 -6.38274e-09
0.027641 -1.1867e-07 -4.55552e-09
0.0276409 -7.77662e-08 -3.27045e-09
0.0276409 -5.16541e-08 -2.38675e-09
0.0276408 -3.51697e-08 -1.81818e-09
0.0276408 -2.48983e-08 -1.52992e-09
0.0276408 -1.84427e-08 -1.54353e-09
0.0276408 -1.38882e-08 -1.95167e-09
0.0276408 -9.33986e-09 -2.94953e-09
0.0276408 -2.43437e-09 -4.86342e-09
0.0276407 1.03038e-08 -8.18545e-09
0.0276407 3.43309e-08 -1.42198e-08
0.0276407 7.85377e-08 -2.5087e-08
0.0276407 1.61669e-07 -3.5e-08
0.0276407 3.25433e-07 -9.53967e-08
0.0276408 5.96988e-07 -4.31556e-07
0.0276407 7.59427e-07 -7.10404e-07
0.0148 -4.88411e-07 -2.90311e-06
0.0148016 -0.000471082 -0.00292858
0.0166869 -0.000162101 -0.00600608
0.0191686 0.00171733 -0.00528081
0.02144 0.00438816 -0.00370472
0.0235503 0.0075759 -0.00263721
0.0269491 0.0126776 -0.00174286
0.0299787 0.0200599 -0.000948558
0.0243213 0.0119789 -0.000136356
0.0248818 9.15523e-11 0.000503385
0.0289858 -0.00710399 0.00163306
0.0339504 -0.0143484 0.00249153
0.0343469 -0.0130464 0.00167866
0.0321052 -0.00967445 0.000449536
0.0297377 -0.00603521 -0.000296437
0.0281714 -0.00324866 -0.000383687
0.0272906 -0.00161854 -0.000232533
0.0268129 -0.000799419 -0.000107456
0.0265514 -0.000404715 -4.41186e-05
0.0264057 -0.000211288 -1.721e-05
0.0263231 -0.000113319 -6.57973e-06
0.0262755 -6.2121e-05 -2.50434e-06
0.0262477 -3.46639e-05 -9.56118e-07
0.0262311 -1.96281e-05 -3.6586e-07
0.0262212 -1.12525e-05 -1.38109e-07
0.026215 -6.51965e-06 -4.89057e-08
0.0262112 -3.8119e-06 -1.37138e-08
0.0262089 -2.2457e-06 -1.31861e-10
0.0262073 -1.33089e-06 4.60251e-09
0.0262063 -7.91912e-07 5.69678e-09
0.0262057 -4.72025e-07 5.35213e-09
0.0262053 -2.81071e-07 4.51981e-09
0.026205 -1.66655e-07 3.60837e-09
0.0262048 -9.80245e-08 2.78194e-09
0.0262047 -5.69646e-08 2.09171e-09
0.0262046 -3.25901e-08 1.53779e-09
0.0262046 -1.83382e-08 1.09815e-09
0.0262045 -1.02064e-08 7.40777e-10
0.0262045 -5.69729e-09 4.26544e-10
0.0262045 -3.16483e-09 1.05521e-10
0.0262045 -1.37558e-09 -2.93616e-10
0.0262045 8.2935e-10 -8.82105e-10
0.0262045 4.85987e-09 -1.84032e-09
0.0262045 1.27655e-08 -3.4473e-09
0.0262045 2.78426e-08 -6.09738e-09
0.0262045 5.57489e-08 -1.07771e-08
0.0262045 1.05832e-07 -1.91589e-08
0.0262045 1.97021e-07 -2.59886e-08
0.0262046 3.90384e-07 -7.41429e-08
0.0262048 7.48565e-07 -3.83291e-07
0.026205 9.72633e-07 -6.4586e-07
0.01 -9.34057e-07 -2.59519e-06
0.0100007 -0.000279007 -0.00247292
0.0121239 0.000133887 -0.00473818
0.0152801 0.0014243 -0.00373339