# vtk DataFile Version 2.0
Tobias Weinzierl: CPU, Manycore and Cluster Computing
ASCII

DATASET STRUCTURED_POINTS
DIMENSIONS  51 11 6

ORIGIN 0 0 0 

SPACING 0.1 0.1 0.1 

POINT_DATA 3366

VECTORS velocity float
0 0 0
2.21669e-11 0 0
-2.08264e-07 0 0
-3.78231e-07 0 0
-3.79519e-07 0 0
-9.44923e-08 0 0
-9.46153e-09 0 0
-3.2054e-08 0 0
-1.11458e-07 0 0
-2.01741e-07 0 0
-2.51033e-07 0 0
-2.61258e-07 0 0
-2.54719e-07 0 0
-2.46427e-07 0 0
-2.41776e-07 0 0
-2.40985e-07 0 0
-2.42433e-07 0 0
-2.44611e-07 0 0
-2.46667e-07 0 0
-2.48281e-07 0 0
-2.49422e-07 0 0
-2.50171e-07 0 0
-2.50635e-07 0 0
-2.50907e-07 0 0
-2.51056e-07 0 0
-2.5113e-07 0 0
-2.51161e-07 0 0
-2.51168e-07 0 0
-2.51162e-07 0 0
-2.5115e-07 0 0
-2.51135e-07 0 0
-2.5112e-07 0 0
-2.51106e-07 0 0
-2.51093e-07 0 0
-2.51081e-07 0 0
-2.5107e-07 0 0
-2.5106e-07 0 0
-2.51051e-07 0 0
-2.51044e-07 0 0
-2.51037e-07 0 0
-2.51031e-07 0 0
-2.51025e-07 0 0
-2.5102e-07 0 0
-2.51015e-07 0 0
-2.51012e-07 0 0
-2.51009e-07 0 0
-2.51007e-07 0 0
-2.51007e-07 0 0
-2.51008e-07 0 0
-2.51026e-07 0 0
0.00285417 0 0
0 4.74758e-07 0
1.23635e-10 1.11615e-07 0
-3.94803e-07 1.88522e-07 0
-7.40322e-07 1.25221e-07 0
-6.97513e-07 6.62814e-08 0
-2.14088e-07 8.06664e-08 0
-7.0781e-08 1.42269e-07 0
-7.7269e-08 1.47768e-07 0
-1.43687e-07 1.32672e-07 0
-2.77192e-07 1.04271e-07 0
-3.67557e-07 5.56123e-08 0
-3.98572e-07 1.86759e-08 0
-4.0512e-07 1.66092e-09 0
-4.0978e-07 -2.31656e-09 0
-4.19103e-07 -6.98418e-10 0
-4.31843e-07 1.73741e-09 0
-4.44726e-07 3.04885e-09 0
-4.55582e-07 3.19982e-09 0
-4.63733e-07 2.71962e-09 0
-4.69393e-07 2.04933e-09 0
-4.73106e-07 1.42394e-09 0
-4.75435e-07 9.29818e-10 0
-4.76839e-07 5.75412e-10 0
-4.77655e-07 3.37755e-10 0
-4.7811e-07 1.8664e-10 0
-4.7835e-07 9.49883e-11 0
-4.78466e-07 4.1985e-11 0
-4.78513e-07 1.29799e-11 0
-4.78522e-07 -1.73242e-12 0
-4.78511e-07 -8.29044e-12 0
-4.78491e-07 -1.0427e-11 0
-4.78468e-07 -1.03298e-11 0
-4.78443e-07 -9.23214e-12 0
-4.7842e-07 -7.79687e-12 0
-4.78398e-07 -6.35713e-12 0
-4.78377e-07 -5.06197e-12 0
-4.78359e-07 -3.96199e-12 0
-4.78343e-07 -3.05827e-12 0
-4.78328e-07 -2.32926e-12 0
-4.78315e-07 -1.74463e-12 0
-4.78303e-07 -1.27134e-12 0
-4.78292e-07 -8.74704e-13 0
-4.78282e-07 -5.14835e-13 0
-4.78273e-07 -1.33013e-13 0
-4.78266e-07 3.81474e-13 0
-4.78261e-07 1.20871e-12 0
-4.7826e-07 2.62008e-12 0
-4.78262e-07 5.99329e-12 0
-4.78269e-07 1.90636e-11 0
-4.78304e-07 5.98952e-11 0
0.00753267 -2.96587e-07 0
0 4.76638e-08 0
2.75502e-10 1.35063e-07 0
-2.80477e-07 1.63844e-07 0
-5.92767e-07 -6.24846e-09 0
-4.22567e-07 -4.70004e-09 0
-1.02641e-07 1.23685e-07 0
-1.48492e-07 1.77358e-07 0
-1.85864e-07 7.62774e-08 0
-1.79616e-07 -2.6356e-09 0
-2.20315e-07 2.43557e-08 0
-2.70328e-07 5.52288e-08 0
-2.85277e-07 8.27708e-08 0
-2.92087e-07 9.05504e-08 0
-3.00371e-07 7.79104e-08 0
-3.1437e-07 5.94666e-08 0
-3.32088e-07 4.31815e-08 0
-3.49105e-07 3.03504e-08 0
-3.62763e-07 2.06797e-08 0
-3.72538e-07 1.36688e-08 0
-3.79015e-07 8.77632e-09 0
-3.83075e-07 5.48122e-09 0
-3.85513e-07 3.33278e-09 0
-3.86925e-07 1.97281e-09 0
-3.87715e-07 1.13516e-09 0
-3.8814e-07 6.32403e-10 0
-3.88358e-07 3.38279e-10 0
-3.8846e-07 1.70788e-10 0
-3.88499e-07 7.83113e-11 0
-3.88505e-07 2.92214e-11 0
-3.88494e-07 4.59625e-12 0
-3.88476e-07 -6.63465e-12 0
-3.88454e-07 -1.08062e-11 0
-3.88432e-07 -1.14585e-11 0
-3.88411e-07 -1.05143e-11 0
-3.8839e-07 -8.97991e-12 0
-3.88371e-07 -7.35272e-12 0
-3.88354e-07 -5.85514e-12 0
-3.88339e-07 -4.56573e-12 0
-3.88325e-07 -3.49063e-12 0
-3.88313e-07 -2.60053e-12 0
-3.88301e-07 -1.84664e-12 0
-3.8829e-07 -1.16204e-12 0
-3.88281e-07 -4.50363e-13 0
-3.88272e-07 4.4044e-13 0
-3.88265e-07 1.81317e-12 0
-3.8826e-07 4.45342e-12 0
-3.88258e-07 1.0191e-11 0
-3.88257e-07 2.17459e-11 0
-3.88255e-07 3.96726e-11 0
-3.8827e-07 6.59169e-11 0
0.00974316 -3.84104e-07 0
0 -5.75442e-07 0
3.47033e-10 6.23474e-08 0
-1.67293e-07 -3.11445e-08 0
-4.72633e-07 -2.915e-07 0
-3.04914e-07 -2.86964e-07 0
1.69586e-08 -8.91187e-08 0
-8.73465e-08 -2.14837e-10 0
-1.40653e-07 -1.21158e-07 0
-3.40468e-07 -2.5855e-07 0
-3.66742e-07 -2.00909e-07 0
-3.78688e-07 -4.96198e-08 0
-3.69492e-07 7.8472e-08 0
-3.48219e-07 1.33231e-07 0
-3.19123e-07 1.22944e-07 0
-2.98427e-07 9.40824e-08 0
-2.90859e-07 6.72912e-08 0
-2.91292e-07 4.60884e-08 0
-2.94351e-07 3.03587e-08 0
-2.97321e-07 1.93071e-08 0
-2.99409e-07 1.19021e-08 0
-3.00651e-07 7.13332e-09 0
-3.01301e-07 4.1626e-09 0
-3.01598e-07 2.36423e-09 0
-3.01705e-07 1.3032e-09 0
-3.01719e-07 6.92317e-10 0
-3.01694e-07 3.49311e-10 0
-3.01655e-07 1.62091e-10 0
-3.01613e-07 6.34857e-11 0
-3.01574e-07 1.41346e-11 0
-3.01539e-07 -8.56399e-12 0
-3.01507e-07 -1.73327e-11 0
-3.01479e-07 -1.91817e-11 0
-3.01454e-07 -1.78762e-11 0
-3.01431e-07 -1.53704e-11 0
-3.0141e-07 -1.26272e-11 0
-3.01391e-07 -1.008e-11 0
-3.01374e-07 -7.88828e-12 0
-3.01359e-07 -6.07593e-12 0
-3.01345e-07 -4.60401e-12 0
-3.01333e-07 -3.40562e-12 0
-3.01321e-07 -2.39907e-12 0
-3.01311e-07 -1.48508e-12 0
-3.01301e-07 -5.22961e-13 0
-3.01292e-07 7.18451e-13 0
-3.01284e-07 2.56466e-12 0
-3.01277e-07 5.30777e-12 0
-3.0127e-07 9.19868e-12 0
-3.01261e-07 1.50429e-11 0
-3.01244e-07 2.48343e-11 0
-3.01239e-07 4.0732e-11 0
0.0101884 -2.92538e-07 0
0 -1.10964e-06 0
2.63989e-10 -3.05543e-08 0
-1.71338e-07 -1.64962e-07 0
-4.99595e-07 -2.96215e-07 0
-4.65086e-07 -2.27521e-07 0
-2.38112e-10 -6.61841e-08 0
-9.24419e-10 -1.34842e-09 0
7.90649e-10 -1.12609e-09 0
-1.93084e-07 -1.63862e-07 0
-4.13173e-07 -2.67914e-07 0
-4.2426e-07 -1.08199e-07 0
-4.37205e-07 5.1836e-08 0
-4.34113e-07 1.13322e-07 0
-3.94284e-07 1.01543e-07 0
-3.48377e-07 7.66194e-08 0
-3.16708e-07 5.57429e-08 0
-2.99209e-07 3.86425e-08 0
-2.90128e-07 2.52119e-08 0
-2.85216e-07 1.55533e-08 0
-2.82324e-07 9.15264e-09 0
-2.80497e-07 5.17055e-09 0
-2.79301e-07 2.80935e-09 0
-2.78512e-07 1.46205e-09 0
-2.77993e-07 7.18757e-10 0
-2.77655e-07 3.22279e-10 0
-2.77434e-07 1.19027e-10 0
-2.77288e-07 2.04802e-11 0
-2.77191e-07 -2.29872e-11 0
-2.77123e-07 -3.8544e-11 0
-2.77074e-07 -4.07224e-11 0
-2.77036e-07 -3.70898e-11 0
-2.77005e-07 -3.14474e-11 0
-2.76979e-07 -2.55999e-11 0
-2.76957e-07 -2.03192e-11 0
-2.76937e-07 -1.58619e-11 0
-2.76919e-07 -1.22409e-11 0
-2.76902e-07 -9.36597e-12 0
-2.76888e-07 -7.1128e-12 0
-2.76875e-07 -5.35497e-12 0
-2.76862e-07 -3.97568e-12 0
-2.76851e-07 -2.86879e-12 0
-2.76841e-07 -1.93704e-12 0
-2.76831e-07 -1.10205e-12 0
-2.76821e-07 -3.23479e-13 0
-2.76812e-07 4.4568e-13 0
-2.76804e-07 1.38275e-12 0
-2.76795e-07 2.88654e-12 0
-2.76784e-07 5.60937e-12 0
-2.76766e-07 1.07615e-11 0
-2.7676e-07 1.91238e-11 0
0.0102544 -1.49781e-07 0
0 -9.91961e-07 0
1.85388e-10 -6.92631e-08 0
-1.87729e-07 -1.73873e-07 0
-5.1338e-07 -2.40625e-07 0
-5.69233e-07 -2.52547e-07 0
-1.88033e-07 -1.16604e-07 0
-8.28229e-10 6.7475e-10 0
1.21022e-10 -1.21022e-10 0
6.20627e-10 -9.64023e-10 0
-1.91295e-07 -1.12058e-07 0
-3.18618e-07 -1.08892e-07 0
-3.95261e-07 7.92039e-08 0
-4.77212e-07 1.35261e-07 0
-4.67607e-07 9.17457e-08 0
-4.07032e-07 5.1777e-08 0
-3.52355e-07 3.0786e-08 0
-3.18037e-07 1.84773e-08 0
-2.98799e-07 1.03126e-08 0
-2.88098e-07 5.15576e-09 0
-2.81996e-07 2.22595e-09 0
-2.78439e-07 7.33171e-10 0
-2.76344e-07 5.68798e-11 0
-2.75106e-07 -2.01417e-10 0
-2.74373e-07 -2.65869e-10 0
-2.7394e-07 -2.50911e-10 0
-2.73681e-07 -2.10188e-10 0
-2.73524e-07 -1.66515e-10 0
-2.73427e-07 -1.28199e-10 0
-2.73363e-07 -9.72475e-11 0
-2.73318e-07 -7.32247e-11 0
-2.73285e-07 -5.4954e-11 0
-2.73258e-07 -4.11971e-11 0
-2.73236e-07 -3.08858e-11 0
-2.73215e-07 -2.31696e-11 0
-2.73197e-07 -1.73957e-11 0
-2.7318e-07 -1.30721e-11 0
-2.73165e-07 -9.83071e-12 0
-2.73151e-07 -7.39726e-12 0
-2.73139e-07 -5.56823e-12 0
-2.73127e-07 -4.19428e-12 0
-2.73116e-07 -3.17045e-12 0
-2.73106e-07 -2.42907e-12 0
-2.73096e-07 -1.92381e-12 0
-2.73086e-07 -1.60847e-12 0
-2.73078e-07 -1.44868e-12 0
-2.7307e-07 -1.46228e-12 0
-2.73062e-07 -1.70074e-12 0
-2.73051e-07 -2.02808e-12 0
-2.73033e-07 -1.73103e-12 0
-2.73028e-07 -2.98318e-13 0
0.0102614 1.44513e-09 0
0 -7.04555e-07 0
1.66572e-10 -8.21441e-08 0
-1.81013e-07 -1.86666e-07 0
-5.01458e-07 -1.7959e-07 0
-5.92845e-07 -1.34166e-07 0
-4.16434e-07 -1.15329e-07 0
-1.3895e-07 -5.61798e-08 0
-7.53424e-10 5.93711e-10 0
2.91805e-11 -2.91805e-11 0
4.61752e-10 -7.86531e-10 0
-1.19238e-07 5.56658e-08 0
-2.65357e-07 2.03157e-07 0
-4.86817e-07 2.27237e-07 0
-5.48746e-07 9.82964e-08 0
-4.70748e-07 1.66051e-08 0
-3.82707e-07 -7.07232e-09 0
-3.2919e-07 -1.04181e-08 0
-3.02429e-07 -9.3734e-09 0
-2.8962e-07 -7.46487e-09 0
-2.8341e-07 -5.50131e-09 0
-2.80327e-07 -3.82381e-09 0
-2.78766e-07 -2.55144e-09 0
-2.77962e-07 -1.65984e-09 0
-2.7754e-07 -1.06614e-09 0
-2.77314e-07 -6.82908e-10 0
-2.7719e-07 -4.39633e-10 0
-2.77117e-07 -2.86123e-10 0
-2.77072e-07 -1.89033e-10 0
-2.7704e-07 -1.2709e-10 0
-2.77016e-07 -8.70254e-11 0
-2.76995e-07 -6.06667e-11 0
-2.76976e-07 -4.29927e-11 0
-2.76959e-07 -3.09102e-11 0
-2.76942e-07 -2.24958e-11 0
-2.76926e-07 -1.65376e-11 0
-2.76911e-07 -1.22583e-11 0
-2.76897e-07 -9.15005e-12 0
-2.76883e-07 -6.87536e-12 0
-2.76871e-07 -5.20752e-12 0
-2.7686e-07 -3.99431e-12 0
-2.76849e-07 -3.13473e-12 0
-2.76839e-07 -2.5646e-12 0
-2.7683e-07 -2.25421e-12 0
-2.76821e-07 -2.2186e-12 0
-2.76812e-07 -2.54383e-12 0
-2.76805e-07 -3.45092e-12 0
-2.76798e-07 -5.38689e-12 0
-2.76788e-07 -8.87706e-12 0
-2.76772e-07 -1.39193e-11 0
-2.76767e-07 -1.9844e-11 0
0.0102544 1.51928e-07 0
0 -5.06408e-07 0
1.42403e-10 -9.08762e-08 0
-1.91504e-07 -1.83494e-07 0
-4.87773e-07 -1.46081e-07 0
-5.71868e-07 -7.09568e-08 0
-4.50888e-07 -5.06633e-08 0
-3.11204e-07 -1.22734e-07 0
-1.79654e-07 -8.95929e-08 0
-7.33254e-10 4.55618e-10 0
3.46042e-10 3.34824e-10 0
1.06231e-11 1.1925e-07 0
-9.70619e-08 3.71824e-07 0
-3.34128e-07 3.68282e-07 0
-4.96051e-07 1.12189e-07 0
-4.72632e-07 -3.25628e-08 0
-3.92802e-07 -5.17411e-08 0
-3.38504e-07 -3.77977e-08 0
-3.13535e-07 -2.44868e-08 0
-3.04206e-07 -1.54021e-08 0
-3.01324e-07 -9.47031e-09 0
-3.00727e-07 -5.70676e-09 0
-3.00808e-07 -3.39506e-09 0
-3.01019e-07 -2.01137e-09 0
-3.01199e-07 -1.19589e-09 0
-3.01322e-07 -7.18168e-10 0
-3.01397e-07 -4.37901e-10 0
-3.01437e-07 -2.72258e-10 0
-3.01456e-07 -1.7315e-10 0
-3.0146e-07 -1.12862e-10 0
-3.01456e-07 -7.54378e-11 0
-3.01447e-07 -5.16609e-11 0
-3.01435e-07 -3.61711e-11 0
-3.01421e-07 -2.58197e-11 0
-3.01406e-07 -1.87313e-11 0
-3.01392e-07 -1.37695e-11 0
-3.01378e-07 -1.02311e-11 0
-3.01364e-07 -7.67161e-12 0
-3.01351e-07 -5.80358e-12 0
-3.0134e-07 -4.43843e-12 0
-3.01329e-07 -3.45237e-12 0
-3.01318e-07 -2.76839e-12 0
-3.01308e-07 -2.34981e-12 0
-3.01299e-07 -2.20472e-12 0
-3.0129e-07 -2.40318e-12 0
-3.01283e-07 -3.1102e-12 0
-3.01276e-07 -4.66545e-12 0
-3.0127e-07 -7.82517e-12 0
-3.01263e-07 -1.40686e-11 0
-3.0125e-07 -2.51556e-11 0
-3.01248e-07 -4.11449e-11 0
0.0101883 2.90705e-07 0
0 -4.61088e-07 0
1.17679e-10 -8.68195e-08 0
-2.29526e-07 -1.69228e-07 0
-5.01457e-07 -1.21921e-07 0
-5.80599e-07 -4.96942e-08 0
-4.94079e-07 -1.91356e-08 0
-3.67305e-07 -6.49611e-08 0
-3.31712e-07 -2.0167e-07 0
-2.26407e-07 -1.45648e-07 0
-3.55939e-07 8.28108e-12 0
-4.74271e-07 1.22071e-07 0
-3.18782e-07 3.71383e-07 0
-1.8391e-07 3.90438e-07 0
-2.99638e-07 1.44882e-07 0
-3.95522e-07 -3.09862e-08 0
-3.99924e-07 -6.20696e-08 0
-3.85803e-07 -4.29046e-08 0
-3.80264e-07 -2.37759e-08 0
-3.80809e-07 -1.24746e-08 0
-3.8301e-07 -6.56139e-09 0
-3.85015e-07 -3.53276e-09 0
-3.86421e-07 -1.96162e-09 0
-3.87304e-07 -1.12501e-09 0
-3.87826e-07 -6.65748e-10 0
-3.88122e-07 -4.0592e-10 0
-3.88285e-07 -2.54755e-10 0
-3.88371e-07 -1.64473e-10 0
-3.88412e-07 -1.09151e-10 0
-3.88427e-07 -7.43558e-11 0
-3.88429e-07 -5.18751e-11 0
-3.88422e-07 -3.69525e-11 0
-3.88412e-07 -2.67839e-11 0
-3.88398e-07 -1.96858e-11 0
-3.88384e-07 -1.46262e-11 0
-3.8837e-07 -1.09573e-11 0
-3.88356e-07 -8.26165e-12 0
-3.88342e-07 -6.26331e-12 0
-3.8833e-07 -4.77586e-12 0
-3.88318e-07 -3.67222e-12 0
-3.88307e-07 -2.86759e-12 0
-3.88297e-07 -2.31143e-12 0
-3.88287e-07 -1.98725e-12 0
-3.88278e-07 -1.92172e-12 0
-3.8827e-07 -2.20847e-12 0
-3.88263e-07 -3.05033e-12 0
-3.88257e-07 -4.82659e-12 0
-3.88253e-07 -8.37094e-12 0
-3.88249e-07 -1.59948e-11 0
-3.88243e-07 -3.29286e-11 0
-3.88251e-07 -6.39018e-11 0
0.00974301 3.70759e-07 0
0 -4.97421e-07 0
8.99005e-11 -5.33426e-08 0
-2.62422e-07 -1.02996e-07 0
-4.99778e-07 -7.19177e-08 0
-5.76927e-07 -3.62702e-08 0
-5.58756e-07 -4.93282e-08 0
-4.85989e-07 -9.73929e-08 0
-4.3988e-07 -1.33822e-07 0
-5.02769e-07 3.46158e-08 0
-5.18966e-07 2.70443e-07 0
-5.34102e-07 1.79306e-07 0
-3.87298e-07 -8.59849e-08 0
-2.75919e-07 -1.79457e-07 0
-3.83968e-07 -9.33473e-08 0
-4.91517e-07 3.57851e-09 0
-5.05968e-07 3.91352e-08 0
-4.91015e-07 3.29251e-08 0
-4.80549e-07 1.84832e-08 0
-4.76705e-07 8.51609e-09 0
-4.76074e-07 3.43257e-09 0
-4.76488e-07 1.19836e-09 0
-4.77064e-07 3.11086e-10 0
-4.77537e-07 -5.80985e-12 0
-4.77868e-07 -9.90669e-11 0
-4.78085e-07 -1.11362e-10 0
-4.7822e-07 -9.80496e-11 0
-4.78302e-07 -7.93398e-11 0
-4.78349e-07 -6.19229e-11 0
-4.78375e-07 -4.75279e-11 0
-4.78387e-07 -3.61884e-11 0
-4.78389e-07 -2.74457e-11 0
-4.78386e-07 -2.07732e-11 0
-4.78379e-07 -1.57054e-11 0
-4.78369e-07 -1.18647e-11 0
-4.78359e-07 -8.95812e-12 0
-4.78347e-07 -6.76113e-12 0
-4.78336e-07 -5.10308e-12 0
-4.78325e-07 -3.85542e-12 0
-4.78315e-07 -2.92278e-12 0
-4.78305e-07 -2.2369e-12 0
-4.78295e-07 -1.75378e-12 0
-4.78286e-07 -1.45463e-12 0
-4.78278e-07 -1.35252e-12 0
-4.7827e-07 -1.50948e-12 0
-4.78264e-07 -2.07487e-12 0
-4.78259e-07 -3.3515e-12 0
-4.78258e-07 -5.97818e-12 0
-4.78258e-07 -1.19364e-11 0
-4.78262e-07 -2.78877e-11 0
-4.78293e-07 -6.50819e-11 0
0.00753265 2.70954e-07 0
0 0 0
4.24505e-11 0 0
-1.33133e-07 0 0
-2.40378e-07 0 0
-2.7984e-07 0 0
-2.86922e-07 0 0
-2.91017e-07 0 0
-2.87743e-07 0 0
-2.76501e-07 0 0
-1.63142e-07 0 0
-5.98246e-08 0 0
-7.98054e-08 0 0
-1.88952e-07 0 0
-2.87064e-07 0 0
-3.17918e-07 0 0
-3.01415e-07 0 0
-2.77834e-07 0 0
-2.62621e-07 0 0
-2.55214e-07 0 0
-2.52157e-07 0 0
-2.51075e-07 0 0
-2.5078e-07 0 0
-2.50761e-07 0 0
-2.5082e-07 0 0
-2.50889e-07 0 0
-2.50945e-07 0 0
-2.50988e-07 0 0
-2.51017e-07 0 0
-2.51037e-07 0 0
-2.51049e-07 0 0
-2.51055e-07 0 0
-2.51058e-07 0 0
-2.51058e-07 0 0
-2.51055e-07 0 0
-2.51052e-07 0 0
-2.51048e-07 0 0
-2.51043e-07 0 0
-2.51039e-07 0 0
-2.51034e-07 0 0
-2.5103e-07 0 0
-2.51025e-07 0 0
-2.51021e-07 0 0
-2.51017e-07 0 0
-2.51013e-07 0 0
-2.5101e-07 0 0
-2.51008e-07 0 0
-2.51008e-07 0 0
-2.5101e-07 0 0
-2.51015e-07 0 0
-2.51037e-07 0 0
0.00285424 0 0
0 0 5.30778e-07
1.80534e-10 0 9.65873e-08
-4.14148e-07 0 1.89674e-07
-8.48553e-07 0 4.60248e-08
-1.03579e-06 0 -3.49958e-07
-1.62563e-07 0 -4.50625e-07
1.48874e-07 0 -2.04631e-07
1.80759e-07 0 -4.57433e-08
6.77989e-08 0 3.70049e-08
-1.0015e-07 0 3.52799e-08
-2.28601e-07 0 3.88955e-09
-3.06577e-07 0 -1.49857e-08
-3.54277e-07 0 -1.64725e-08
-3.85923e-07 0 -1.06016e-08
-4.09304e-07 0 -4.71986e-09
-4.28459e-07 0 -1.05933e-09
-4.44232e-07 0 5.95396e-10
-4.56507e-07 0 1.051e-09
-4.65454e-07 0 9.68599e-10
-4.71616e-07 0 7.25075e-10
-4.7567e-07 0 4.86386e-10
-4.78236e-07 0 3.04173e-10
-4.79806e-07 0 1.8088e-10
-4.80737e-07 0 1.03374e-10
-4.8127e-07 0 5.70841e-11
-4.81562e-07 0 3.05065e-11
-4.81713e-07 0 1.57481e-11
-4.81782e-07 0 7.80498e-12
-4.81805e-07 0 3.66626e-12
-4.81804e-07 0 1.58927e-12
-4.8179e-07 0 5.96506e-13
-4.8177e-07 0 1.54717e-13
-4.81748e-07 0 -1.89325e-14
-4.81726e-07 0 -6.98283e-14
-4.81705e-07 0 -6.98119e-14
-4.81686e-07 0 -5.23961e-14
-4.81668e-07 0 -3.16482e-14
-4.81652e-07 0 -1.19711e-14
-4.81638e-07 0 7.13053e-15
-4.81625e-07 0 2.90676e-14
-4.81613e-07 0 5.98554e-14
-4.81602e-07 0 1.08901e-13
-4.81592e-07 0 1.90716e-13
-4.81583e-07 0 3.3051e-13
-4.81576e-07 0 5.72942e-13
-4.81571e-07 0 9.29921e-13
-4.81568e-07 0 1.26422e-12
-4.8157e-07 0 2.21491e-12
-4.81578e-07 0 1.0692e-11
-4.81613e-07 0 4.51545e-11
0.00752615 0 -2.06337e-07
0.0036 1.31143e-07 2.01231e-07
0.00359955 -0.00175786 -0.000407277
0.00777093 -0.00528135 -0.00152003
0.0161744 -0.00866505 -0.00314298
0.0279965 -0.0129059 -0.00462048
0.046579 -0.00881311 -0.00320665
0.0487184 -0.00018664 -0.00049218
0.0480515 0.00331922 0.000580398
0.0427243 0.00503213 0.000674022
0.0371292 0.00474193 0.000156729
0.0321951 0.00381851 -0.000239554
0.0282007 0.00282038 -0.000345216
0.0252715 0.00194775 -0.000277116
0.0232996 0.00128083 -0.0001688
0.0220389 0.000818659 -8.50792e-05
0.0212564 0.000513578 -3.64649e-05
0.020782 0.000316429 -1.29778e-05
0.0205007 0.000191306 -3.25916e-06
0.0203374 0.000113496 7.43882e-08
0.0202448 6.61134e-05 8.45627e-07
0.0201934 3.78323e-05 7.65099e-07
0.0201656 2.12658e-05 5.01596e-07
0.0201511 1.17325e-05 2.71514e-07
0.0201438 6.34157e-06 1.18254e-07
0.0201404 3.34713e-06 3.05599e-08
0.0201389 1.71567e-06 -1.30897e-08
0.0201385 8.46158e-07 -3.07607e-08
0.0201385 3.94915e-07 -3.4644e-08
0.0201386 1.68669e-07 -3.20639e-08
0.0201388 6.05748e-08 -2.70532e-08
0.020139 1.26655e-08 -2.16447e-08
0.0201391 -5.83765e-09 -1.67432e-08
0.0201393 -1.08464e-08 -1.2661e-08
0.0201394 -1.03032e-08 -9.42363e-09
0.0201394 -7.97813e-09 -6.93624e-09
0.0201395 -5.52319e-09 -5.06743e-09
0.0201395 -3.56131e-09 -3.6893e-09
0.0201395 -2.24964e-09 -2.69453e-09
0.0201396 -1.56268e-09 -2.0034e-09
0.0201396 -1.43017e-09 -1.56825e-09
0.0201396 -1.80437e-09 -1.38017e-09
0.0201396 -2.69897e-09 -1.48148e-09
0.0201396 -4.22688e-09 -1.98464e-09
0.0201396 -6.65297e-09 -3.08214e-09
0.0201396 -1.05646e-08 -5.07881e-09
0.0201397 -1.75357e-08 -8.58437e-09
0.0201397 -2.96991e-08 -1.24594e-08
0.0201398 -4.93102e-08 -9.13021e-09
0.0201401 -1.44468e-07 -4.6499e-08
0.0201405 -5.37167e-07 -3.31483e-07
0.0201412 -8.4681e-07 -5.74219e-07
0.01 1.11752e-07 -8.1683e-07
0.0100012 -0.00376669 -0.000903887
0.0151846 -0.0115184 -0.00249014
0.024242 -0.0186975 -0.00406477
0.0367205 -0.0280395 -0.0043848
0.0556884 -0.0187529 -0.00118095
0.0544373 -0.000932434 0.00169071
0.0549187 0.00597319 0.00206104
0.0491984 0.0108472 0.00168324
0.0431609 0.0106258 0.00058584
0.0380337 0.00912878 -0.00025398
0.0338459 0.00711871 -0.000512891
0.0308524 0.00503899 -0.000437474
0.0289542 0.00331123 -0.000273757
0.0278104 0.00208056 -0.000139748
0.0271392 0.00127152 -6.02441e-05
0.0267554 0.000760034 -2.13462e-05
0.0265421 0.000444981 -5.03115e-06
0.0264275 0.000255233 6.69173e-07
0.0263682 0.00014332 2.01993e-06
0.026339 7.86303e-05 1.86908e-06
0.0263258 4.19828e-05 1.36175e-06
0.0263205 2.16563e-05 8.89196e-07
0.0263192 1.06467e-05 5.44207e-07
0.0263195 4.85219e-06 3.18548e-07
0.0263204 1.91557e-06 1.80104e-07
0.0263215 5.07141e-07 9.87697e-08
0.0263224 -1.08865e-07 5.2534e-08
0.0263232 -3.30914e-07 2.69771e-08
0.0263237 -3.6934e-07 1.32255e-08
0.0263242 -3.3152e-07 6.04063e-09
0.0263245 -2.69719e-07 2.4217e-09
0.0263248 -2.07497e-07 6.91445e-10
0.0263249 -1.54005e-07 -6.7731e-11
0.0263251 -1.11552e-07 -3.47388e-10
0.0263251 -7.94945e-08 -4.05286e-10
0.0263252 -5.61563e-08 -3.74044e-10
0.0263252 -3.97195e-08 -3.22183e-10
0.0263253 -2.86003e-08 -2.89256e-10
0.0263253 -2.15808e-08 -3.08282e-10
0.0263253 -1.78445e-08 -4.23317e-10
0.0263253 -1.70023e-08 -7.06703e-10
0.0263253 -1.91872e-08 -1.27913e-09
0.0263254 -2.53116e-08 -2.30799e-09
0.0263254 -3.74563e-08 -3.86968e-09
0.0263254 -6.06087e-08 -5.95396e-09
0.0263255 -1.14215e-07 -8.11823e-09
0.0263257 -2.47208e-07 -4.77794e-09
0.0263259 -4.91541e-07 -6.29296e-08
0.0263263 -8.61902e-07 -4.53788e-07
0.0263265 -1.08264e-06 -7.82272e-07
0.0148 -9.10902e-07 -1.08763e-06
0.0148026 -0.00575535 -0.00141187
0.0194821 -0.0167019 -0.00384196
0.0253856 -0.0265986 -0.00559555
0.0295885 -0.0402936 -0.00490939
0.0281571 -0.0246597 -0.00079198
0.0260733 -1.05077e-05 0.00175301
0.0263902 0.00787405 0.00188927
0.0312546 0.0164061 0.00176619
0.031204 0.0159417 0.00085895
0.0296906 0.0133958 6.68122e-05
0.0283879 0.0102795 -0.0002902
0.0276202 0.00704203 -0.000308564
0.0273574 0.00444125 -0.000205091
0.0273106 0.00269127 -9.90867e-05
0.027337 0.00159184 -3.30206e-05
0.0273851 0.000920579 -2.44792e-06
0.0274348 0.000519941 7.77376e-06
0.0274779 0.000286321 8.98955e-06
0.0275117 0.000153248 7.21172e-06
0.0275367 7.92211e-05 5.00036e-06
0.0275544 3.90635e-05 3.19953e-06
0.0275667 1.7902e-05 1.94479e-06
0.0275749 7.15586e-06 1.14014e-06
0.0275805 1.98019e-06 6.50205e-07
0.0275842 -3.04319e-07 3.62378e-07
0.0275866 -1.14748e-06 1.97748e-07
0.0275883 -1.31438e-06 1.05602e-07
0.0275894 -1.19618e-06 5.50078e-08
0.0275901 -9.84094e-07 2.77493e-08
0.0275906 -7.6517e-07 1.33662e-08
0.0275909 -5.7404e-07 5.96932e-09
0.0275911 -4.20252e-07 2.29675e-09
0.0275913 -3.02346e-07 5.68896e-10
0.0275914 -2.14819e-07 -1.70669e-10
0.0275914 -1.51384e-07 -4.27658e-10
0.0275915 -1.06342e-07 -4.64848e-10
0.0275915 -7.50451e-08 -4.17116e-10
0.0275915 -5.39535e-08 -3.55553e-10
0.0275916 -4.05394e-08 -3.24859e-10
0.0275916 -3.31849e-08 -3.67869e-10
0.0275916 -3.11452e-08 -5.42464e-10
0.0275916 -3.46572e-08 -9.2434e-10
0.0275916 -4.54805e-08 -1.60444e-09
0.0275916 -6.88179e-08 -2.80661e-09
0.0275917 -1.15429e-07 -5.37111e-09
0.0275917 -1.9509e-07 -1.09013e-08
0.0275918 -3.11223e-07 -1.8659e-08
0.0275918 -4.73861e-07 -9.92744e-08
0.0275919 -6.95876e-07 -5.07127e-07
0.0275918 -8.22637e-07 -8.38486e-07
0.018 -2.0098e-06 -1.42524e-06
0.0180025 -0.00658807 -0.0022084
0.0198606 -0.0173305 -0.00595096
0.0197701 -0.0222197 -0.00721503
0.0159521 -0.023842 -0.0061631
-1.04294e-06 -0.012373 -0.00269171
0.000103805 3.56896e-05 5.35219e-07
-4.0808e-05 4.31433e-05 0.000355156
0.00772331 0.00550732 0.000706042
0.0161649 0.0120672 0.000573234
0.0194365 0.0120588 0.000247588
0.02101 0.00936885 -6.82578e-05
0.0227288 0.00621857 -0.000189575
0.0243511 0.0037123 -0.000147305
0.0255794 0.00214305 -6.504e-05
0.0264089 0.00120982 -8.58201e-06
0.0269406 0.000662001 1.53439e-05
0.0272728 0.00034796 1.97849e-05
0.0274769 0.000173938 1.64482e-05
0.0276005 8.11121e-05 1.15297e-05
0.0276745 3.3655e-05 7.36271e-06
0.0277184 1.06479e-05 4.43154e-06
0.0277442 3.43123e-07 2.55867e-06
0.0277594 -3.63488e-06 1.43051e-06
0.0277683 -4.63743e-06 7.77723e-07
0.0277735 -4.36655e-06 4.11213e-07
0.0277765 -3.64989e-06 2.10537e-07
0.0277783 -2.86461e-06 1.03241e-07
0.0277794 -2.16346e-06 4.73438e-08
0.02778 -1.59261e-06 1.91574e-08
0.0277804 -1.15135e-06 5.59461e-09
0.0277806 -8.21288e-07 -4.44905e-10
0.0277807 -5.79915e-07 -2.74433e-09
0.0277808 -4.06301e-07 -3.27867e-09
0.0277809 -2.83048e-07 -3.05265e-09
0.0277809 -1.96549e-07 -2.55926e-09
0.0277809 -1.36564e-07 -2.02768e-09
0.0277809 -9.56076e-08 -1.55623e-09
0.027781 -6.83604e-08 -1.18379e-09
0.027781 -5.11885e-08 -9.30185e-10
0.027781 -4.18045e-08 -8.22663e-10
0.027781 -3.91044e-08 -9.23381e-10
0.027781 -4.32281e-08 -1.3762e-09
0.027781 -5.5586e-08 -2.48288e-09
0.027781 -7.78362e-08 -4.96139e-09
0.027781 -1.10391e-07 -1.07964e-08
0.027781 -1.53131e-07 -2.19013e-08
0.0277809 -2.05347e-07 -3.45475e-08
0.0277809 -2.73321e-07 -1.19448e-07
0.0277808 -3.68059e-07 -5.23888e-07
0.0277806 -4.2312e-07 -8.49195e-07
0.0196 -2.45029e-06 -2.46163e-06
0.0196009 -0.00507839 -0.00295762
0.0190542 -0.0115432 -0.00724264
0.0164201 -0.0136717 -0.00761049
0.0119638 -0.0119403 -0.00607042
0.00266247 -0.00473583 -0.00342411
7.90667e-05 -7.29996e-05 -0.000676775
3.21917e-05 -3.21917e-05 -5.2705e-08
-3.95651e-05 4.20508e-05 8.44418e-05
0.00548134 0.00409516 0.000182485
0.012021 0.00852865 0.000146441
0.0148571 0.00705412 -5.11653e-05
0.0184195 0.00379926 -0.00022784
0.0217494 0.00166231 -0.00021021
0.0241749 0.000665538 -0.00011088
0.0257065 0.000236018 -2.86214e-05
0.0266122 5.0503e-05 1.00445e-05
0.0271336 -2.48001e-05 1.93936e-05
0.0274297 -4.84573e-05 1.67685e-05
0.0275963 -4.93384e-05 1.15557e-05
0.0276891 -4.18274e-05 7.12153e-06
0.0277404 -3.25577e-05 4.10124e-06
0.0277686 -2.4177e-05 2.2512e-06
0.0277839 -1.7457e-05 1.18698e-06
0.0277921 -1.2387e-05 6.00636e-07
0.0277965 -8.69179e-06 2.88541e-07
0.0277988 -6.0542e-06 1.27846e-07
0.0278 -4.19579e-06 4.82635e-08
0.0278006 -2.89727e-06 1.09652e-08
0.0278009 -1.99496e-06 -4.9449e-09
0.027801 -1.37042e-06 -1.04572e-08
0.0278011 -9.39407e-07 -1.12157e-08
0.0278011 -6.42715e-07 -1.00341e-08
0.0278011 -4.39003e-07 -8.25657e-09
0.0278011 -2.99546e-07 -6.48192e-09
0.0278011 -2.04463e-07 -4.94272e-09
0.027801 -1.40044e-07 -3.7012e-09
0.027801 -9.68878e-08 -2.74914e-09
0.027801 -6.8601e-08 -2.05965e-09
0.027801 -5.09175e-08 -1.61792e-09
0.027801 -4.1091e-08 -1.44847e-09
0.027801 -3.74425e-08 -1.65366e-09
0.027801 -3.88783e-08 -2.48294e-09
0.027801 -4.43459e-08 -4.42473e-09
0.027801 -5.24609e-08 -8.25944e-09
0.027801 -6.09119e-08 -1.55288e-08
0.0278009 -6.55888e-08 -2.76694e-08
0.0278009 -5.95704e-08 -4.02162e-08
0.0278008 -3.95292e-08 -1.24146e-07
0.0278007 -1.28413e-08 -5.26129e-07
0.0278006 5.68796e-10 -8.49454e-07
0.0196 -1.2595e-06 -3.34029e-06
0.0196003 -0.00296138 -0.00325863
0.0190725 -0.006154 -0.0072853
0.0179347 -0.00565664 -0.00723034
0.0146939 -0.00208906 -0.00544917
0.0109113 0.00385052 -0.00354736
0.0067608 0.00347681 -0.00159754
7.913e-05 -6.68693e-05 -0.000299171
2.73042e-05 -2.73042e-05 -1.29282e-07
-3.80562e-05 4.10739e-05 2.22505e-05
0.00408553 0.00265589 0.000308475
0.00882859 0.00301992 0.000307364
0.0148856 -0.00055019 -0.000147523
0.0202221 -0.00193419 -0.000336833
0.0237831 -0.00175538 -0.000255304
0.0257543 -0.00120927 -0.000114623
0.0267617 -0.000766652 -3.03495e-05
0.0272695 -0.000476846 6.55192e-07
0.0275264 -0.000295619 7.1056e-06
0.0276565 -0.00018311 6.05315e-06
0.027722 -0.000113472 3.84872e-06
0.0277545 -7.04968e-05 2.14425e-06
0.0277703 -4.40074e-05 1.092e-06
0.0277776 -2.76526e-05 5.08729e-07
0.0277809 -1.75104e-05 2.08022e-07
0.0277821 -1.11792e-05 6.30778e-08
0.0277824 -7.19528e-06 -9.71868e-10
0.0277823 -4.66633e-06 -2.51633e-08
0.0277821 -3.04674e-06 -3.08989e-08
0.0277819 -2.00073e-06 -2.88803e-08
0.0277817 -1.31995e-06 -2.42156e-08
0.0277815 -8.7394e-07 -1.91881e-08
0.0277813 -5.80154e-07 -1.47043e-08
0.0277812 -3.85872e-07 -1.10312e-08
0.0277812 -2.571e-07 -8.16031e-09
0.0277811 -1.7174e-07 -5.98273e-09
0.0277811 -1.1533e-07 -4.36927e-09
0.027781 -7.83566e-08 -3.20593e-09
0.027781 -5.454e-08 -2.41072e-09
0.027781 -3.97087e-08 -1.94638e-09
0.027781 -3.10235e-08 -1.83874e-09
0.027781 -2.63932e-08 -2.20563e-09
0.027781 -2.39934e-08 -3.29086e-09
0.0277809 -2.17756e-08 -5.4977e-09
0.0277809 -1.6871e-08 -9.49734e-09
0.0277809 -4.80938e-09 -1.6803e-08
0.0277809 2.20389e-08 -2.8868e-08
0.0277808 7.79764e-08 -4.04017e-08
0.0277808 1.82104e-07 -1.20745e-07
0.0277808 3.36219e-07 -5.20618e-07
0.0277806 4.23831e-07 -8.44472e-07
0.018 -7.69696e-07 -3.28707e-06
0.0180011 -0.00126098 -0.00320759
0.0185981 -0.00195578 -0.00690992
0.0192815 -0.00038315 -0.00646915
0.0190573 0.00236742 -0.00462411
0.0190323 0.00779392 -0.00300144
0.0193975 0.0128449 -0.00162112
0.0119465 0.00710595 -0.000735304
8.0978e-05 -5.27606e-05 -0.000254853
-3.08962e-05 -6.03049e-05 4.90548e-07
8.17856e-06 -0.000415942 0.000895036
0.00949769 -0.00381631 0.00126344
0.017309 -0.00746225 0.000303668
0.0224969 -0.00704469 -0.000261403
0.025431 -0.00473271 -0.000332568
0.0268005 -0.00268091 -0.00019794
0.027351 -0.00144576 -8.42673e-05
0.0275503 -0.000787379 -2.9798e-05
0.0276134 -0.000437711 -9.42912e-06
0.0276271 -0.000247243 -2.78165e-06
0.0276246 -0.000141364 -8.14588e-07
0.0276179 -8.17257e-05 -2.87995e-07
0.0276113 -4.77809e-05 -1.60452e-07
0.0276059 -2.82623e-05 -1.26215e-07
0.0276018 -1.69163e-05 -1.06923e-07
0.0275988 -1.02447e-05 -8.79431e-08
0.0275967 -6.2746e-06 -6.93354e-08
0.0275951 -3.88342e-06 -5.28337e-08
0.0275941 -2.42614e-06 -3.93014e-08
0.0275933 -1.52797e-06 -2.87678e-08
0.0275928 -9.68673e-07 -2.08397e-08
0.0275924 -6.17202e-07 -1.49992e-08
0.0275922 -3.94649e-07 -1.07545e-08
0.027592 -2.52913e-07 -7.69578e-09
0.0275919 -1.62324e-07 -5.50492e-09
0.0275918 -1.04383e-07 -3.94552e-09
0.0275917 -6.74362e-08 -2.84825e-09
0.0275917 -4.40691e-08 -2.09844e-09
0.0275916 -2.94961e-08 -1.62884e-09
0.0275916 -2.05417e-08 -1.41921e-09
0.0275916 -1.49546e-08 -1.50408e-09
0.0275916 -1.0894e-08 -1.99115e-09
0.0275916 -6.46987e-09 -3.09474e-09
0.0275916 7.63737e-10 -5.17112e-09
0.0275916 1.44884e-08 -8.80573e-09
0.0275915 4.0564e-08 -1.54161e-08
0.0275915 8.88046e-08 -2.65015e-08
0.0275915 1.79916e-07 -3.5908e-08
0.0275916 3.57622e-07 -1.07908e-07
0.0275916 6.48404e-07 -5.00077e-07
0.0275915 8.21437e-07 -8.22984e-07
0.0148 -4.9935e-07 -2.84101e-06
0.0148016 -0.000347432 -0.0030195
0.0167859 9.67083e-05 -0.00621952
0.0194273 0.00191907 -0.00543778
0.0217812 0.00445654 -0.00369481
0.0238618 0.00755558 -0.00252437
0.0271792 0.0126686 -0.00163857
0.0301977 0.0201734 -0.000894504
0.0244901 0.0120792 -0.000133577
0.0251967 4.40336e-11 0.000505149
0.0295395 -0.00719828 0.00169433
0.0344373 -0.0147405 0.00244165
0.0343474 -0.013567 0.00141217
0.0318224 -0.00986398 0.000198798
0.0294959 -0.00587162 -0.000359481
0.0280614 -0.00302118 -0.00033642
0.0272806 -0.00146942 -0.000180261
0.0268616 -0.000722061 -7.77221e-05
0.0266326 -0.000366882 -3.05257e-05
0.0265047 -0.000192618 -1.15172e-05
0.0264319 -0.000103822 -4.27216e-06
0.0263896 -5.71195e-05 -1.57234e-06
0.0263647 -3.1941e-05 -5.7311e-07
0.0263498 -1.81006e-05 -2.02705e-07
0.0263408 -1.03724e-05 -6.49119e-08
0.0263352 -5.99995e-06 -1.39785e-08
0.0263317 -3.49771e-06 4.03071e-09
0.0263295 -2.05123e-06 9.40257e-09
0.026328 -1.2076e-06 9.96567e-09
0.0263271 -7.11837e-07 8.82488e-09
0.0263265 -4.18751e-07 7.2312e-09
0.0263261 -2.44799e-07 5.67827e-09
0.0263259 -1.41423e-07 4.34067e-09
0.0263257 -8.01327e-08 3.25651e-09
0.0263256 -4.40618e-08 2.40674e-09
0.0263255 -2.3147e-08 1.75135e-09
0.0263254 -1.1334e-08 1.24478e-09
0.0263254 -4.94002e-09 8.4049e-10
0.0263254 -1.67125e-09 4.89521e-10
0.0263254 -8.87669e-12 1.33714e-10
0.0263253 1.2081e-09 -3.07276e-10
0.0263253 3.11472e-09 -9.57062e-10
0.0263253 7.1532e-09 -2.01372e-09
0.0263253 1.5491e-08 -3.78407e-09
0.0263253 3.16899e-08 -6.74257e-09
0.0263253 6.18777e-08 -1.19965e-08
0.0263253 1.1631e-07 -2.07599e-08
0.0263254 2.16732e-07 -2.73893e-08
0.0263255 4.31078e-07 -8.69392e-08
0.0263257 8.28351e-07 -4.51759e-07
0.0263259 1.07693e-06 -7.58407e-07
0.01 -9.42472e-07 -2.5511e-06
0.0100007 -0.000193121 -0.00255877
0.0123225 0.000296071 -0.00490818
0.015686 0.0015335 -0.00384253