# vtk DataFile Version 2.0
Tobias Weinzierl: CPU, Manycore and Cluster Computing
ASCII

DATASET STRUCTURED_POINTS
DIMENSIONS  51 11 6

ORIGIN 0 0 0 

SPACING 0.1 0.1 0.1 

POINT_DATA 3366

VECTORS velocity float
0 0 0
-1.07385e-12 0 0
2.02257e-09 0 0
3.5374e-09 0 0
-5.97483e-09 0 0
4.98408e-09 0 0
6.38889e-09 0 0
5.14034e-09 0 0
4.50532e-09 0 0
3.30837e-09 0 0
1.83974e-09 0 0
9.89116e-10 0 0
7.37038e-11 0 0
-2.18527e-09 0 0
-5.53128e-09 0 0
-8.4147e-09 0 0
-9.90303e-09 0 0
-1.03639e-08 0 0
-1.06587e-08 0 0
-1.13112e-08 0 0
-1.23527e-08 0 0
-1.35617e-08 0 0
-1.4706e-08 0 0
-1.56483e-08 0 0
-1.63486e-08 0 0
-1.68281e-08 0 0
-1.7133e-08 0 0
-1.73127e-08 0 0
-1.74089e-08 0 0
-1.7453e-08 0 0
-1.74669e-08 0 0
-1.74647e-08 0 0
-1.74552e-08 0 0
-1.74435e-08 0 0
-1.7432e-08 0 0
-1.74221e-08 0 0
-1.7414e-08 0 0
-1.74078e-08 0 0
-1.74031e-08 0 0
-1.73998e-08 0 0
-1.73974e-08 0 0
-1.73958e-08 0 0
-1.73948e-08 0 0
-1.73941e-08 0 0
-1.73938e-08 0 0
-1.73936e-08 0 0
-1.73937e-08 0 0
-1.73939e-08 0 0
-1.73942e-08 0 0
-1.73951e-08 0 0
0.0019606 0 0
0 3.86468e-07 0
-3.5461e-12 -2.01688e-09 0
3.09866e-09 -5.19162e-09 0
7.80798e-09 -1.66687e-09 0
-3.20149e-09 -8.23813e-09 0
1.67219e-08 -1.10053e-08 0
1.85332e-08 1.13089e-10 0
1.49627e-08 2.53121e-09 0
1.36791e-08 2.55001e-09 0
1.21302e-08 2.39536e-09 0
9.3889e-09 1.24025e-09 0
6.58204e-09 9.5423e-10 0
3.10552e-09 3.08569e-09 0
-2.34981e-09 5.74266e-09 0
-8.78472e-09 6.19978e-09 0
-1.37481e-08 4.34132e-09 0
-1.64204e-08 2.06984e-09 0
-1.80835e-08 8.34625e-10 0
-2.03098e-08 7.13733e-10 0
-2.36648e-08 1.079e-09 0
-2.77663e-08 1.38881e-09 0
-3.19048e-08 1.44353e-09 0
-3.55161e-08 1.28027e-09 0
-3.83359e-08 1.01053e-09 0
-4.03503e-08 7.28116e-10 0
-4.16834e-08 4.84882e-10 0
-4.25033e-08 2.9857e-10 0
-4.2968e-08 1.67414e-10 0
-4.32035e-08 8.14487e-11 0
-4.33008e-08 2.89943e-11 0
-4.33209e-08 -3.64166e-13 0
-4.33023e-08 -1.47925e-11 0
-4.32678e-08 -2.01929e-11 0
-4.32301e-08 -2.05657e-11 0
-4.31953e-08 -1.84641e-11 0
-4.31659e-08 -1.5416e-11 0
-4.31426e-08 -1.22645e-11 0
-4.31247e-08 -9.4217e-12 0
-4.31114e-08 -7.04505e-12 0
-4.31019e-08 -5.15288e-12 0
-4.30951e-08 -3.6962e-12 0
-4.30905e-08 -2.60033e-12 0
-4.30874e-08 -1.78725e-12 0
-4.30854e-08 -1.18515e-12 0
-4.30843e-08 -7.31618e-13 0
-4.30837e-08 -3.72103e-13 0
-4.30837e-08 -4.64403e-14 0
-4.30842e-08 3.21595e-13 0
-4.30854e-08 1.05905e-12 0
-4.30879e-08 3.13171e-12 0
0.00562471 -3.06443e-08 0
0 -2.12781e-08 0
-3.72613e-12 -1.93438e-09 0
3.71021e-09 -8.36941e-09 0
1.37852e-08 -1.35674e-08 0
1.55272e-08 -2.61233e-08 0
3.15109e-08 -2.19502e-08 0
2.70078e-08 -1.88752e-09 0
2.46892e-08 4.65411e-11 0
2.06513e-08 -5.20549e-09 0
1.48013e-08 -1.06392e-08 0
7.14071e-09 -1.25268e-08 0
2.15079e-09 -8.80549e-09 0
-8.2263e-10 -1.6624e-09 0
-5.51484e-09 4.46618e-09 0
-1.13975e-08 7.87364e-09 0
-1.58194e-08 9.66423e-09 0
-1.79271e-08 1.08203e-08 0
-1.8994e-08 1.13639e-08 0
-2.06084e-08 1.11253e-08 0
-2.34395e-08 1.01473e-08 0
-2.71926e-08 8.64048e-09 0
-3.11438e-08 6.88323e-09 0
-3.46485e-08 5.14226e-09 0
-3.73688e-08 3.61073e-09 0
-3.9258e-08 2.38382e-09 0
-4.04412e-08 1.47354e-09 0
-4.11029e-08 8.4132e-10 0
-4.14178e-08 4.28322e-10 0
-4.15228e-08 1.75105e-10 0
-4.15135e-08 3.11611e-11 0
-4.14506e-08 -4.22747e-11 0
-4.13698e-08 -7.28979e-11 0
-4.12903e-08 -7.93602e-11 0
-4.12205e-08 -7.35435e-11 0
-4.11635e-08 -6.2582e-11 0
-4.11189e-08 -5.04608e-11 0
-4.10852e-08 -3.91858e-11 0
-4.10604e-08 -2.959e-11 0
-4.10425e-08 -2.18596e-11 0
-4.10298e-08 -1.58596e-11 0
-4.1021e-08 -1.13233e-11 0
-4.10149e-08 -7.95458e-12 0
-4.10109e-08 -5.47732e-12 0
-4.10084e-08 -3.6527e-12 0
-4.10069e-08 -2.27615e-12 0
-4.10062e-08 -1.16402e-12 0
-4.10061e-08 -8.22502e-14 0
-4.10068e-08 1.36495e-12 0
-4.10082e-08 3.63429e-12 0
-4.10107e-08 7.13634e-12 0
0.00804944 -6.9891e-08 0
0 -6.40953e-07 0
-3.6536e-13 -3.97245e-09 0
5.64089e-09 -1.3864e-08 0
1.77023e-08 -2.59058e-08 0
1.72815e-08 -3.55176e-08 0
1.97732e-08 -1.95117e-08 0
1.48679e-08 -9.40243e-12 0
1.48667e-08 -2.21253e-09 0
5.27295e-09 -1.07863e-08 0
-4.85437e-09 -2.09522e-08 0
-1.08026e-08 -2.63925e-08 0
-1.31506e-08 -2.68414e-08 0
-1.44466e-08 -2.07266e-08 0
-1.98151e-08 -8.81766e-09 0
-2.71382e-08 4.9116e-09 0
-3.22428e-08 1.59531e-08 0
-3.31114e-08 2.14273e-08 0
-3.0417e-08 2.16427e-08 0
-2.62751e-08 1.88625e-08 0
-2.26801e-08 1.51448e-08 0
-2.05473e-08 1.15285e-08 0
-1.97478e-08 8.35869e-09 0
-1.96972e-08 5.72884e-09 0
-1.98649e-08 3.66244e-09 0
-1.99626e-08 2.13718e-09 0
-1.99093e-08 1.08614e-09 0
-1.97327e-08 4.14474e-10 0
-1.94912e-08 2.20369e-11 0
-1.92364e-08 -1.80076e-10 0
-1.90011e-08 -2.61963e-10 0
-1.88012e-08 -2.7418e-10 0
-1.86406e-08 -2.50529e-10 0
-1.85168e-08 -2.12008e-10 0
-1.84242e-08 -1.7062e-10 0
-1.83567e-08 -1.3249e-10 0
-1.83084e-08 -1.00159e-10 0
-1.82743e-08 -7.41526e-11 0
-1.82506e-08 -5.39871e-11 0
-1.82343e-08 -3.87641e-11 0
-1.82233e-08 -2.74999e-11 0
-1.82159e-08 -1.9287e-11 0
-1.82111e-08 -1.33562e-11 0
-1.8208e-08 -9.08587e-12 0
-1.82061e-08 -5.98393e-12 0
-1.82051e-08 -3.65022e-12 0
-1.82047e-08 -1.71974e-12 0
-1.82047e-08 1.66359e-13 0
-1.8205e-08 2.29883e-12 0
-1.82053e-08 4.77951e-12 0
-1.82059e-08 7.46509e-12 0
0.00904118 -7.44643e-08 0
0 -1.25251e-06 0
-2.03426e-12 -7.61027e-09 0
2.28689e-09 -2.0957e-08 0
6.65852e-09 -2.75332e-08 0
3.03567e-09 -2.23328e-08 0
-2.00406e-12 -8.15207e-09 0
-6.89122e-11 -8.70097e-11 0
7.97805e-11 -8.46994e-11 0
-6.20469e-09 -8.93047e-09 0
-2.41518e-08 -2.74565e-08 0
-3.09811e-08 -4.12143e-08 0
-2.94002e-08 -4.34826e-08 0
-3.14902e-08 -3.2465e-08 0
-3.75737e-08 -1.19214e-08 0
-4.38122e-08 8.87227e-09 0
-4.7357e-08 2.27725e-08 0
-4.65345e-08 2.70253e-08 0
-4.0952e-08 2.39238e-08 0
-3.21896e-08 1.78666e-08 0
-2.29728e-08 1.20185e-08 0
-1.5387e-08 7.4912e-09 0
-1.00739e-08 4.24761e-09 0
-6.65866e-09 1.99038e-09 0
-4.48262e-09 4.84086e-10 0
-3.02308e-09 -4.39023e-10 0
-1.97614e-09 -9.23114e-10 0
-1.19237e-09 -1.10143e-09 0
-5.99776e-10 -1.08869e-09 0
-1.56966e-10 -9.73208e-10 0
1.67047e-10 -8.1571e-10 0
3.98752e-10 -6.53392e-10 0
5.60915e-10 -5.06016e-10 0
6.72278e-10 -3.81839e-10 0
7.47524e-10 -2.82307e-10 0
7.97668e-10 -2.05337e-10 0
8.30682e-10 -1.4739e-10 0
8.52177e-10 -1.04653e-10 0
8.66015e-10 -7.36356e-11 0
8.74807e-10 -5.14054e-11 0
8.80302e-10 -3.56255e-11 0
8.83655e-10 -2.45001e-11 0
8.85624e-10 -1.6682e-11 0
8.86704e-10 -1.11744e-11 0
8.87221e-10 -7.23722e-12 0
8.87403e-10 -4.31403e-12 0
8.87432e-10 -2.001e-12 0
8.87556e-10 -4.72416e-14 0
8.8801e-10 1.63836e-12 0
8.88924e-10 3.07258e-12 0
8.89611e-10 4.42678e-12 0
0.00939415 -4.29829e-08 0
0 -1.13306e-06 0
-7.83463e-12 -8.32234e-09 0
-2.70338e-09 -1.82589e-08 0
-2.90286e-09 -2.14067e-08 0
-7.3175e-09 -2.13686e-08 0
-6.24947e-09 -9.90047e-09 0
-7.43788e-11 7.1987e-11 0
7.78523e-12 -7.78523e-12 0
7.59243e-11 -8.36419e-11 0
-1.33181e-08 -1.52414e-08 0
-3.82544e-08 -4.27316e-08 0
-4.10397e-08 -5.18175e-08 0
-4.32433e-08 -3.72667e-08 0
-4.50917e-08 -1.27773e-08 0
-4.55719e-08 1.05835e-08 0
-4.56704e-08 2.5143e-08 0
-4.47457e-08 2.7975e-08 0
-4.03712e-08 2.21328e-08 0
-3.18439e-08 1.33878e-08 0
-2.13469e-08 5.88175e-09 0
-1.17328e-08 8.89985e-10 0
-4.52222e-09 -1.94803e-09 0
2.30572e-10 -3.33131e-09 0
3.14995e-09 -3.79963e-09 0
4.90131e-09 -3.7112e-09 0
5.95804e-09 -3.3129e-09 0
6.60485e-09 -2.7791e-09 0
7.00361e-09 -2.22565e-09 0
7.24792e-09 -1.71976e-09 0
7.39471e-09 -1.29212e-09 0
7.48014e-09 -9.496e-10 0
7.52763e-09 -6.85793e-10 0
7.5523e-09 -4.8848e-10 0
7.56374e-09 -3.44155e-10 0
7.56785e-09 -2.4038e-10 0
7.56815e-09 -1.66739e-10 0
7.56666e-09 -1.1501e-10 0
7.56449e-09 -7.89548e-11 0
7.5622e-09 -5.39721e-11 0
7.56008e-09 -3.67335e-11 0
7.55822e-09 -2.48665e-11 0
7.55665e-09 -1.66955e-11 0
7.55536e-09 -1.10435e-11 0
7.55435e-09 -7.09356e-12 0
7.55365e-09 -4.30006e-12 0
7.55329e-09 -2.32391e-12 0
7.55339e-09 -9.65371e-13 0
7.554e-09 -1.15251e-13 0
7.55502e-09 2.33967e-13 0
7.55574e-09 3.23562e-13 0
0.0094766 6.10087e-09 0
0 -7.82274e-07 0
-5.80484e-12 -5.05023e-09 0
-2.85843e-09 -1.2861e-08 0
-2.55953e-09 -1.68177e-08 0
-1.08397e-08 -1.66259e-08 0
-1.57939e-08 -1.00839e-08 0
-7.02129e-09 -2.46447e-09 0
-7.24324e-11 7.15438e-11 0
4.37073e-12 -4.37073e-12 0
7.01568e-11 -8.16964e-11 0
-1.76676e-08 -2.51362e-08 0
-3.26419e-08 -4.86914e-08 0
-4.00377e-08 -3.52629e-08 0
-4.12266e-08 -1.05943e-08 0
-3.75516e-08 1.17501e-08 0
-3.30273e-08 2.48888e-08 0
-3.05225e-08 2.62384e-08 0
-2.81913e-08 1.87646e-08 0
-2.32325e-08 8.52805e-09 0
-1.5903e-08 1.66806e-10 0
-8.55302e-09 -4.85565e-09 0
-3.01325e-09 -7.06606e-09 0
3.11186e-10 -7.46624e-09 0
1.90522e-09 -6.87181e-09 0
2.44349e-09 -5.82651e-09 0
2.44865e-09 -4.66683e-09 0
2.23629e-09 -3.58288e-09 0
1.96847e-09 -2.66322e-09 0
1.71687e-09 -1.93129e-09 0
1.50668e-09 -1.37445e-09 0
1.34156e-09 -9.64433e-10 0
1.21656e-09 -6.6965e-10 0
1.12414e-09 -4.61376e-10 0
1.0569e-09 -3.16075e-10 0
1.00848e-09 -2.15624e-10 0
9.73863e-10 -1.46628e-10 0
9.49217e-10 -9.94537e-11 0
9.31701e-10 -6.73017e-11 0
9.19253e-10 -4.54352e-11 0
9.10393e-10 -3.05823e-11 0
9.04076e-10 -2.0497e-11 0
8.9957e-10 -1.3646e-11 0
8.9637e-10 -8.99268e-12 0
8.94143e-10 -5.84697e-12 0
8.92669e-10 -3.75849e-12 0
8.91791e-10 -2.44265e-12 0
8.91452e-10 -1.73898e-12 0
8.91594e-10 -1.61221e-12 0
8.92031e-10 -2.23469e-12 0
8.92234e-10 -3.60885e-12 0
0.00939413 5.24841e-08 0
0 -5.48615e-07 0
-2.21535e-12 -3.62861e-09 0
-1.17598e-09 -9.35188e-09 0
-2.57084e-09 -1.26373e-08 0
-1.04564e-08 -1.1632e-08 0
-2.01386e-08 -5.34727e-09 0
-1.97077e-08 -3.18886e-10 0
-1.11378e-08 3.09905e-10 0
-7.73597e-11 6.57326e-11 0
6.932e-11 6.0491e-11 0
3.0127e-12 -1.39383e-08 0
-2.01807e-08 -2.82328e-08 0
-3.74214e-08 -1.87473e-08 0
-4.36591e-08 3.35332e-10 0
-3.72013e-08 1.46064e-08 0
-2.44326e-08 2.0305e-08 0
-1.5201e-08 1.80551e-08 0
-1.23405e-08 1.06816e-08 0
-1.2154e-08 2.3323e-09 0
-1.15098e-08 -3.88036e-09 0
-1.0335e-08 -7.11146e-09 0
-9.66654e-09 -7.99654e-09 0
-9.97427e-09 -7.49702e-09 0
-1.1043e-08 -6.36232e-09 0
-1.2435e-08 -5.0595e-09 0
-1.38049e-08 -3.84137e-09 0
-1.49749e-08 -2.81906e-09 0
-1.5894e-08 -2.01802e-09 0
-1.65791e-08 -1.41908e-09 0
-1.70729e-08 -9.85539e-10 0
-1.74214e-08 -6.78654e-10 0
-1.7664e-08 -4.64666e-10 0
-1.78315e-08 -3.16926e-10 0
-1.79467e-08 -2.15574e-10 0
-1.80257e-08 -1.46328e-10 0
-1.808e-08 -9.91427e-11 0
-1.81173e-08 -6.70482e-11 0
-1.81429e-08 -4.52482e-11 0
-1.81607e-08 -3.04579e-11 0
-1.81729e-08 -2.04353e-11 0
-1.81815e-08 -1.36547e-11 0
-1.81874e-08 -9.08292e-12 0
-1.81916e-08 -6.02423e-12 0
-1.81944e-08 -4.01556e-12 0
-1.81964e-08 -2.75896e-12 0
-1.81978e-08 -2.0838e-12 0
-1.81986e-08 -1.93515e-12 0
-1.81991e-08 -2.39082e-12 0
-1.81994e-08 -3.79792e-12 0
-1.82002e-08 -6.45526e-12 0
0.00904115 7.66183e-08 0
0 -4.65734e-07 0
-2.17504e-12 -1.90129e-09 0
-1.89756e-10 -5.28921e-09 0
-3.57055e-09 -7.87039e-09 0
-1.36903e-08 -7.82258e-09 0
-2.56713e-08 -1.63067e-09 0
-2.83727e-08 3.92091e-09 0
-2.51472e-08 -4.40167e-09 0
-1.58634e-08 -6.61345e-09 0
-1.36066e-08 -3.1634e-13 0
-1.48428e-08 -5.18386e-09 0
-3.18606e-08 -7.6586e-09 0
-4.90189e-08 1.64906e-09 0
-5.18008e-08 1.19686e-08 0
-3.78574e-08 1.48126e-08 0
-1.79362e-08 1.06609e-08 0
-6.42558e-09 3.91399e-09 0
-7.24341e-09 -1.88644e-09 0
-1.41984e-08 -5.05808e-09 0
-2.09015e-08 -5.74747e-09 0
-2.54126e-08 -5.08967e-09 0
-2.84272e-08 -4.09111e-09 0
-3.08396e-08 -3.20236e-09 0
-3.30008e-08 -2.4987e-09 0
-3.4915e-08 -1.93948e-09 0
-3.65142e-08 -1.48609e-09 0
-3.77737e-08 -1.11923e-09 0
-3.87204e-08 -8.28301e-10 0
-3.94085e-08 -6.03483e-10 0
-3.98973e-08 -4.33938e-10 0
-4.02395e-08 -3.08653e-10 0
-4.04768e-08 -2.17561e-10 0
-4.06404e-08 -1.52177e-10 0
-4.07529e-08 -1.0573e-10 0
-4.08302e-08 -7.30164e-11 0
-4.08833e-08 -5.01431e-11 0
-4.09199e-08 -3.42515e-11 0
-4.0945e-08 -2.32733e-11 0
-4.09624e-08 -1.57297e-11 0
-4.09744e-08 -1.0574e-11 0
-4.09827e-08 -7.07259e-12 0
-4.09885e-08 -4.71625e-12 0
-4.09926e-08 -3.15713e-12 0
-4.09955e-08 -2.1661e-12 0
-4.09975e-08 -1.6049e-12 0
-4.09991e-08 -1.41147e-12 0
-4.10003e-08 -1.60763e-12 0
-4.10013e-08 -2.30149e-12 0
-4.10027e-08 -3.79865e-12 0
-4.10051e-08 -6.48567e-12 0
0.00804943 6.42185e-08 0
0 -4.8063e-07 0
7.67267e-15 -3.32248e-10 0
3.70598e-10 -1.35705e-09 0
-4.35744e-09 -2.55625e-09 0
-1.57069e-08 -2.83425e-09 0
-2.87328e-08 -1.89501e-09 0
-3.2586e-08 4.20848e-10 0
-2.96266e-08 -1.61514e-09 0
-3.41562e-08 -3.45261e-09 0
-3.18784e-08 7.60057e-10 0
-2.97012e-08 4.93176e-09 0
-3.33959e-08 7.81862e-09 0
-3.58397e-08 8.42893e-09 0
-3.08946e-08 6.67723e-09 0
-1.80674e-08 3.60039e-09 0
-5.73473e-09 -4.47754e-10 0
-3.13701e-09 -4.12851e-09 0
-1.0505e-08 -5.61231e-09 0
-2.10962e-08 -4.67876e-09 0
-2.93801e-08 -2.72396e-09 0
-3.41607e-08 -1.10005e-09 0
-3.65955e-08 -2.47064e-10 0
-3.79658e-08 2.0059e-11 0
-3.89608e-08 1.14631e-11 0
-3.9813e-08 -6.6863e-11 0
-4.05574e-08 -1.2765e-10 0
-4.11827e-08 -1.52355e-10 0
-4.16838e-08 -1.48922e-10 0
-4.20697e-08 -1.30127e-10 0
-4.23582e-08 -1.059e-10 0
-4.2569e-08 -8.21117e-11 0
-4.27207e-08 -6.15042e-11 0
-4.28285e-08 -4.49031e-11 0
-4.29044e-08 -3.21449e-11 0
-4.29577e-08 -2.26555e-11 0
-4.29948e-08 -1.57638e-11 0
-4.30207e-08 -1.08486e-11 0
-4.30387e-08 -7.39298e-12 0
-4.30513e-08 -4.99261e-12 0
-4.306e-08 -3.34342e-12 0
-4.30661e-08 -2.22366e-12 0
-4.30705e-08 -1.47597e-12 0
-4.30736e-08 -9.9242e-13 0
-4.30758e-08 -7.03969e-13 0
-4.30775e-08 -5.73562e-13 0
-4.30789e-08 -5.92532e-13 0
-4.30801e-08 -7.86873e-13 0
-4.30815e-08 -1.18737e-12 0
-4.30834e-08 -1.82458e-12 0
-4.30867e-08 -2.93776e-12 0
0.00562473 2.43225e-08 0
0 0 0
8.60343e-13 0 0
2.59303e-10 0 0
-2.17191e-09 0 0
-7.45895e-09 0 0
-1.36535e-08 0 0
-1.69008e-08 0 0
-1.5617e-08 0 0
-1.82985e-08 0 0
-1.82728e-08 0 0
-1.48552e-08 0 0
-1.0422e-08 0 0
-6.54967e-09 0 0
-3.50904e-09 0 0
-6.13493e-10 0 0
7.2592e-10 0 0
-1.30283e-09 0 0
-5.97252e-09 0 0
-1.07916e-08 0 0
-1.40537e-08 0 0
-1.56442e-08 0 0
-1.6217e-08 0 0
-1.63812e-08 0 0
-1.64593e-08 0 0
-1.65582e-08 0 0
-1.6686e-08 0 0
-1.6823e-08 0 0
-1.69512e-08 0 0
-1.70606e-08 0 0
-1.71483e-08 0 0
-1.72158e-08 0 0
-1.72661e-08 0 0
-1.73028e-08 0 0
-1.73292e-08 0 0
-1.73479e-08 0 0
-1.73612e-08 0 0
-1.73705e-08 0 0
-1.7377e-08 0 0
-1.73816e-08 0 0
-1.73848e-08 0 0
-1.73871e-08 0 0
-1.73887e-08 0 0
-1.73899e-08 0 0
-1.73908e-08 0 0
-1.73915e-08 0 0
-1.73921e-08 0 0
-1.73927e-08 0 0
-1.73933e-08 0 0
-1.73943e-08 0 0
-1.73959e-08 0 0
0.00196062 0 0
0 0 5.36625e-07
-3.67989e-12 0 -8.19305e-12
2.24308e-09 0 1.65064e-09
8.69433e-09 0 9.66177e-09
-1.98951e-08 0 6.78898e-09
7.76719e-09 0 -1.36086e-09
1.36982e-08 0 -2.71796e-10
1.25069e-08 0 -6.50058e-10
1.32399e-08 0 -7.20437e-10
1.4937e-08 0 2.67847e-10
1.75122e-08 0 1.07666e-09
2.12156e-08 0 8.09494e-10
2.3452e-08 0 8.64161e-11
2.05176e-08 0 -1.39918e-10
1.2134e-08 0 2.74322e-11
1.94188e-09 0 2.8252e-11
-6.67298e-09 0 -1.2276e-10
-1.31302e-08 0 -8.10749e-11
-1.8555e-08 0 2.31498e-10
-2.38695e-08 0 6.1298e-10
-2.91582e-08 0 8.59694e-10
-3.40308e-08 0 9.07848e-10
-3.81046e-08 0 8.04435e-10
-4.12187e-08 0 6.3025e-10
-4.34215e-08 0 4.49853e-10
-4.48762e-08 0 2.97738e-10
-4.57751e-08 0 1.84356e-10
-4.62912e-08 0 1.06835e-10
-4.65601e-08 0 5.73028e-11
-4.66785e-08 0 2.74958e-11
-4.67117e-08 0 1.0625e-11
-4.67009e-08 0 1.76555e-12
-4.66707e-08 0 -2.38805e-12
-4.66352e-08 0 -3.93242e-12
-4.66013e-08 0 -4.13413e-12
-4.65722e-08 0 -3.72219e-12
-4.65487e-08 0 -3.09329e-12
-4.65306e-08 0 -2.44741e-12
-4.6517e-08 0 -1.87331e-12
-4.65072e-08 0 -1.40028e-12
-4.65002e-08 0 -1.02801e-12
-4.64954e-08 0 -7.43347e-13
-4.64921e-08 0 -5.29319e-13
-4.649e-08 0 -3.68824e-13
-4.64888e-08 0 -2.46807e-13
-4.64882e-08 0 -1.53301e-13
-4.6488e-08 0 -8.30754e-14
-4.64884e-08 0 -7.11658e-14
-4.64895e-08 0 -4.76744e-14
-4.64919e-08 0 7.71844e-13
0.00556831 0 -4.07903e-09
0.0036 -3.09321e-07 -6.33227e-08
0.0035998 -0.00138561 -2.21819e-05
0.0067153 -0.00391493 0.000106803
0.0136073 -0.005913 -0.000542649
0.0235336 -0.0144265 -0.00430243
0.0462867 -0.013299 -0.00487799
0.049781 -0.00187753 -0.00164581
0.0495187 0.00267714 -0.000168275
0.0445277 0.00500401 0.000559018
0.0389134 0.00517117 0.000532216
0.0337892 0.00450481 0.000249919
0.0294726 0.00362021 -2.7672e-05
0.0260551 0.00273181 -0.000215418
0.0234791 0.00193591 -0.000302774
0.0215827 0.00129846 -0.000305885
0.0201843 0.000845971 -0.000250971
0.0191436 0.000556102 -0.000170728
0.0183686 0.000379493 -9.48224e-05
0.0177987 0.00026858 -3.97242e-05
0.0173896 0.000192407 -7.73152e-06
0.0171051 0.000135896 6.75219e-06
0.0169143 9.30295e-05 1.08615e-05
0.0167914 6.12018e-05 1.00942e-05
0.0167155 3.85152e-05 7.71599e-06
0.0166708 2.3066e-05 5.28574e-06
0.0166459 1.30121e-05 3.35828e-06
0.0166332 6.75939e-06 2.00905e-06
0.0166275 3.05526e-06 1.13621e-06
0.0166256 9.85311e-07 6.0361e-07
0.0166257 -8.12759e-08 2.94518e-07
0.0166266 -5.59992e-07 1.23994e-07
0.0166279 -7.13421e-07 3.55071e-08
0.016629 -7.00876e-07 -6.48167e-09
0.0166301 -6.14703e-07 -2.33519e-08
0.0166309 -5.05458e-07 -2.74737e-08
0.0166316 -3.98629e-07 -2.57225e-08
0.0166321 -3.05338e-07 -2.17422e-08
0.0166325 -2.28936e-07 -1.73404e-08
0.0166328 -1.68915e-07 -1.33219e-08
0.016633 -1.23123e-07 -9.96852e-09
0.0166331 -8.89441e-08 -7.30877e-09
0.0166332 -6.3885e-08 -5.26762e-09
0.0166333 -4.58169e-08 -3.74173e-09
0.0166334 -3.30449e-08 -2.63025e-09
0.0166334 -2.43092e-08 -1.85201e-09
0.0166334 -1.86961e-08 -1.25152e-09
0.0166335 -1.56768e-08 -5.03703e-10
0.0166335 -1.51245e-08 1.6733e-09
0.0166335 -2.07807e-08 5.67797e-09
0.0166336 -5.77817e-08 -4.0917e-09
0.0166337 -8.94768e-08 -1.61532e-08
0.01 -1.39699e-07 -1.45903e-06
0.0100007 -0.00298984 -0.000598566
0.0147895 -0.00994443 -0.000787401
0.0241601 -0.0177121 -0.00126046
0.0384933 -0.0324502 -0.00336279
0.0591195 -0.0247341 -0.000818894
0.056373 -0.00269058 0.00316618
0.0558119 0.00513266 0.00337758
0.0500288 0.0101331 0.00298176
0.044544 0.0103078 0.00206223
0.0400324 0.00925188 0.00109446
0.0363152 0.00782881 0.000345859
0.0333414 0.00631019 -0.000167211
0.0310626 0.00488666 -0.000457198
0.0293187 0.0036815 -0.000539
0.0279695 0.00272348 -0.000468654
0.0269321 0.00198385 -0.000328216
0.0261549 0.00142174 -0.000187907
0.0255927 0.00100022 -8.39753e-05
0.0252012 0.000688554 -2.21724e-05
0.0249392 0.000461981 7.23203e-06
0.0247716 0.000300841 1.70224e-05
0.0246699 0.000189341 1.71999e-05
0.0246121 0.000114593 1.38352e-05
0.0245822 6.6179e-05 9.93145e-06
0.0245688 3.59498e-05 6.65003e-06
0.0245648 1.78184e-05 4.2455e-06
0.0245654 7.44413e-06 2.61483e-06
0.0245681 1.86191e-06 1.56317e-06
0.0245714 -8.75813e-07 9.09088e-07
0.0245746 -2.00258e-06 5.13932e-07
0.0245773 -2.27194e-06 2.81322e-07
0.0245794 -2.12633e-06 1.47867e-07
0.0245811 -1.81358e-06 7.34062e-08
0.0245824 -1.46394e-06 3.32181e-08
0.0245834 -1.13947e-06 1.24509e-08
0.0245841 -8.64425e-07 2.38248e-09
0.0245846 -6.43534e-07 -1.99213e-09
0.024585 -4.72379e-07 -3.47345e-09
0.0245852 -3.4311e-07 -3.58154e-09
0.0245854 -2.4736e-07 -3.10918e-09
0.0245855 -1.77573e-07 -2.45468e-09
0.0245856 -1.27504e-07 -1.81275e-09
0.0245857 -9.22722e-08 -1.257e-09
0.0245857 -6.8311e-08 -8.12199e-10
0.0245858 -5.32431e-08 -2.62479e-10
0.0245858 -4.62546e-08 1.03291e-09
0.0245858 -5.18223e-08 4.06263e-09
0.0245859 -7.97828e-08 7.07877e-09
0.024586 -1.51162e-07 -1.50356e-08
0.024586 -2.0161e-07 -3.8078e-08
0.0148 -9.63366e-07 -1.75061e-06
0.0148024 -0.00529165 -0.0011282
0.020367 -0.0163999 -0.00244021
0.0274927 -0.028748 -0.00394168
0.0321152 -0.0460647 -0.00576203
0.0305997 -0.0284447 -0.00140739
0.0268382 -1.23271e-05 0.00329176
0.0262826 0.00708478 0.00351399
0.0298182 0.0144923 0.00341071
0.0301769 0.0139698 0.0024238
0.0293718 0.0122169 0.00143916
0.0285388 0.0103786 0.000591374
0.0278975 0.00846641 -1.27168e-05
0.0275686 0.0066348 -0.000358445
0.0274388 0.00504695 -0.000459075
0.027414 0.00373196 -0.000394666
0.0274461 0.00267968 -0.000262033
0.0275069 0.00187157 -0.000131839
0.0275766 0.00127531 -3.7246e-05
0.0276437 0.000848354 1.66794e-05
0.0277039 0.000549004 3.88896e-05
0.0277571 0.00034324 4.17799e-05
0.0278037 0.000205308 3.56214e-05
0.0278438 0.000115818 2.68996e-05
0.0278774 6.00478e-05 1.88191e-05
0.0279046 2.69386e-05 1.24908e-05
0.0279259 8.44677e-06 7.97564e-06
0.0279421 -1.0323e-06 4.93993e-06
0.027954 -5.22943e-06 2.9819e-06
0.0279627 -6.5172e-06 1.75812e-06
0.0279689 -6.3361e-06 1.01284e-06
0.0279732 -5.51737e-06 5.69307e-07
0.0279762 -4.51155e-06 3.11098e-07
0.0279783 -3.54204e-06 1.64133e-07
0.0279797 -2.70331e-06 8.25302e-08
0.0279807 -2.02113e-06 3.85266e-08
0.0279814 -1.488e-06 1.56741e-08
0.0279818 -1.08273e-06 4.42624e-09
0.0279821 -7.80865e-07 -6.42726e-10
0.0279824 -5.59489e-07 -2.54629e-09
0.0279825 -3.99179e-07 -2.91233e-09
0.0279826 -2.84408e-07 -2.59646e-09
0.0279827 -2.03272e-07 -2.04043e-09
0.0279827 -1.46987e-07 -1.42253e-09
0.0279828 -1.09411e-07 -7.51222e-10
0.0279828 -8.72834e-08 1.92374e-10
0.0279828 -8.03928e-08 2.00384e-09
0.0279829 -9.23583e-08 3.93402e-09
0.0279829 -1.28669e-07 -7.52322e-10
0.0279829 -1.85705e-07 -3.46742e-08
0.0279829 -2.17896e-07 -6.32078e-08
0.018 -1.94238e-06 -1.70345e-06
0.018003 -0.00698167 -0.00188019
0.0207566 -0.0189332 -0.00492043
0.0206959 -0.0248821 -0.00632931
0.0160698 -0.0269249 -0.00761359
-1.60343e-06 -0.014004 -0.00432553
9.76229e-05 2.64883e-05 9.20273e-07
-3.35226e-05 3.48826e-05 0.000649898
0.00660377 0.00413089 0.00142274
0.0135432 0.0094054 0.00138179
0.0169788 0.010277 0.000965666
0.0187334 0.00932059 0.000417039
0.0204095 0.00772218 -7.24159e-05
0.0220987 0.00596954 -0.00032958
0.0236352 0.00442834 -0.00037606
0.0249474 0.00315545 -0.000304851
0.0260292 0.00215254 -0.000193878
0.0268939 0.00140914 -8.86227e-05
0.0275605 0.000889847 -1.00976e-05
0.0280555 0.000541798 3.6221e-05
0.0284124 0.000313888 5.4778e-05
0.0286649 0.000167519 5.4834e-05
0.0288415 7.64777e-05 4.57339e-05
0.028964 2.28998e-05 3.41555e-05
0.0290482 -5.92586e-06 2.36573e-05
0.0291054 -1.9181e-05 1.55114e-05
0.0291437 -2.33113e-05 9.75044e-06
0.029169 -2.25974e-05 5.92173e-06
0.0291855 -1.96933e-05 3.48963e-06
0.0291961 -1.61184e-05 1.99849e-06
0.0292028 -1.2658e-05 1.11129e-06
0.0292071 -9.65594e-06 5.97665e-07
0.0292098 -7.2112e-06 3.0824e-07
0.0292115 -5.30051e-06 1.49819e-07
0.0292125 -3.84926e-06 6.60217e-08
0.0292132 -2.7695e-06 2.36373e-08
0.0292136 -1.97842e-06 3.57817e-09
0.0292139 -1.40561e-06 -4.86376e-09
0.029214 -9.94625e-07 -7.54286e-09
0.0292141 -7.01953e-07 -7.56413e-09
0.0292142 -4.94919e-07 -6.50977e-09
0.0292143 -3.49498e-07 -5.14612e-09
0.0292143 -2.4834e-07 -3.81463e-09
0.0292143 -1.79281e-07 -2.60738e-09
0.0292143 -1.34287e-07 -1.4947e-09
0.0292143 -1.0858e-07 -5.06953e-10
0.0292143 -9.94764e-08 3.27022e-10
0.0292143 -1.03806e-07 -5.45838e-10
0.0292143 -1.1866e-07 -1.35186e-08
0.0292143 -1.31017e-07 -5.1953e-08
0.0292142 -1.33508e-07 -7.86796e-08
0.0196 -2.81024e-06 -2.57307e-06
0.019601 -0.00588191 -0.00274486
0.0190615 -0.0131227 -0.0064713
0.0159632 -0.0161247 -0.00667615
0.0109293 -0.0151007 -0.00668377
0.00175117 -0.00621967 -0.00503577
7.27418e-05 -6.6798e-05 -0.00129923
3.32753e-05 -3.32753e-05 -4.06661e-08
-3.29082e-05 3.41371e-05 0.000253922
0.00397121 0.00283064 0.000539456
0.00912424 0.00664856 0.000467883
0.0120472 0.00697513 0.000118685
0.0152949 0.00544157 -0.000259407
0.0184498 0.00387153 -0.000410953
0.0211505 0.00262652 -0.000396118
0.0233351 0.00165483 -0.000312568
0.0250593 0.000924245 -0.00021372
0.0263913 0.000425818 -0.00012048
0.0273876 0.000126853 -4.36238e-05
0.0281033 -2.99678e-05 9.09218e-06
0.0285979 -0.000100902 3.61454e-05
0.0289292 -0.000125108 4.30298e-05
0.0291461 -0.000125014 3.82701e-05
0.0292853 -0.000112779 2.9174e-05
0.0293731 -9.53581e-05 2.01156e-05
0.0294274 -7.69238e-05 1.2903e-05
0.0294603 -5.9862e-05 7.82476e-06
0.0294798 -4.53048e-05 4.52593e-06
0.0294911 -3.35568e-05 2.50499e-06
0.0294975 -2.44474e-05 1.3236e-06
0.029501 -1.75883e-05 6.61029e-07
0.0295029 -1.25344e-05 3.04377e-07
0.0295038 -8.86999e-06 1.21073e-07
0.0295042 -6.24443e-06 3.23887e-08
0.0295044 -4.37954e-06 -6.6575e-09
0.0295044 -3.06336e-06 -2.08787e-08
0.0295044 -2.13876e-06 -2.34894e-08
0.0295044 -1.49147e-06 -2.12522e-08
0.0295043 -1.03955e-06 -1.74542e-08
0.0295043 -7.24767e-07 -1.35722e-08
0.0295043 -5.06091e-07 -1.01742e-08
0.0295042 -3.54771e-07 -7.40755e-09
0.0295042 -2.50847e-07 -5.25273e-09
0.0295042 -1.80588e-07 -3.64528e-09
0.0295042 -1.34518e-07 -2.61472e-09
0.0295042 -1.05491e-07 -2.34377e-09
0.0295042 -8.74087e-08 -3.08208e-09
0.0295041 -7.35388e-08 -5.89899e-09
0.0295041 -5.61254e-08 -2.18776e-08
0.029504 -2.13032e-08 -5.79647e-08
0.0295039 2.9593e-09 -8.02437e-08
0.0196 -1.35009e-06 -3.58162e-06
0.0195999 -0.003674 -0.00312395
0.0187831 -0.00805082 -0.00650967
0.0175374 -0.00805391 -0.00604926
0.0132321 -0.00421357 -0.00554798
0.00913617 0.002641 -0.00531931
0.00616167 0.00317884 -0.00309154
7.29039e-05 -6.0692e-05 -0.000660418
2.77839e-05 -2.77839e-05 -1.27262e-07
-3.23598e-05 3.34565e-05 9.07579e-05
0.00279291 0.00205361 0.000352402
0.00716726 0.00325636 0.000260505
0.0124747 0.00165774 -0.00014701
0.0171265 0.000527093 -0.000319521
0.0207261 -7.52364e-05 -0.000326049
0.0233889 -0.000448478 -0.000274902
0.0253293 -0.00068859 -0.000215813
0.0267211 -0.000791067 -0.000155781
0.0276875 -0.000766614 -9.5455e-05
0.0283268 -0.000662884 -4.34091e-05
0.0287272 -0.000532464 -8.19775e-06
0.028965 -0.000408698 9.22408e-06
0.0290991 -0.000304847 1.39906e-05
0.0291705 -0.000222833 1.23727e-05
0.0292059 -0.000160258 8.80001e-06
0.0292216 -0.000113679 5.45981e-06
0.029227 -7.9724e-05 3.03977e-06
0.0292276 -5.54139e-05 1.51957e-06
0.029226 -3.82683e-05 6.5892e-07
0.0292238 -2.63157e-05 2.15547e-07
0.0292217 -1.8053e-05 1.08974e-08
0.0292199 -1.23726e-05 -6.83555e-08
0.0292184 -8.4798e-06 -8.74583e-08
0.0292173 -5.81586e-06 -8.11266e-08
0.0292165 -3.99313e-06 -6.64371e-08
0.0292159 -2.74516e-06 -5.10024e-08
0.0292154 -1.8898e-06 -3.76981e-08
0.0292151 -1.30284e-06 -2.72147e-08
0.0292149 -8.99644e-07 -1.93492e-08
0.0292147 -6.22504e-07 -1.36151e-08
0.0292146 -4.32049e-07 -9.50452e-09
0.0292145 -3.01366e-07 -6.6018e-09
0.0292145 -2.11954e-07 -4.63165e-09
0.0292144 -1.50838e-07 -3.4416e-09
0.0292144 -1.08501e-07 -3.04575e-09
0.0292144 -7.73451e-08 -3.49216e-09
0.0292143 -5.06496e-08 -4.8241e-09
0.0292143 -2.10855e-08 -7.65537e-09
0.0292142 2.26729e-08 -2.10838e-08
0.0292142 9.39907e-08 -5.05909e-08
0.0292141 1.38081e-07 -6.86053e-08
0.018 -8.6424e-07 -3.56932e-06
0.0180009 -0.00199899 -0.00304628
0.0183236 -0.00384253 -0.00615189
0.0183913 -0.00260547 -0.00528594
0.0173897 0.000703266 -0.00420881
0.0171239 0.00713506 -0.00396723
0.0178594 0.0126046 -0.00297723
0.0109778 0.00693386 -0.00147035
7.43976e-05 -4.69865e-05 -0.000428068
-2.54111e-05 -5.46643e-05 5.55544e-07
7.87429e-06 -0.000648574 0.000743004
0.00836958 -0.00272984 0.00108481
0.0157667 -0.00431656 0.000470783
0.0208007 -0.00408013 0.00017762
0.0239774 -0.00331742 6.38662e-05
0.0259346 -0.00264673 -2.0411e-06
0.0271159 -0.00214663 -6.43433e-05
0.0277939 -0.00173244 -0.00010898
0.0281419 -0.00134998 -0.000117652
0.0282818 -0.00100398 -9.62907e-05
0.028303 -0.000716639 -6.45733e-05
0.0282671 -0.000496937 -3.74756e-05
0.0282118 -0.000338386 -1.97671e-05
0.0281566 -0.000227889 -9.98167e-06
0.0281097 -0.000152434 -5.1088e-06
0.0280732 -0.000101559 -2.78724e-06
0.0280461 -6.75523e-05 -1.65512e-06
0.0280266 -4.495e-05 -1.05314e-06
0.028013 -2.99717e-05 -6.95394e-07
0.0280036 -2.00498e-05 -4.63831e-07
0.0279971 -1.34656e-05 -3.07735e-07
0.0279926 -9.08176e-06 -2.01779e-07
0.0279895 -6.15029e-06 -1.30577e-07
0.0279874 -4.18083e-06 -8.34914e-08
0.027986 -2.85154e-06 -5.28633e-08
0.027985 -1.95051e-06 -3.32287e-08
0.0279843 -1.3375e-06 -2.07896e-08
0.0279839 -9.19169e-07 -1.2979e-08
0.0279836 -6.33031e-07 -8.10528e-09
0.0279833 -4.37002e-07 -5.07816e-09
0.0279832 -3.02558e-07 -3.21123e-09
0.0279831 -2.10182e-07 -2.09756e-09
0.027983 -1.4629e-07 -1.52724e-09
0.0279829 -1.01146e-07 -1.38948e-09
0.0279829 -6.73899e-08 -1.6741e-09
0.0279829 -3.89127e-08 -2.33801e-09
0.0279828 -9.81852e-09 -3.30986e-09
0.0279828 2.67154e-08 -4.98892e-09
0.0279828 8.30774e-08 -1.24215e-08
0.0279828 1.68605e-07 -3.3361e-08
0.0279827 2.18859e-07 -4.79885e-08
0.0148 -4.85316e-07 -3.16214e-06
0.0148015 -0.00102738 -0.00282386
0.0162367 -0.00161633 -0.00541731
0.0178203 2.33579e-05 -0.00429485
0.019178 0.00324055 -0.0030899
0.020948 0.00739946 -0.00286749
0.0247685 0.0129809 -0.00241145
0.028058 0.0195287 -0.00149812
0.0230593 0.0113194 -0.00032944
0.0235018 1.04614e-10 0.000628895
0.026646 -0.00667998 0.0015579
0.030145 -0.0130537 0.00210771
0.0310757 -0.0110276 0.00164897
0.0305525 -0.00777343 0.00117605
0.0295317 -0.00518963 0.000745325
0.0284746 -0.00347016 0.000381468
0.0275479 -0.00235799 0.000100854
0.0267872 -0.00160421 -7.56301e-05
0.0261844 -0.00107009 -0.000145955
0.025721 -0.000694371 -0.000141318
0.0253755 -0.000441544 -0.000104723
0.0251255 -0.000279072 -6.62504e-05
0.0249495 -0.000177432 -3.78026e-05
0.0248284 -0.000114169 -2.0143e-05
0.0247466 -7.44221e-05 -1.02591e-05
0.0246922 -4.90767e-05 -5.06946e-06
0.0246562 -3.2676e-05 -2.44874e-06
0.0246325 -2.19289e-05 -1.15582e-06
0.024617 -1.48125e-05 -5.27341e-07
0.0246067 -1.00586e-05 -2.25791e-07
0.0245999 -6.85954e-06 -8.37893e-08
0.0245954 -4.69345e-06 -1.92563e-08
0.0245923 -3.21951e-06 7.95831e-09
0.0245903 -2.21261e-06 1.75187e-08
0.0245889 -1.52272e-06 1.90571e-08
0.0245879 -1.04901e-06 1.72622e-08
0.0245873 -7.23256e-07 1.43698e-08
0.0245868 -4.99028e-07 1.13963e-08
0.0245865 -3.44597e-07 8.75566e-09
0.0245863 -2.38169e-07 6.57054e-09
0.0245861 -1.64683e-07 4.83006e-09
0.024586 -1.13613e-07 3.46419e-09
0.024586 -7.74617e-08 2.38165e-09
0.0245859 -5.06727e-08 1.51107e-09
0.0245859 -2.88053e-08 7.7619e-10
0.0245859 -7.88726e-09 1.82076e-10
0.0245858 1.63155e-08 -1.51066e-10
0.0245858 4.84291e-08 -5.17701e-10
0.0245859 9.59157e-08 -2.63741e-09
0.0245859 1.61791e-07 -1.70143e-08
0.024586 1.98809e-07 -2.95572e-08
0.01 -9.26161e-07 -2.86255e-06
0.0100008 -0.000630124 -0.0022998
0.0113318 -0.000697502 -0.00414081
0.0132237 0.000578408 -0.00292302
0.0157055 0.00255265 -0.00184234
0.0196561 0.005595 -0.0018527
0.0255928 0.00836906 -0.00238278
0.0346878 0.010123 -0.00209371