# vtk DataFile Version 2.0
Tobias Weinzierl: CPU, Manycore and Cluster Computing
ASCII

DATASET STRUCTURED_POINTS
DIMENSIONS  51 11 6

ORIGIN 0 0 0 

SPACING 0.1 0.1 0.1 

POINT_DATA 3366

VECTORS velocity float
0 0 0
-1.21689e-10 0 0
-1.2465e-07 0 0
-2.81923e-07 0 0
-3.42247e-07 0 0
-1.04889e-07 0 0
-1.40453e-08 0 0
6.1603e-09 0 0
-2.98904e-08 0 0
-1.043e-07 0 0
-1.64832e-07 0 0
-1.90942e-07 0 0
-1.92617e-07 0 0
-1.85651e-07 0 0
-1.79456e-07 0 0
-1.76873e-07 0 0
-1.77176e-07 0 0
-1.7884e-07 0 0
-1.80762e-07 0 0
-1.82417e-07 0 0
-1.83658e-07 0 0
-1.84514e-07 0 0
-1.85076e-07 0 0
-1.85433e-07 0 0
-1.85659e-07 0 0
-1.85806e-07 0 0
-1.85906e-07 0 0
-1.85981e-07 0 0
-1.86043e-07 0 0
-1.86097e-07 0 0
-1.86148e-07 0 0
-1.86196e-07 0 0
-1.86241e-07 0 0
-1.86285e-07 0 0
-1.86325e-07 0 0
-1.86362e-07 0 0
-1.86396e-07 0 0
-1.86427e-07 0 0
-1.86454e-07 0 0
-1.86478e-07 0 0
-1.86499e-07 0 0
-1.86517e-07 0 0
-1.86533e-07 0 0
-1.86547e-07 0 0
-1.8656e-07 0 0
-1.86571e-07 0 0
-1.86583e-07 0 0
-1.86596e-07 0 0
-1.86614e-07 0 0
-1.86646e-07 0 0
0.0026222 0 0
0 4.61239e-07 0
-1.89341e-10 5.84769e-08 0
-2.25621e-07 1.15001e-07 0
-5.36166e-07 1.00703e-07 0
-6.09973e-07 6.67895e-08 0
-2.19924e-07 8.20634e-08 0
-9.2843e-08 1.24905e-07 0
-5.34128e-08 1.16374e-07 0
-5.83938e-08 1.06285e-07 0
-1.5098e-07 1.00231e-07 0
-2.50141e-07 6.98058e-08 0
-3.02542e-07 3.32732e-08 0
-3.16281e-07 8.31697e-09 0
-3.16615e-07 -2.01334e-09 0
-3.19024e-07 -2.89949e-09 0
-3.26799e-07 -5.26069e-10 0
-3.37268e-07 1.50294e-09 0
-3.47399e-07 2.31193e-09 0
-3.55632e-07 2.23806e-09 0
-3.61648e-07 1.7755e-09 0
-3.65743e-07 1.24505e-09 0
-3.68395e-07 7.92826e-10 0
-3.70053e-07 4.59421e-10 0
-3.71069e-07 2.36376e-10 0
-3.71688e-07 9.87342e-11 0
-3.72073e-07 2.05212e-11 0
-3.72325e-07 -1.94535e-11 0
-3.72503e-07 -3.64746e-11 0
-3.72642e-07 -4.07005e-11 0
-3.7276e-07 -3.84552e-11 0
-3.72866e-07 -3.34423e-11 0
-3.72965e-07 -2.76884e-11 0
-3.73058e-07 -2.22057e-11 0
-3.73146e-07 -1.74253e-11 0
-3.73228e-07 -1.34654e-11 0
-3.73303e-07 -1.02902e-11 0
-3.73371e-07 -7.79826e-12 0
-3.73433e-07 -5.86868e-12 0
-3.73488e-07 -4.383e-12 0
-3.73536e-07 -3.23215e-12 0
-3.73578e-07 -2.31465e-12 0
-3.73615e-07 -1.52753e-12 0
-3.73646e-07 -7.49025e-13 0
-3.73674e-07 1.9333e-13 0
-3.73699e-07 1.58406e-12 0
-3.73721e-07 3.92276e-12 0
-3.73743e-07 8.08044e-12 0
-3.73766e-07 1.56458e-11 0
-3.73797e-07 2.97923e-11 0
-3.73849e-07 5.60041e-11 0
0.00707963 -2.43594e-07 0
0 2.62159e-08 0
-1.03366e-10 6.70111e-08 0
-1.26693e-07 7.03708e-08 0
-3.88709e-07 -6.38027e-08 0
-3.48342e-07 -7.80863e-08 0
-7.92144e-08 8.07998e-08 0
-1.35342e-07 1.85398e-07 0
-1.53624e-07 1.04565e-07 0
-1.26915e-07 1.15548e-08 0
-1.4554e-07 6.8655e-09 0
-2.06075e-07 2.58917e-08 0
-2.41015e-07 5.32184e-08 0
-2.5063e-07 6.99447e-08 0
-2.49969e-07 6.74737e-08 0
-2.53099e-07 5.51332e-08 0
-2.63361e-07 4.17458e-08 0
-2.76879e-07 3.0189e-08 0
-2.89548e-07 2.09653e-08 0
-2.99454e-07 1.3998e-08 0
-3.06393e-07 8.99176e-09 0
-3.10911e-07 5.55461e-09 0
-3.13707e-07 3.29096e-09 0
-3.1538e-07 1.8577e-09 0
-3.16361e-07 9.84972e-10 0
-3.16938e-07 4.75047e-10 0
-3.17287e-07 1.9096e-10 0
-3.17514e-07 4.21743e-11 0
-3.17676e-07 -2.87523e-11 0
-3.17807e-07 -5.69138e-11 0
-3.17921e-07 -6.29782e-11 0
-3.18026e-07 -5.86552e-11 0
-3.18125e-07 -5.02836e-11 0
-3.1822e-07 -4.10928e-11 0
-3.18308e-07 -3.25771e-11 0
-3.18391e-07 -2.53047e-11 0
-3.18468e-07 -1.93788e-11 0
-3.18537e-07 -1.46904e-11 0
-3.186e-07 -1.10504e-11 0
-3.18655e-07 -8.25399e-12 0
-3.18703e-07 -6.10695e-12 0
-3.18746e-07 -4.42969e-12 0
-3.18783e-07 -3.04698e-12 0
-3.18814e-07 -1.76352e-12 0
-3.18842e-07 -3.22728e-13 0
-3.18865e-07 1.6679e-12 0
-3.18886e-07 4.89934e-12 0
-3.18904e-07 1.06225e-11 0
-3.1892e-07 2.08176e-11 0
-3.18939e-07 3.77803e-11 0
-3.18971e-07 6.58864e-11 0
0.0093666 -3.6446e-07 0
0 -6.03686e-07 0
-7.84433e-11 1.71894e-08 0
-3.43432e-08 -7.2307e-08 0
-2.72051e-07 -2.87957e-07 0
-2.3971e-07 -3.32311e-07 0
3.5841e-08 -1.3398e-07 0
-5.64712e-08 -9.64745e-11 0
-9.40687e-08 -7.32976e-08 0
-2.25871e-07 -1.79991e-07 0
-2.57393e-07 -1.75781e-07 0
-2.94116e-07 -8.21216e-08 0
-3.13111e-07 2.53938e-08 0
-3.05629e-07 9.25327e-08 0
-2.78427e-07 1.02035e-07 0
-2.51403e-07 8.48981e-08 0
-2.36361e-07 6.3775e-08 0
-2.32019e-07 4.52431e-08 0
-2.32966e-07 3.05307e-08 0
-2.35304e-07 1.96449e-08 0
-2.37345e-07 1.20778e-08 0
-2.38697e-07 7.09351e-09 0
-2.39467e-07 3.96117e-09 0
-2.39866e-07 2.07623e-09 0
-2.40064e-07 9.90312e-10 0
-2.40171e-07 3.94517e-10 0
-2.40246e-07 8.74546e-11 0
-2.40317e-07 -5.63932e-11 0
-2.40394e-07 -1.12238e-10 0
-2.4048e-07 -1.23499e-10 0
-2.40572e-07 -1.14281e-10 0
-2.40668e-07 -9.73643e-11 0
-2.40764e-07 -7.91141e-11 0
-2.40858e-07 -6.23932e-11 0
-2.40948e-07 -4.82367e-11 0
-2.41032e-07 -3.67845e-11 0
-2.4111e-07 -2.77829e-11 0
-2.41181e-07 -2.08424e-11 0
-2.41245e-07 -1.55607e-11 0
-2.41301e-07 -1.15747e-11 0
-2.4135e-07 -8.57445e-12 0
-2.41393e-07 -6.2989e-12 0
-2.4143e-07 -4.51928e-12 0
-2.41462e-07 -3.01183e-12 0
-2.41489e-07 -1.51267e-12 0
-2.41512e-07 3.30542e-13 0
-2.41531e-07 2.97932e-12 0
-2.41546e-07 7.08369e-12 0
-2.41557e-07 1.38371e-11 0
-2.41568e-07 2.56583e-11 0
-2.41589e-07 4.5812e-11 0
0.00990059 -3.00111e-07 0
0 -1.16248e-06 0
-1.72038e-10 -4.92666e-08 0
-4.67941e-08 -1.70005e-07 0
-2.95645e-07 -2.67051e-07 0
-3.61647e-07 -2.18098e-07 0
-4.7006e-11 -7.19208e-08 0
8.49367e-10 4.96722e-10 0
-6.44701e-10 5.91892e-10 0
-1.27478e-07 -1.22451e-07 0
-3.07625e-07 -2.21055e-07 0
-3.39705e-07 -1.22235e-07 0
-3.60978e-07 1.14806e-08 0
-3.68133e-07 8.28822e-08 0
-3.41353e-07 8.6481e-08 0
-2.98069e-07 6.75281e-08 0
-2.61987e-07 4.97603e-08 0
-2.39952e-07 3.52901e-08 0
-2.28276e-07 2.34818e-08 0
-2.22183e-07 1.44916e-08 0
-2.18776e-07 8.26623e-09 0
-2.16704e-07 4.31312e-09 0
-2.15384e-07 1.98603e-09 0
-2.14545e-07 7.12767e-10 0
-2.14034e-07 7.28202e-11 0
-2.13748e-07 -2.1043e-10 0
-2.13615e-07 -3.05594e-10 0
-2.13581e-07 -3.09434e-10 0
-2.1361e-07 -2.74487e-10 0
-2.13677e-07 -2.27591e-10 0
-2.13765e-07 -1.81366e-10 0
-2.13863e-07 -1.40939e-10 0
-2.13964e-07 -1.07709e-10 0
-2.14063e-07 -8.13829e-11 0
-2.14157e-07 -6.1009e-11 0
-2.14245e-07 -4.54865e-11 0
-2.14326e-07 -3.37879e-11 0
-2.144e-07 -2.50401e-11 0
-2.14465e-07 -1.85377e-11 0
-2.14523e-07 -1.37277e-11 0
-2.14573e-07 -1.01835e-11 0
-2.14617e-07 -7.57715e-12 0
-2.14654e-07 -5.65286e-12 0
-2.14686e-07 -4.20542e-12 0
-2.14714e-07 -3.06333e-12 0
-2.14736e-07 -2.04386e-12 0
-2.14755e-07 -8.43335e-13 0
-2.14769e-07 1.12842e-12 0
-2.14779e-07 4.86236e-12 0
-2.14788e-07 1.16591e-11 0
-2.14806e-07 2.25509e-11 0
0.00999442 -1.59539e-07 0
0 -1.03893e-06 0
-2.47562e-10 -6.78812e-08 0
-7.4489e-08 -1.59334e-07 0
-3.13054e-07 -2.16398e-07 0
-4.39308e-07 -2.3549e-07 0
-1.60128e-07 -1.10591e-07 0
8.01904e-10 -7.94344e-10 0
1.46138e-10 -1.46138e-10 0
-6.9316e-10 5.96234e-10 0
-1.49111e-07 -9.74102e-08 0
-2.71938e-07 -1.21459e-07 0
-3.08045e-07 2.78418e-08 0
-3.74825e-07 1.07255e-07 0
-3.9205e-07 8.79193e-08 0
-3.51205e-07 4.97989e-08 0
-2.97979e-07 2.6783e-08 0
-2.59374e-07 1.46584e-08 0
-2.3677e-07 7.25123e-09 0
-2.24291e-07 2.57465e-09 0
-2.17321e-07 -4.7655e-11 0
-2.13337e-07 -1.24036e-09 0
-2.11046e-07 -1.58925e-09 0
-2.09753e-07 -1.52029e-09 0
-2.09059e-07 -1.28857e-09 0
-2.08722e-07 -1.0249e-09 0
-2.08595e-07 -7.85897e-10 0
-2.08589e-07 -5.89677e-10 0
-2.0865e-07 -4.36783e-10 0
-2.08746e-07 -3.21138e-10 0
-2.08857e-07 -2.3517e-10 0
-2.08974e-07 -1.71893e-10 0
-2.09089e-07 -1.2557e-10 0
-2.09198e-07 -9.17482e-11 0
-2.09301e-07 -6.70786e-11 0
-2.09395e-07 -4.90864e-11 0
-2.0948e-07 -3.59613e-11 0
-2.09557e-07 -2.6386e-11 0
-2.09624e-07 -1.94048e-11 0
-2.09684e-07 -1.43263e-11 0
-2.09735e-07 -1.06521e-11 0
-2.0978e-07 -8.0262e-12 0
-2.09818e-07 -6.20012e-12 0
-2.09851e-07 -5.0026e-12 0
-2.09878e-07 -4.30722e-12 0
-2.09902e-07 -4.00261e-12 0
-2.0992e-07 -3.96556e-12 0
-2.09935e-07 -4.01104e-12 0
-2.09945e-07 -3.774e-12 0
-2.09954e-07 -2.74936e-12 0
-2.09971e-07 -8.56707e-13 0
0.010006 8.80326e-10 0
0 -7.34336e-07 0
-2.47365e-10 -6.75629e-08 0
-7.66383e-08 -1.57391e-07 0
-3.07073e-07 -1.61856e-07 0
-4.59695e-07 -1.26146e-07 0
-3.55671e-07 -8.84781e-08 0
-1.07138e-07 -3.4372e-08 0
8.05699e-10 -7.83965e-10 0
8.68078e-11 -8.68078e-11 0
-7.75402e-10 6.10895e-10 0
-1.05602e-07 -3.54941e-09 0
-1.61833e-07 1.02495e-07 0
-3.15895e-07 1.93555e-07 0
-4.23793e-07 1.18774e-07 0
-4.04533e-07 3.29677e-08 0
-3.32594e-07 -4.53936e-09 0
-2.74792e-07 -1.35757e-08 0
-2.42347e-07 -1.37505e-08 0
-2.26408e-07 -1.17314e-08 0
-2.18867e-07 -9.22753e-09 0
-2.15338e-07 -6.85243e-09 0
-2.13732e-07 -4.88519e-09 0
-2.13061e-07 -3.39271e-09 0
-2.12847e-07 -2.32258e-09 0
-2.12853e-07 -1.58119e-09 0
-2.12961e-07 -1.07712e-09 0
-2.13112e-07 -7.37151e-10 0
-2.13277e-07 -5.08022e-10 0
-2.13441e-07 -3.52963e-10 0
-2.13597e-07 -2.47286e-10 0
-2.13743e-07 -1.74643e-10 0
-2.13878e-07 -1.24249e-10 0
-2.14002e-07 -8.89722e-11 0
-2.14113e-07 -6.4071e-11 0
-2.14214e-07 -4.63631e-11 0
-2.14304e-07 -3.36928e-11 0
-2.14383e-07 -2.45852e-11 0
-2.14453e-07 -1.80223e-11 0
-2.14514e-07 -1.32974e-11 0
-2.14567e-07 -9.91972e-12 0
-2.14612e-07 -7.55148e-12 0
-2.14651e-07 -5.96764e-12 0
-2.14685e-07 -5.03295e-12 0
-2.14713e-07 -4.69521e-12 0
-2.14737e-07 -4.99359e-12 0
-2.14757e-07 -6.08601e-12 0
-2.14772e-07 -8.28635e-12 0
-2.14784e-07 -1.19623e-11 0
-2.14793e-07 -1.72322e-11 0
-2.14812e-07 -2.45477e-11 0
0.0099944 1.60702e-07 0
0 -5.23737e-07 0
-2.49306e-10 -6.67038e-08 0
-9.03065e-08 -1.43813e-07 0
-3.09402e-07 -1.28242e-07 0
-4.42348e-07 -6.53405e-08 0
-3.82707e-07 -3.15516e-08 0
-2.48402e-07 -7.23448e-08 0
-1.30992e-07 -5.50246e-08 0
7.59116e-10 -8.08578e-10 0
-7.80541e-10 -8.39112e-10 0
-4.66022e-11 2.76936e-08 0
-3.68059e-08 2.05591e-07 0
-1.50649e-07 3.15202e-07 0
-3.18691e-07 1.68705e-07 0
-3.76475e-07 1.46457e-08 0
-3.36604e-07 -3.93258e-08 0
-2.85027e-07 -4.05027e-08 0
-2.54486e-07 -3.05123e-08 0
-2.41453e-07 -2.11604e-08 0
-2.37222e-07 -1.41048e-08 0
-2.36507e-07 -9.15641e-09 0
-2.36944e-07 -5.85295e-09 0
-2.3763e-07 -3.72255e-09 0
-2.38273e-07 -2.37556e-09 0
-2.38805e-07 -1.53001e-09 0
-2.39231e-07 -9.98057e-10 0
-2.39574e-07 -6.60538e-10 0
-2.39855e-07 -4.43708e-10 0
-2.4009e-07 -3.02373e-10 0
-2.40291e-07 -2.08822e-10 0
-2.40464e-07 -1.45947e-10 0
-2.40617e-07 -1.03072e-10 0
-2.40751e-07 -7.34428e-11 0
-2.40871e-07 -5.27235e-11 0
-2.40976e-07 -3.80867e-11 0
-2.41069e-07 -2.76606e-11 0
-2.41151e-07 -2.01879e-11 0
-2.41223e-07 -1.48136e-11 0
-2.41285e-07 -1.0951e-11 0
-2.41339e-07 -8.19691e-12 0
-2.41385e-07 -6.27928e-12 0
-2.41425e-07 -5.02758e-12 0
-2.41459e-07 -4.3631e-12 0
-2.41488e-07 -4.31102e-12 0
-2.41513e-07 -5.04081e-12 0
-2.41533e-07 -6.94857e-12 0
-2.41551e-07 -1.08172e-11 0
-2.41565e-07 -1.79337e-11 0
-2.41578e-07 -2.96495e-11 0
-2.416e-07 -4.79867e-11 0
0.00990055 2.98507e-07 0
0 -4.69552e-07 0
-2.45436e-10 -5.78874e-08 0
-1.2458e-07 -1.23787e-07 0
-3.37735e-07 -1.04331e-07 0
-4.53587e-07 -4.63165e-08 0
-4.12268e-07 -4.70377e-09 0
-3.01382e-07 -3.18518e-08 0
-2.48782e-07 -1.3906e-07 0
-1.43387e-07 -1.04054e-07 0
-2.18473e-07 -4.19512e-11 0
-3.69405e-07 6.20613e-08 0
-3.15703e-07 2.16859e-07 0
-1.27246e-07 2.92889e-07 0
-1.59576e-07 1.81659e-07 0
-2.85291e-07 3.14908e-08 0
-3.27645e-07 -3.46183e-08 0
-3.1837e-07 -3.98079e-08 0
-3.08004e-07 -2.80542e-08 0
-3.0563e-07 -1.72131e-08 0
-3.07306e-07 -1.01812e-08 0
-3.09862e-07 -6.03727e-09 0
-3.12087e-07 -3.64754e-09 0
-3.13746e-07 -2.25874e-09 0
-3.1492e-07 -1.43452e-09 0
-3.15745e-07 -9.32523e-10 0
-3.16337e-07 -6.18736e-10 0
-3.16775e-07 -4.1788e-10 0
-3.17111e-07 -2.86589e-10 0
-3.17379e-07 -1.99172e-10 0
-3.17601e-07 -1.40011e-10 0
-3.17787e-07 -9.93884e-11 0
-3.17948e-07 -7.11359e-11 0
-3.18089e-07 -5.12651e-11 0
-3.18212e-07 -3.7154e-11 0
-3.1832e-07 -2.70523e-11 0
-3.18415e-07 -1.97744e-11 0
-3.18498e-07 -1.45077e-11 0
-3.18571e-07 -1.06889e-11 0
-3.18634e-07 -7.92545e-12 0
-3.18688e-07 -5.94501e-12 0
-3.18735e-07 -4.56456e-12 0
-3.18775e-07 -3.67538e-12 0
-3.18809e-07 -3.24397e-12 0
-3.18839e-07 -3.3356e-12 0
-3.18864e-07 -4.17365e-12 0
-3.18887e-07 -6.25311e-12 0
-3.18906e-07 -1.05875e-11 0
-3.18924e-07 -1.92674e-11 0
-3.18944e-07 -3.59281e-11 0
-3.18976e-07 -6.64896e-11 0
0.00936654 3.56076e-07 0
0 -5.01026e-07 0
-2.46887e-10 -3.31743e-08 0
-1.54141e-07 -7.12966e-08 0
-3.45664e-07 -5.7994e-08 0
-4.40836e-07 -2.92552e-08 0
-4.40387e-07 -3.18134e-08 0
-3.75174e-07 -6.80519e-08 0
-3.34634e-07 -1.20433e-07 0
-3.74018e-07 -3.02186e-08 0
-3.7692e-07 1.85539e-07 0
-4.223e-07 2.21929e-07 0
-3.25203e-07 3.95335e-08 0
-1.74232e-07 -1.17216e-07 0
-2.11402e-07 -1.18238e-07 0
-3.40081e-07 -4.4854e-08 0
-3.91843e-07 1.0718e-08 0
-3.85816e-07 2.45828e-08 0
-3.73095e-07 1.78752e-08 0
-3.67092e-07 9.1677e-09 0
-3.65911e-07 3.72763e-09 0
-3.66672e-07 1.11417e-09 0
-3.67889e-07 6.29737e-11 0
-3.69017e-07 -2.76079e-10 0
-3.69925e-07 -3.32262e-10 0
-3.70624e-07 -2.93421e-10 0
-3.71159e-07 -2.33291e-10 0
-3.71576e-07 -1.77244e-10 0
-3.71908e-07 -1.31866e-10 0
-3.72178e-07 -9.71732e-11 0
-3.72404e-07 -7.13249e-11 0
-3.72596e-07 -5.22889e-11 0
-3.72762e-07 -3.83372e-11 0
-3.72906e-07 -2.81255e-11 0
-3.73032e-07 -2.06493e-11 0
-3.73143e-07 -1.51715e-11 0
-3.7324e-07 -1.1155e-11 0
-3.73325e-07 -8.20939e-12 0
-3.73399e-07 -6.05215e-12 0
-3.73463e-07 -4.47964e-12 0
-3.73517e-07 -3.34736e-12 0
-3.73565e-07 -2.55771e-12 0
-3.73605e-07 -2.05523e-12 0
-3.7364e-07 -1.8311e-12 0
-3.7367e-07 -1.94224e-12 0
-3.73696e-07 -2.55882e-12 0
-3.73719e-07 -4.06301e-12 0
-3.73741e-07 -7.25907e-12 0
-3.73764e-07 -1.40009e-11 0
-3.73792e-07 -2.86185e-11 0
-3.73842e-07 -5.71658e-11 0
0.00707963 2.29759e-07 0
0 0 0
-1.21644e-10 0 0
-7.95453e-08 0 0
-1.65252e-07 0 0
-2.06657e-07 0 0
-2.15216e-07 0 0
-2.1503e-07 0 0
-2.16877e-07 0 0
-2.30634e-07 0 0
-1.5847e-07 0 0
-5.29229e-08 0 0
-1.52367e-08 0 0
-6.70959e-08 0 0
-1.56843e-07 0 0
-2.17739e-07 0 0
-2.27127e-07 0 0
-2.12334e-07 0 0
-1.97701e-07 0 0
-1.89335e-07 0 0
-1.85688e-07 0 0
-1.84484e-07 0 0
-1.84316e-07 0 0
-1.84512e-07 0 0
-1.84794e-07 0 0
-1.85066e-07 0 0
-1.85299e-07 0 0
-1.85493e-07 0 0
-1.85654e-07 0 0
-1.85789e-07 0 0
-1.85903e-07 0 0
-1.86e-07 0 0
-1.86085e-07 0 0
-1.86158e-07 0 0
-1.86222e-07 0 0
-1.86279e-07 0 0
-1.86328e-07 0 0
-1.86371e-07 0 0
-1.86408e-07 0 0
-1.8644e-07 0 0
-1.86468e-07 0 0
-1.86492e-07 0 0
-1.86512e-07 0 0
-1.86529e-07 0 0
-1.86544e-07 0 0
-1.86558e-07 0 0
-1.8657e-07 0 0
-1.86581e-07 0 0
-1.86594e-07 0 0
-1.86611e-07 0 0
-1.86641e-07 0 0
0.00262224 0 0
0 0 5.50803e-07
-1.4422e-10 0 6.58863e-08
-2.27671e-07 0 1.66514e-07
-6.04927e-07 0 1.16609e-07
-9.42632e-07 0 -2.44103e-07
-2.46618e-07 0 -4.10538e-07
5.85514e-08 0 -2.3622e-07
1.72042e-07 0 -1.00793e-07
1.4705e-07 0 3.90907e-09
2.40349e-08 0 3.44414e-08
-1.07416e-07 0 1.65657e-08
-2.0118e-07 0 -5.75726e-09
-2.56763e-07 0 -1.38728e-08
-2.88305e-07 0 -1.14066e-08
-3.08258e-07 0 -6.1338e-09
-3.24079e-07 0 -2.00533e-09
-3.3791e-07 0 2.15612e-10
-3.49484e-07 0 1.02903e-09
-3.58424e-07 0 1.09986e-09
-3.64851e-07 0 8.87484e-10
-3.69218e-07 0 6.26973e-10
-3.72061e-07 0 4.08988e-10
-3.73856e-07 0 2.5282e-10
-3.74966e-07 0 1.50278e-10
-3.7565e-07 0 8.66607e-11
-3.76078e-07 0 4.87531e-11
-3.76357e-07 0 2.68501e-11
-3.76552e-07 0 1.45064e-11
-3.76702e-07 0 7.6966e-12
-3.76826e-07 0 4.01094e-12
-3.76936e-07 0 2.05156e-12
-3.77037e-07 0 1.02765e-12
-3.77131e-07 0 5.01304e-13
-3.77219e-07 0 2.34742e-13
-3.77301e-07 0 1.01286e-13
-3.77376e-07 0 3.47437e-14
-3.77445e-07 0 1.23648e-15
-3.77506e-07 0 -1.61828e-14
-3.77561e-07 0 -2.57654e-14
-3.77609e-07 0 -3.13454e-14
-3.77651e-07 0 -3.4314e-14
-3.77688e-07 0 -3.38456e-14
-3.7772e-07 0 -2.48785e-14
-3.77748e-07 0 1.00589e-14
-3.77773e-07 0 1.27531e-13
-3.77796e-07 0 4.7989e-13
-3.77818e-07 0 1.43803e-12
-3.77843e-07 0 4.04062e-12
-3.77876e-07 0 1.1204e-11
-3.7793e-07 0 2.8076e-11
0.00706913 0 -1.21784e-07
0.0036 -5.1123e-09 1.31527e-07
0.00359969 -0.00147183 -0.000185363
0.0072464 -0.00465136 -0.000956393
0.0150608 -0.00815146 -0.00272373
0.0266758 -0.0135392 -0.00503497
0.0464359 -0.00988951 -0.00395309
0.0489772 -0.000509303 -0.000865226
0.0483781 0.00334013 0.00049796
0.0430916 0.00525092 0.000831992
0.0374598 0.0050318 0.000369097
0.0324632 0.00405989 -0.000134153
0.0283523 0.00298396 -0.000364252
0.0252502 0.00205041 -0.000352341
0.0230989 0.00134562 -0.000239544
0.0216887 0.000863538 -0.000130036
0.0207935 0.000548345 -5.88335e-05
0.0202384 0.000344084 -2.18857e-05
0.0199016 0.000212439 -5.75431e-06
0.0197018 0.000128737 7.62426e-08
0.0195858 7.65227e-05 1.55245e-06
0.01952 4.4614e-05 1.49292e-06
0.0194836 2.55031e-05 1.05676e-06
0.019464 1.42775e-05 6.44359e-07
0.0194538 7.8088e-06 3.51204e-07
0.0194488 4.15384e-06 1.69353e-07
0.0194465 2.13214e-06 6.67982e-08
0.0194457 1.04081e-06 1.39903e-08
0.0194455 4.69104e-07 -1.01456e-08
0.0194455 1.81349e-07 -1.89326e-08
0.0194457 4.47988e-08 -2.0164e-08
0.0194459 -1.3834e-08 -1.81185e-08
0.0194461 -3.41071e-08 -1.49979e-08
0.0194462 -3.67902e-08 -1.18439e-08
0.0194464 -3.23992e-08 -9.08307e-09
0.0194464 -2.59864e-08 -6.83616e-09
0.0194465 -1.97805e-08 -5.08527e-09
0.0194465 -1.46121e-08 -3.76012e-09
0.0194466 -1.06658e-08 -2.78019e-09
0.0194466 -7.86706e-09 -2.07414e-09
0.0194466 -6.07799e-09 -1.58859e-09
0.0194466 -5.19892e-09 -1.29337e-09
0.0194466 -5.23581e-09 -1.18757e-09
0.0194466 -6.37429e-09 -1.30981e-09
0.0194467 -9.09707e-09 -1.74956e-09
0.0194467 -1.44146e-08 -2.66685e-09
0.0194467 -2.44632e-08 -4.44431e-09
0.0194467 -4.32652e-08 -7.4089e-09
0.0194468 -7.88391e-08 -1.16683e-08
0.019447 -1.74429e-07 -4.64298e-08
0.0194473 -4.52255e-07 -2.23029e-07
0.0194479 -6.57921e-07 -3.67391e-07
0.01 -1.14317e-09 -1.06072e-06
0.0100011 -0.00337867 -0.000642986
0.0150609 -0.0108243 -0.00174386
0.0240696 -0.0185211 -0.00342241
0.036971 -0.0292367 -0.00440185
0.0562592 -0.0201128 -0.00123583
0.0546397 -0.00126181 0.00191561
0.0549375 0.00584893 0.00231672
0.0493891 0.0107463 0.0020648
0.0436611 0.0106641 0.000997698
0.0387427 0.00932047 -2.46415e-05
0.0345683 0.00746416 -0.000506293
0.0314066 0.00545032 -0.000543821
0.0292948 0.00368159 -0.000386009
0.0279685 0.00236515 -0.000214651
0.0271607 0.00147438 -9.89702e-05
0.0266814 0.000898769 -3.76306e-05
0.0264051 0.000536863 -1.02571e-05
0.0262507 0.000314332 -1.95789e-08
0.0261674 0.000180304 2.7922e-06
0.0261243 0.000101175 2.86548e-06
0.0261032 5.5373e-05 2.18299e-06
0.0260937 2.93988e-05 1.46769e-06
0.0260901 1.49931e-05 9.19716e-07
0.0260893 7.20743e-06 5.50307e-07
0.0260897 3.13354e-06 3.18318e-07
0.0260906 1.09418e-06 1.79162e-07
0.0260914 1.40308e-07 9.84011e-08
0.0260922 -2.54242e-07 5.27344e-08
0.0260928 -3.74493e-07 2.74842e-08
0.0260933 -3.70509e-07 1.38172e-08
0.0260937 -3.18357e-07 6.58435e-09
0.0260939 -2.54496e-07 2.85695e-09
0.0260941 -1.9482e-07 1.00222e-09
0.0260943 -1.44985e-07 1.25965e-10
0.0260944 -1.05873e-07 -2.53274e-10
0.0260944 -7.63908e-08 -3.90552e-10
0.0260945 -5.48423e-08 -4.19349e-10
0.0260945 -3.95596e-08 -4.10273e-10
0.0260946 -2.91675e-08 -4.04629e-10
0.0260946 -2.26877e-08 -4.35083e-10
0.0260946 -1.96003e-08 -5.40391e-10
0.0260946 -1.99506e-08 -7.80343e-10
0.0260946 -2.46049e-08 -1.25028e-09
0.0260946 -3.57293e-08 -2.0455e-09
0.0260946 -5.79738e-08 -3.33073e-09
0.0260947 -1.03789e-07 -5.90035e-09
0.0260948 -2.02054e-07 -1.21562e-08
0.0260949 -3.89646e-07 -6.80663e-08
0.0260951 -7.2074e-07 -3.4249e-07
0.0260954 -9.31471e-07 -5.65564e-07
0.0148 -9.53097e-07 -1.37892e-06
0.0148026 -0.00549354 -0.00116022
0.0197261 -0.0164176 -0.00314053
0.0257696 -0.027155 -0.00513932
0.0301268 -0.0417828 -0.00513019
0.0286435 -0.0255706 -0.000810339
0.0261326 -1.09797e-05 0.00210772
0.0262801 0.00763654 0.00221437
0.0309144 0.0159139 0.00213525
0.0310881 0.0156001 0.00119957
0.029752 0.0134293 0.000268264
0.0285121 0.0106811 -0.000261939
0.0277216 0.00761643 -0.000375446
0.0274442 0.00496715 -0.000285459
0.0273992 0.00309154 -0.000153501
0.0274262 0.00187481 -5.85991e-05
0.0274707 0.00111214 -9.73391e-06
0.0275165 0.000644633 8.83591e-06
0.0275575 0.000364524 1.25917e-05
0.0275912 0.00020065 1.08003e-05
0.0276173 0.00010706 7.77547e-06
0.0276365 5.49164e-05 5.10726e-06
0.0276501 2.66389e-05 3.16862e-06
0.0276595 1.17885e-05 1.8901e-06
0.0276659 4.31275e-06 1.09496e-06
0.0276703 7.79101e-07 6.19624e-07
0.0276732 -7.16812e-07 3.4356e-07
0.0276751 -1.20704e-06 1.86806e-07
0.0276764 -1.23567e-06 9.94777e-08
0.0276773 -1.07945e-06 5.16696e-08
0.0276778 -8.72094e-07 2.5956e-08
0.0276782 -6.72886e-07 1.2398e-08
0.0276785 -5.03911e-07 5.42438e-09
0.0276787 -3.69702e-07 1.95796e-09
0.0276788 -2.67327e-07 3.22984e-10
0.0276789 -1.91351e-07 -3.80266e-10
0.0276789 -1.36119e-07 -6.27473e-10
0.027679 -9.66804e-08 -6.66139e-10
0.027679 -6.90755e-08 -6.23869e-10
0.027679 -5.03418e-08 -5.68618e-10
0.027679 -3.8437e-08 -5.43613e-10
0.027679 -3.21898e-08 -5.89328e-10
0.027679 -3.13459e-08 -7.56316e-10
0.0276791 -3.68489e-08 -1.11852e-09
0.0276791 -5.18211e-08 -1.85428e-09
0.0276791 -8.31294e-08 -3.61261e-09
0.0276791 -1.40354e-07 -8.60338e-09
0.0276791 -2.34904e-07 -2.3048e-08
0.0276791 -3.83747e-07 -1.00521e-07
0.0276791 -6.09398e-07 -4.19725e-07
0.0276791 -7.44463e-07 -6.7226e-07
0.018 -2.03923e-06 -1.63337e-06
0.0180026 -0.00658744 -0.0019825
0.0200923 -0.017516 -0.00540855
0.0198831 -0.0227801 -0.00695149
0.0158863 -0.0246673 -0.00665502
-1.207e-06 -0.0128246 -0.00313077
0.000103127 3.3575e-05 6.44305e-07
-3.92693e-05 4.13668e-05 0.000422762
0.00743802 0.00519156 0.000858044
0.0155938 0.0116093 0.000722301
0.0189591 0.0120178 0.00034209
0.0205608 0.00973474 -5.02946e-05
0.0222947 0.00673424 -0.000233534
0.0240153 0.00414511 -0.00020792
0.0253859 0.00245243 -0.000108483
0.0263386 0.00142611 -2.69429e-05
0.026957 0.000809667 1.41806e-05
0.0273465 0.000443728 2.59221e-05
0.0275882 0.000232445 2.37769e-05
0.0277366 0.000114883 1.75692e-05
0.0278268 5.21264e-05 1.16198e-05
0.027881 2.01895e-05 7.18002e-06
0.0279134 4.92498e-06 4.23587e-06
0.0279326 -1.67979e-06 2.41445e-06
0.0279439 -4.00013e-06 1.33815e-06
0.0279506 -4.34226e-06 7.22848e-07
0.0279545 -3.87505e-06 3.8015e-07
0.0279568 -3.16142e-06 1.93587e-07
0.0279581 -2.45178e-06 9.42901e-08
0.0279589 -1.84158e-06 4.27726e-08
0.0279594 -1.35364e-06 1.69095e-08
0.0279597 -9.79831e-07 4.53551e-09
0.0279599 -7.01321e-07 -9.24783e-10
0.02796 -4.9778e-07 -2.96334e-09
0.0279601 -3.51121e-07 -3.39719e-09
0.0279601 -2.46613e-07 -3.14735e-09
0.0279601 -1.72854e-07 -2.66379e-09
0.0279601 -1.21311e-07 -2.15474e-09
0.0279601 -8.57686e-08 -1.70942e-09
0.0279602 -6.18237e-08 -1.36413e-09
0.0279602 -4.6497e-08 -1.13935e-09
0.0279602 -3.79774e-08 -1.06605e-09
0.0279602 -3.55465e-08 -1.21969e-09
0.0279602 -3.96196e-08 -1.77692e-09
0.0279602 -5.14841e-08 -3.16877e-09
0.0279601 -7.28353e-08 -6.65935e-09
0.0279601 -1.06034e-07 -1.50075e-08
0.0279601 -1.54341e-07 -3.41928e-08
0.02796 -2.25532e-07 -1.20454e-07
0.0279599 -3.29536e-07 -4.54034e-07
0.0279598 -3.90754e-07 -7.14789e-07
0.0196 -2.5637e-06 -2.63726e-06
0.0196008 -0.00520369 -0.00278799
0.0190885 -0.0117934 -0.00680415
0.0162737 -0.0141876 -0.00732489
0.0116183 -0.0126801 -0.00642225
0.00242159 -0.00508474 -0.00393128
7.81664e-05 -7.20222e-05 -0.000815197
3.27528e-05 -3.27528e-05 -4.94033e-08
-3.81691e-05 4.03696e-05 0.000113864
0.00515704 0.00390609 0.000237431
0.0115517 0.00843862 0.000189345
0.0143276 0.00743769 -4.1365e-05
0.0177421 0.00430103 -0.00026534
0.0211016 0.00198595 -0.000277805
0.023729 0.000823831 -0.000174061
0.0254784 0.000317597 -6.34818e-05
0.026544 9.75612e-05 9.18153e-07
0.0271684 8.95974e-07 2.30268e-05
0.0275287 -3.70145e-05 2.36382e-05
0.0277344 -4.62171e-05 1.7572e-05
0.0278508 -4.27278e-05 1.13343e-05
0.0279161 -3.4931e-05 6.74275e-06
0.0279523 -2.6756e-05 3.80158e-06
0.0279722 -1.97248e-05 2.05711e-06
0.0279831 -1.42022e-05 1.07261e-06
0.0279889 -1.00745e-05 5.37023e-07
0.027992 -7.0784e-06 2.54697e-07
0.0279936 -4.94257e-06 1.10608e-07
0.0279945 -3.4371e-06 3.99472e-08
0.0279949 -2.38354e-06 7.27356e-09
0.0279951 -1.64966e-06 -6.34152e-09
0.0279951 -1.14005e-06 -1.0787e-08
0.0279952 -7.86952e-07 -1.1106e-08
0.0279952 -5.42717e-07 -9.79155e-09
0.0279951 -3.74055e-07 -8.02079e-09
0.0279951 -2.57797e-07 -6.30811e-09
0.0279951 -1.77867e-07 -4.84561e-09
0.0279951 -1.23144e-07 -3.67795e-09
0.0279951 -8.59653e-08 -2.79118e-09
0.0279951 -6.10903e-08 -2.15895e-09
0.0279951 -4.49824e-08 -1.7707e-09
0.0279951 -3.53067e-08 -1.65781e-09
0.0279951 -3.05093e-08 -1.93584e-09
0.0279951 -2.94143e-08 -2.87552e-09
0.027995 -3.09124e-08 -4.98272e-09
0.027995 -3.35944e-08 -9.39965e-09
0.027995 -3.52624e-08 -1.86795e-08
0.0279949 -3.21989e-08 -3.83876e-08
0.0279948 -2.19976e-08 -1.25688e-07
0.0279947 -7.34736e-09 -4.61926e-07
0.0279945 4.06519e-10 -7.24374e-07
0.0196 -1.28668e-06 -3.53227e-06
0.0196002 -0.00312564 -0.00311839
0.0190406 -0.00655598 -0.00686421
0.0177955 -0.00612626 -0.00689681
0.0142587 -0.00249149 -0.00565143
0.0104612 0.00359569 -0.00405851
0.00660269 0.00339254 -0.00190687
7.8214e-05 -6.58304e-05 -0.000352489
2.76612e-05 -2.76612e-05 -1.33046e-07
-3.68683e-05 3.94699e-05 3.0767e-05
0.00389495 0.00281585 0.000333978
0.00851903 0.00360586 0.000364408
0.0141919 0.000121904 -8.9892e-05
0.0193631 -0.00168275 -0.000352637
0.0231493 -0.00182519 -0.000332086
0.0254413 -0.00134997 -0.0001825
0.0266742 -0.00087669 -6.26791e-05
0.0273088 -0.00055019 -7.72114e-06
0.027633 -0.000344047 7.95463e-06
0.0277984 -0.000215276 8.76638e-06
0.0278824 -0.000134679 6.09515e-06
0.0279245 -8.42918e-05 3.58084e-06
0.0279451 -5.28789e-05 1.90785e-06
0.0279549 -3.3323e-05 9.38657e-07
0.0279593 -2.11328e-05 4.2096e-07
0.0279611 -1.35031e-05 1.61528e-07
0.0279617 -8.69785e-06 4.00832e-08
0.0279617 -5.64797e-06 -1.13935e-08
0.0279615 -3.6957e-06 -2.92042e-08
0.0279612 -2.43512e-06 -3.18975e-08
0.027961 -1.61434e-06 -2.85654e-08
0.0279608 -1.07577e-06 -2.34445e-08
0.0279606 -7.19957e-07 -1.83603e-08
0.0279605 -4.83527e-07 -1.39864e-08
0.0279604 -3.25698e-07 -1.0476e-08
0.0279603 -2.19991e-07 -7.76856e-09
0.0279603 -1.49067e-07 -5.73435e-09
0.0279602 -1.01487e-07 -4.23857e-09
0.0279602 -6.96486e-08 -3.16875e-09
0.0279602 -4.84537e-08 -2.44742e-09
0.0279602 -3.44099e-08 -2.04247e-09
0.0279602 -2.49912e-08 -1.98249e-09
0.0279602 -1.81377e-08 -2.38006e-09
0.0279601 -1.17858e-08 -3.46741e-09
0.0279601 -3.32344e-09 -5.67987e-09
0.0279601 1.11164e-08 -1.00841e-08
0.0279601 3.77612e-08 -1.91414e-08
0.02796 8.74701e-08 -3.77332e-08
0.02796 1.761e-07 -1.21278e-07
0.0279599 3.11787e-07 -4.5184e-07
0.0279597 3.91234e-07 -7.11428e-07
0.018 -7.95634e-07 -3.46405e-06
0.018001 -0.00146428 -0.00306682
0.0185349 -0.00241314 -0.00651822
0.0190242 -0.00081483 -0.00613353
0.0186141 0.00211746 -0.00468625
0.0185973 0.00771298 -0.00334231
0.0190593 0.0127467 -0.00189782
0.0117488 0.00701635 -0.000849677
8.00396e-05 -5.16211e-05 -0.000286367
-2.97635e-05 -5.9269e-05 5.20152e-07
8.13345e-06 -0.00021507 0.000891328
0.00946306 -0.00295863 0.00136886
0.017146 -0.00640791 0.00053451
0.0221274 -0.00672954 -0.00012053
0.0250992 -0.00505279 -0.000355137
0.0266503 -0.00309823 -0.00027726
0.0273417 -0.00172998 -0.000141067
0.0276103 -0.000950187 -5.66712e-05
0.0277 -0.000529115 -1.98224e-05
0.0277213 -0.000299418 -6.41443e-06
0.0277193 -0.000171543 -2.04002e-06
0.0277113 -9.93089e-05 -7.16656e-07
0.0277031 -5.80911e-05 -3.33466e-07
0.0276963 -3.43592e-05 -2.14916e-07
0.0276913 -2.05628e-05 -1.63396e-07
0.0276876 -1.24561e-05 -1.2806e-07
0.0276851 -7.63722e-06 -9.86793e-08
0.0276832 -4.73774e-06 -7.42153e-08
0.027682 -2.97157e-06 -5.46991e-08
0.0276811 -1.88263e-06 -3.9744e-08
0.0276805 -1.20342e-06 -2.86191e-08
0.02768 -7.75191e-07 -2.05081e-08
0.0276797 -5.02571e-07 -1.46698e-08
0.0276795 -3.27548e-07 -1.04995e-08
0.0276794 -2.14397e-07 -7.53347e-09
0.0276793 -1.4085e-07 -5.42998e-09
0.0276792 -9.28677e-08 -3.94363e-09
0.0276792 -6.14897e-08 -2.90325e-09
0.0276791 -4.09157e-08 -2.19524e-09
0.0276791 -2.72983e-08 -1.7539e-09
0.0276791 -1.79523e-08 -1.55861e-09
0.0276791 -1.07881e-08 -1.63916e-09
0.0276791 -3.83266e-09 -2.09457e-09
0.027679 5.27607e-09 -3.12651e-09
0.027679 1.99589e-08 -5.10469e-09
0.027679 4.56778e-08 -8.96969e-09
0.027679 9.1503e-08 -1.70008e-08
0.027679 1.74405e-07 -3.30286e-08
0.027679 3.28516e-07 -1.06491e-07
0.027679 5.86298e-07 -4.16006e-07
0.0276789 7.43565e-07 -6.62725e-07
0.0148 -4.89796e-07 -2.99764e-06
0.0148016 -0.000561183 -0.00287392
0.0166163 -0.000361812 -0.00585741
0.018974 0.00154594 -0.00514606
0.021165 0.00432161 -0.00369044
0.0232853 0.00758982 -0.0027197
0.0267486 0.0126803 -0.00182986
0.0298028 0.0199769 -0.000993888
0.0241954 0.0119118 -0.000135047
0.0246638 -6.53226e-10 0.000516924
0.0285764 -0.00704916 0.00157954
0.0335078 -0.0141001 0.00247953
0.0342455 -0.0126531 0.00185654
0.0322821 -0.00945162 0.000680053
0.0299351 -0.00609953 -0.00020096
0.0282758 -0.00341866 -0.000406514
0.0273092 -0.00175045 -0.000278792
0.0267766 -0.0008742 -0.000137842
0.0264833 -0.000443298 -5.90213e-05
0.0263196 -0.000231072 -2.3714e-05
0.0262269 -0.000123725 -9.28751e-06
0.0261736 -6.77889e-05 -3.61731e-06
0.0261425 -3.78645e-05 -1.41798e-06
0.0261241 -2.14979e-05 -5.63038e-07
0.026113 -1.23787e-05 -2.26167e-07
0.0261062 -7.21658e-06 -9.05643e-08
0.0261021 -4.25374e-06 -3.47087e-08
0.0260994 -2.53197e-06 -1.13855e-08
0.0260978 -1.52004e-06 -1.77813e-09
0.0260967 -9.19112e-07 1.88911e-09
0.026096 -5.58896e-07 2.96523e-09
0.0260955 -3.41176e-07 2.94657e-09
0.0260952 -2.08666e-07 2.51594e-09
0.026095 -1.27585e-07 1.98258e-09
0.0260949 -7.78017e-08 1.47811e-09
0.0260948 -4.71983e-08 1.04901e-09
0.0260947 -2.84017e-08 7.01382e-10
0.0260947 -1.68692e-08 4.22306e-10
0.0260947 -9.74218e-09 1.8902e-10
0.0260946 -5.13854e-09 -2.93537e-11
0.0260946 -1.68444e-09 -2.75772e-10
0.0260946 1.84157e-09 -6.14743e-10
0.0260946 6.84817e-09 -1.15083e-09
0.0260946 1.53472e-08 -2.05907e-09
0.0260946 3.05929e-08 -3.63435e-09
0.0260946 5.82166e-08 -6.59654e-09
0.0260946 1.08031e-07 -1.27746e-08
0.0260947 1.98788e-07 -2.51383e-08
0.0260947 3.787e-07 -8.23886e-08
0.0260949 7.13698e-07 -3.42376e-07
0.0260951 9.27615e-07 -5.53339e-07
0.01 -9.44307e-07 -2.67444e-06
0.0100007 -0.000340216 -0.00241695
0.0119828 1.21806e-05 -0.00461486