# vtk DataFile Version 2.0
Tobias Weinzierl: CPU, Manycore and Cluster Computing
ASCII

DATASET STRUCTURED_POINTS
DIMENSIONS  51 11 6

ORIGIN 0 0 0 

SPACING 0.1 0.1 0.1 

POINT_DATA 3366

VECTORS velocity float
0 0 0
-3.6746e-11 0 0
-2.71537e-07 0 0
-4.01092e-07 0 0
-4.16067e-07 0 0
-3.69695e-07 0 0
-4.45088e-07 0 0
-4.40852e-07 0 0
-4.06689e-07 0 0
-3.77271e-07 0 0
-3.66639e-07 0 0
-3.67748e-07 0 0
-3.73858e-07 0 0
-3.81491e-07 0 0
-3.88997e-07 0 0
-3.95602e-07 0 0
-4.01045e-07 0 0
-4.05349e-07 0 0
-4.08664e-07 0 0
-4.11176e-07 0 0
-4.13063e-07 0 0
-4.14473e-07 0 0
-4.15525e-07 0 0
-4.16309e-07 0 0
-4.16896e-07 0 0
-4.17336e-07 0 0
-4.17668e-07 0 0
-4.17919e-07 0 0
-4.18109e-07 0 0
-4.18256e-07 0 0
-4.18369e-07 0 0
-4.18457e-07 0 0
-4.18526e-07 0 0
-4.18581e-07 0 0
-4.18625e-07 0 0
-4.18662e-07 0 0
-4.18691e-07 0 0
-4.18716e-07 0 0
-4.18737e-07 0 0
-4.18754e-07 0 0
-4.18768e-07 0 0
-4.18781e-07 0 0
-4.18791e-07 0 0
-4.188e-07 0 0
-4.18807e-07 0 0
-4.18814e-07 0 0
-4.1882e-07 0 0
-4.18829e-07 0 0
-4.18842e-07 0 0
-4.18866e-07 0 0
0.00599703 0 0
0 1.33768e-07 0
-7.49842e-11 1.91203e-07 0
-4.53211e-07 3.0787e-07 0
-5.66004e-07 1.38652e-07 0
-5.20848e-07 -1.64666e-08 0
-2.93634e-07 3.47485e-08 0
-5.07378e-07 6.57663e-08 0
-4.73746e-07 -4.30651e-08 0
-4.13404e-07 -6.4398e-08 0
-3.73049e-07 -3.82818e-08 0
-3.9272e-07 -7.53274e-09 0
-4.25662e-07 8.61118e-09 0
-4.55428e-07 1.45366e-08 0
-4.80144e-07 1.55354e-08 0
-4.9994e-07 1.42862e-08 0
-5.15274e-07 1.21099e-08 0
-5.26846e-07 9.75253e-09 0
-5.35433e-07 7.59694e-09 0
-5.41749e-07 5.79198e-09 0
-5.46379e-07 4.35641e-09 0
-5.49774e-07 3.24973e-09 0
-5.52269e-07 2.41266e-09 0
-5.5411e-07 1.78665e-09 0
-5.55474e-07 1.32152e-09 0
-5.56491e-07 9.77098e-10 0
-5.57252e-07 7.22465e-10 0
-5.57826e-07 5.3431e-10 0
-5.58262e-07 3.95269e-10 0
-5.58595e-07 2.92487e-10 0
-5.58851e-07 2.16478e-10 0
-5.59051e-07 1.60245e-10 0
-5.59207e-07 1.18629e-10 0
-5.59331e-07 8.78217e-11 0
-5.59431e-07 6.5012e-11 0
-5.59512e-07 4.81221e-11 0
-5.59578e-07 3.56157e-11 0
-5.59634e-07 2.63563e-11 0
-5.5968e-07 1.95037e-11 0
-5.59719e-07 1.44378e-11 0
-5.59752e-07 1.0703e-11 0
-5.5978e-07 7.96956e-12 0
-5.59803e-07 6.007e-12 0
-5.59823e-07 4.67101e-12 0
-5.5984e-07 3.90542e-12 0
-5.59854e-07 3.7698e-12 0
-5.59866e-07 4.5197e-12 0
-5.59877e-07 6.79865e-12 0
-5.59889e-07 1.19395e-11 0
-5.59905e-07 2.15552e-11 0
-5.59932e-07 4.41145e-11 0
0.01241 -4.7764e-07 0
0 -1.30252e-08 0
-6.00285e-11 2.33716e-07 0
-4.35239e-07 3.75708e-07 0
-3.47686e-07 1.44425e-07 0
-3.05293e-07 -1.87975e-07 0
-4.16529e-07 2.06571e-08 0
-3.84531e-07 1.72327e-07 0
-4.15864e-07 -1.01013e-07 0
5.58791e-08 -9.668e-08 0
2.70459e-08 -9.79501e-09 0
-4.55906e-08 6.05276e-08 0
-1.17079e-07 6.7279e-08 0
-1.64296e-07 5.68464e-08 0
-1.96501e-07 4.56172e-08 0
-2.18992e-07 3.55812e-08 0
-2.34568e-07 2.70423e-08 0
-2.45284e-07 2.01532e-08 0
-2.52674e-07 1.48359e-08 0
-2.57819e-07 1.08527e-08 0
-2.61447e-07 7.92094e-09 0
-2.6404e-07 5.78243e-09 0
-2.65918e-07 4.22789e-09 0
-2.67293e-07 3.09796e-09 0
-2.68311e-07 2.27519e-09 0
-2.69071e-07 1.67451e-09 0
-2.69644e-07 1.23471e-09 0
-2.70079e-07 9.11826e-10 0
-2.70412e-07 6.74197e-10 0
-2.7067e-07 4.98957e-10 0
-2.70871e-07 3.69517e-10 0
-2.7103e-07 2.73784e-10 0
-2.71157e-07 2.02913e-10 0
-2.71259e-07 1.50412e-10 0
-2.71343e-07 1.115e-10 0
-2.71412e-07 8.26507e-11 0
-2.71469e-07 6.12589e-11 0
-2.71518e-07 4.53962e-11 0
-2.7156e-07 3.36353e-11 0
-2.71595e-07 2.49205e-11 0
-2.71625e-07 1.84731e-11 0
-2.71651e-07 1.3723e-11 0
-2.71673e-07 1.02616e-11 0
-2.71692e-07 7.8109e-12 0
-2.71707e-07 6.20645e-12 0
-2.7172e-07 5.39152e-12 0
-2.71731e-07 5.40724e-12 0
-2.71739e-07 6.35961e-12 0
-2.71746e-07 8.59575e-12 0
-2.71754e-07 1.46703e-11 0
-2.71763e-07 2.7195e-11 0
0.0128333 -3.74383e-07 0
0 -1.70735e-07 0
-2.21879e-11 2.08631e-07 0
-5.54535e-07 3.57187e-07 0
-2.81353e-07 2.2311e-07 0
-2.3886e-07 1.97399e-07 0
-4.92584e-07 1.2284e-07 0
-3.222e-07 2.60679e-11 0
-3.82975e-07 -5.18116e-07 0
-4.59719e-07 -5.06031e-07 0
-1.76005e-07 8.51577e-08 0
-1.43101e-07 1.51456e-07 0
-1.63988e-07 1.34642e-07 0
-1.90999e-07 9.73696e-08 0
-2.12468e-07 7.16443e-08 0
-2.27596e-07 5.28162e-08 0
-2.37631e-07 3.84578e-08 0
-2.44247e-07 2.77614e-08 0
-2.48712e-07 1.99894e-08 0
-2.51823e-07 1.44167e-08 0
-2.54056e-07 1.04362e-08 0
-2.55695e-07 7.58777e-09 0
-2.56919e-07 5.54037e-09 0
-2.57843e-07 4.06076e-09 0
-2.58547e-07 2.98576e-09 0
-2.59085e-07 2.20096e-09 0
-2.59501e-07 1.62567e-09 0
-2.59823e-07 1.20256e-09 0
-2.60075e-07 8.90556e-10 0
-2.60274e-07 6.60019e-10 0
-2.60432e-07 4.89421e-10 0
-2.60559e-07 3.63038e-10 0
-2.60662e-07 2.69339e-10 0
-2.60747e-07 1.99835e-10 0
-2.60817e-07 1.4826e-10 0
-2.60877e-07 1.09983e-10 0
-2.60928e-07 8.15725e-11 0
-2.60971e-07 6.04845e-11 0
-2.61009e-07 4.48328e-11 0
-2.61041e-07 3.3218e-11 0
-2.6107e-07 2.46039e-11 0
-2.61094e-07 1.8226e-11 0
-2.61115e-07 1.35258e-11 0
-2.61132e-07 1.01055e-11 0
-2.61147e-07 7.69881e-12 0
-2.61159e-07 6.15948e-12 0
-2.61169e-07 5.4829e-12 0
-2.61177e-07 5.9059e-12 0
-2.61183e-07 8.02509e-12 0
-2.61192e-07 1.2427e-11 0
-2.61201e-07 1.9182e-11 0
0.0128407 -2.49859e-07 0
0 -2.8108e-07 0
1.20144e-11 1.15429e-07 0
-6.98317e-07 1.7612e-07 0
-3.37216e-07 1.43245e-07 0
-1.53857e-07 1.86737e-07 0
-5.03759e-12 1.04166e-07 0
5.50802e-10 4.31307e-10 0
-4.73956e-10 4.34359e-10 0
-5.22318e-07 -3.20451e-07 0
-5.20332e-07 -3.23661e-07 0
-2.71738e-07 5.78681e-08 0
-2.45692e-07 1.21754e-07 0
-2.44467e-07 1.0854e-07 0
-2.49394e-07 8.33613e-08 0
-2.52605e-07 6.09201e-08 0
-2.54253e-07 4.35176e-08 0
-2.55257e-07 3.09774e-08 0
-2.56053e-07 2.21675e-08 0
-2.5677e-07 1.59868e-08 0
-2.57424e-07 1.16159e-08 0
-2.58006e-07 8.49275e-09 0
-2.58509e-07 6.23931e-09 0
-2.58934e-07 4.60022e-09 0
-2.59285e-07 3.40045e-09 0
-2.59573e-07 2.5181e-09 0
-2.59808e-07 1.86699e-09 0
-2.59999e-07 1.38534e-09 0
-2.60155e-07 1.02846e-09 0
-2.60283e-07 7.63733e-10 0
-2.60389e-07 5.67214e-10 0
-2.60478e-07 4.21265e-10 0
-2.60553e-07 3.12845e-10 0
-2.60616e-07 2.32296e-10 0
-2.60672e-07 1.72452e-10 0
-2.60719e-07 1.27994e-10 0
-2.60762e-07 9.49683e-11 0
-2.60799e-07 7.04373e-11 0
-2.60831e-07 5.22162e-11 0
-2.6086e-07 3.86809e-11 0
-2.60886e-07 2.86244e-11 0
-2.60908e-07 2.1151e-11 0
-2.60928e-07 1.55988e-11 0
-2.60944e-07 1.14857e-11 0
-2.60958e-07 8.47455e-12 0
-2.6097e-07 6.36048e-12 0
-2.60979e-07 5.07933e-12 0
-2.60986e-07 4.71939e-12 0
-2.60992e-07 5.48641e-12 0
-2.60998e-07 7.34901e-12 0
-2.61005e-07 1.00436e-11 0
0.0128407 -1.24926e-07 0
0 -2.29412e-07 0
4.63049e-11 5.53166e-08 0
-8.18094e-07 1.02429e-07 0
-4.80534e-07 5.30242e-08 0
-2.89595e-07 8.06265e-09 0
-1.54019e-07 2.14187e-09 0
5.05656e-10 -5.22482e-10 0
4.83626e-11 -4.83626e-11 0
-4.73777e-10 4.73935e-10 0
-3.21508e-07 -1.79645e-07 0
-3.28186e-07 -1.25464e-07 0
-3.20786e-07 1.11034e-07 0
-3.05759e-07 1.0357e-07 0
-2.9018e-07 8.04413e-08 0
-2.77848e-07 5.74831e-08 0
-2.69983e-07 4.06917e-08 0
-2.65405e-07 2.91612e-08 0
-2.62855e-07 2.11783e-08 0
-2.61481e-07 1.55362e-08 0
-2.60769e-07 1.14745e-08 0
-2.60424e-07 8.51042e-09 0
-2.60278e-07 6.32743e-09 0
-2.60237e-07 4.71037e-09 0
-2.6025e-07 3.50845e-09 0
-2.60289e-07 2.61346e-09 0
-2.6034e-07 1.94649e-09 0
-2.60395e-07 1.44931e-09 0
-2.60449e-07 1.07875e-09 0
-2.60502e-07 8.02631e-10 0
-2.60551e-07 5.96964e-10 0
-2.60598e-07 4.43832e-10 0
-2.60641e-07 3.29862e-10 0
-2.60682e-07 2.4507e-10 0
-2.6072e-07 1.82009e-10 0
-2.60755e-07 1.35125e-10 0
-2.60787e-07 1.00277e-10 0
-2.60817e-07 7.43804e-11 0
-2.60845e-07 5.51361e-11 0
-2.6087e-07 4.08313e-11 0
-2.60892e-07 3.01897e-11 0
-2.60912e-07 2.22597e-11 0
-2.6093e-07 1.63309e-11 0
-2.60946e-07 1.18743e-11 0
-2.60959e-07 8.49959e-12 0
-2.60969e-07 5.92944e-12 0
-2.60978e-07 3.98596e-12 0
-2.60985e-07 2.57588e-12 0
-2.6099e-07 1.63521e-12 0
-2.60995e-07 9.67694e-13 0
-2.61002e-07 3.35087e-13 0
0.0128407 2.52312e-11 0
0 -1.42972e-07 0
6.05244e-11 -8.40022e-09 0
-8.21186e-07 5.76564e-09 0
-4.79279e-07 2.27085e-09 0
-3.56016e-07 -1.42985e-08 0
-2.77692e-07 -1.5752e-07 0
-2.39193e-07 -1.55114e-07 0
5.03341e-10 -5.41341e-10 0
6.74423e-11 -6.74423e-11 0
-4.60404e-10 4.86965e-10 0
-1.80044e-07 5.47443e-08 0
-4.66566e-07 1.02356e-07 0
-3.79363e-07 8.06341e-08 0
-3.20911e-07 5.61434e-08 0
-2.93031e-07 4.04791e-08 0
-2.79069e-07 3.06031e-08 0
-2.71625e-07 2.34206e-08 0
-2.67437e-07 1.79117e-08 0
-2.64969e-07 1.36523e-08 0
-2.63454e-07 1.03668e-08 0
-2.62493e-07 7.84386e-09 0
-2.61866e-07 5.91584e-09 0
-2.6145e-07 4.44921e-09 0
-2.61173e-07 3.33819e-09 0
-2.60989e-07 2.49959e-09 0
-2.60868e-07 1.86856e-09 0
-2.60792e-07 1.39492e-09 0
-2.60748e-07 1.04016e-09 0
-2.60726e-07 7.74895e-10 0
-2.6072e-07 5.76824e-10 0
-2.60724e-07 4.29094e-10 0
-2.60736e-07 3.19014e-10 0
-2.60753e-07 2.37052e-10 0
-2.60773e-07 1.76065e-10 0
-2.60795e-07 1.30708e-10 0
-2.60818e-07 9.69908e-11 0
-2.6084e-07 7.19317e-11 0
-2.60863e-07 5.33081e-11 0
-2.60884e-07 3.94615e-11 0
-2.60903e-07 2.91536e-11 0
-2.60921e-07 2.14572e-11 0
-2.60937e-07 1.56735e-11 0
-2.60952e-07 1.1269e-11 0
-2.60964e-07 7.82543e-12 0
-2.60974e-07 5.00065e-12 0
-2.60983e-07 2.49881e-12 0
-2.60989e-07 5.18426e-14 0
-2.60994e-07 -2.59046e-12 0
-2.61e-07 -5.68384e-12 0
-2.61006e-07 -9.46903e-12 0
0.0128407 1.24972e-07 0
0 -9.04349e-08 0
3.13495e-11 -6.86026e-08 0
-7.45084e-07 -8.41391e-08 0
-4.57713e-07 -3.07289e-08 0
-3.60001e-07 -6.01426e-08 0
-3.15845e-07 -7.73841e-08 0
-3.75865e-07 -2.71145e-07 0
-2.90262e-07 -2.38726e-07 0
5.09473e-10 -5.72927e-10 0
-4.01531e-10 -6.2643e-10 0
3.75563e-11 3.3969e-07 0
-7.17549e-07 3.14409e-07 0
-4.36781e-07 -3.46172e-08 0
-3.21906e-07 -2.79532e-09 0
-2.90157e-07 1.62959e-08 0
-2.78774e-07 1.91659e-08 0
-2.73135e-07 1.72651e-08 0
-2.69677e-07 1.42813e-08 0
-2.67308e-07 1.13577e-08 0
-2.65599e-07 8.83737e-09 0
-2.64338e-07 6.78374e-09 0
-2.63401e-07 5.16054e-09 0
-2.62705e-07 3.90115e-09 0
-2.62191e-07 2.93584e-09 0
-2.61815e-07 2.20208e-09 0
-2.61543e-07 1.64763e-09 0
-2.61349e-07 1.23046e-09 0
-2.61215e-07 9.17581e-10 0
-2.61124e-07 6.83476e-10 0
-2.61066e-07 5.08631e-10 0
-2.61031e-07 3.78229e-10 0
-2.61014e-07 2.81081e-10 0
-2.61009e-07 2.08771e-10 0
-2.61012e-07 1.54988e-10 0
-2.61022e-07 1.15007e-10 0
-2.61035e-07 8.52994e-11 0
-2.61051e-07 6.32308e-11 0
-2.61068e-07 4.68368e-11 0
-2.61086e-07 3.46518e-11 0
-2.61103e-07 2.55807e-11 0
-2.61118e-07 1.88015e-11 0
-2.61133e-07 1.36895e-11 0
-2.61146e-07 9.7561e-12 0
-2.61158e-07 6.59564e-12 0
-2.61168e-07 3.83285e-12 0
-2.61176e-07 1.07128e-12 0
-2.61183e-07 -2.14158e-12 0
-2.6119e-07 -6.283e-12 0
-2.61196e-07 -1.17423e-11 0
-2.61204e-07 -1.89863e-11 0
0.0128407 2.49887e-07 0
0 -9.13837e-08 0
-1.63813e-11 -1.0944e-07 0
-6.11963e-07 -1.42458e-07 0
-4.23562e-07 -4.4541e-08 0
-3.54556e-07 -2.15225e-08 0
-3.8045e-07 -8.69577e-08 0
-4.43639e-07 -1.61358e-07 0
-6.68178e-07 -3.74611e-07 0
-6.21598e-07 -2.90209e-07 0
-3.08457e-07 -9.60678e-12 0
-9.81388e-08 7.56491e-07 0
-4.05787e-08 5.31435e-07 0
-1.97841e-07 -3.02296e-07 0
-2.60303e-07 -8.43412e-08 0
-2.78917e-07 -7.78531e-10 0
-2.83322e-07 1.39898e-08 0
-2.83139e-07 1.43155e-08 0
-2.81542e-07 1.19749e-08 0
-2.79657e-07 9.44722e-09 0
-2.77897e-07 7.27174e-09 0
-2.764e-07 5.52557e-09 0
-2.75186e-07 4.16671e-09 0
-2.74234e-07 3.12673e-09 0
-2.73502e-07 2.33871e-09 0
-2.72949e-07 1.74538e-09 0
-2.72539e-07 1.30051e-09 0
-2.72239e-07 9.67895e-10 0
-2.72022e-07 7.19708e-10 0
-2.7187e-07 5.34785e-10 0
-2.71765e-07 3.9715e-10 0
-2.71695e-07 2.94794e-10 0
-2.71652e-07 2.18726e-10 0
-2.71627e-07 1.62225e-10 0
-2.71616e-07 1.20276e-10 0
-2.71615e-07 8.91434e-11 0
-2.71621e-07 6.60439e-11 0
-2.71631e-07 4.89074e-11 0
-2.71643e-07 3.6193e-11 0
-2.71657e-07 2.67537e-11 0
-2.71672e-07 1.97337e-11 0
-2.71686e-07 1.44905e-11 0
-2.71699e-07 1.0534e-11 0
-2.71711e-07 7.47497e-12 0
-2.71723e-07 4.97575e-12 0
-2.71732e-07 2.69068e-12 0
-2.71741e-07 1.84122e-13 0
-2.71749e-07 -3.17543e-12 0
-2.71757e-07 -8.26143e-12 0
-2.71767e-07 -1.59501e-11 0
-2.71779e-07 -2.78943e-11 0
0.0128333 3.7436e-07 0
0 -1.29942e-07 0
-5.01464e-11 -1.09055e-07 0
-5.76402e-07 -1.37314e-07 0
-5.6743e-07 -3.33672e-08 0
-5.55771e-07 1.35351e-08 0
-5.51292e-07 7.82874e-08 0
-6.06532e-07 5.94235e-08 0
-6.62602e-07 -5.55915e-08 0
-9.49438e-07 -4.02368e-07 0
-9.88378e-07 -5.91758e-07 0
-1.03306e-06 1.59117e-08 0
-2.96517e-07 3.99686e-07 0
-5.21458e-07 1.96656e-07 0
-5.96226e-07 8.42416e-08 0
-6.01974e-07 4.1224e-08 0
-5.95127e-07 2.38497e-08 0
-5.87329e-07 1.54998e-08 0
-5.80693e-07 1.06881e-08 0
-5.75438e-07 7.57384e-09 0
-5.71393e-07 5.43937e-09 0
-5.68327e-07 3.93698e-09 0
-5.66024e-07 2.86481e-09 0
-5.64307e-07 2.09303e-09 0
-5.63034e-07 1.53396e-09 0
-5.62096e-07 1.12697e-09 0
-5.61409e-07 8.29505e-10 0
-5.60909e-07 6.11411e-10 0
-5.60548e-07 4.51122e-10 0
-5.6029e-07 3.33098e-10 0
-5.60109e-07 2.46077e-10 0
-5.59983e-07 1.81849e-10 0
-5.59898e-07 1.34412e-10 0
-5.59844e-07 9.93583e-11 0
-5.59811e-07 7.34476e-11 0
-5.59793e-07 5.42907e-11 0
-5.59787e-07 4.0125e-11 0
-5.59788e-07 2.96481e-11 0
-5.59794e-07 2.18969e-11 0
-5.59804e-07 1.61579e-11 0
-5.59815e-07 1.19017e-11 0
-5.59826e-07 8.73224e-12 0
-5.59838e-07 6.34909e-12 0
-5.59849e-07 4.51434e-12 0
-5.59859e-07 3.02009e-12 0
-5.59869e-07 1.64456e-12 0
-5.59877e-07 6.95686e-14 0
-5.59886e-07 -2.30476e-12 0
-5.59897e-07 -6.74488e-12 0
-5.59914e-07 -1.56604e-11 0
-5.59941e-07 -4.12467e-11 0
0.0124101 4.77446e-07 0
0 0 0
-2.90472e-11 0 0
-3.09085e-07 0 0
-3.64199e-07 0 0
-3.79285e-07 0 0
-3.63004e-07 0 0
-2.99568e-07 0 0
-2.84672e-07 0 0
-3.27868e-07 0 0
-6.79867e-07 0 0
-9.34881e-07 0 0
-6.8684e-07 0 0
-5.506e-07 0 0
-4.92324e-07 0 0
-4.64975e-07 0 0
-4.49974e-07 0 0
-4.40611e-07 0 0
-4.34315e-07 0 0
-4.2992e-07 0 0
-4.26798e-07 0 0
-4.24556e-07 0 0
-4.22938e-07 0 0
-4.21766e-07 0 0
-4.20915e-07 0 0
-4.20298e-07 0 0
-4.1985e-07 0 0
-4.19526e-07 0 0
-4.19293e-07 0 0
-4.19126e-07 0 0
-4.19008e-07 0 0
-4.18925e-07 0 0
-4.18868e-07 0 0
-4.1883e-07 0 0
-4.18806e-07 0 0
-4.18792e-07 0 0
-4.18785e-07 0 0
-4.18782e-07 0 0
-4.18783e-07 0 0
-4.18786e-07 0 0
-4.18791e-07 0 0
-4.18796e-07 0 0
-4.18801e-07 0 0
-4.18806e-07 0 0
-4.18811e-07 0 0
-4.18815e-07 0 0
-4.1882e-07 0 0
-4.18824e-07 0 0
-4.1883e-07 0 0
-4.18841e-07 0 0
-4.18861e-07 0 0
0.00599706 0 0
0 0 9.92425e-08
-6.67549e-11 0 8.02526e-08
-4.80153e-07 0 9.31038e-08
-5.75537e-07 0 5.79689e-09
-4.90823e-07 0 -1.50104e-08
-2.93573e-07 0 -5.80759e-09
-4.07042e-07 0 5.31081e-09
-3.9291e-07 0 4.58789e-09
-3.5975e-07 0 7.40249e-10
-3.49964e-07 0 -1.84429e-09
-3.73147e-07 0 -2.06643e-09
-4.08451e-07 0 -1.46704e-09
-4.42641e-07 0 -8.6768e-10
-4.71387e-07 0 -4.70053e-10
-4.94146e-07 0 -2.4701e-10
-5.11517e-07 0 -1.32417e-10
-5.2445e-07 0 -7.5303e-11
-5.33929e-07 0 -4.6167e-11
-5.40816e-07 0 -3.02634e-11
-5.45805e-07 0 -2.07872e-11
-5.49421e-07 0 -1.46798e-11
-5.52052e-07 0 -1.05239e-11
-5.53975e-07 0 -7.60534e-12
-5.55389e-07 0 -5.5213e-12
-5.56436e-07 0 -4.02023e-12
-5.57217e-07 0 -2.93388e-12
-5.57803e-07 0 -2.14531e-12
-5.58246e-07 0 -1.57167e-12
-5.58584e-07 0 -1.15364e-12
-5.58844e-07 0 -8.48571e-13
-5.59046e-07 0 -6.25645e-13
-5.59204e-07 0 -4.62555e-13
-5.5933e-07 0 -3.4312e-13
-5.5943e-07 0 -2.5559e-13
-5.59512e-07 0 -1.91442e-13
-5.59579e-07 0 -1.44522e-13
-5.59635e-07 0 -1.10449e-13
-5.59681e-07 0 -8.62126e-14
-5.5972e-07 0 -6.99205e-14
-5.59753e-07 0 -6.06469e-14
-5.59781e-07 0 -5.82196e-14
-5.59805e-07 0 -6.24632e-14
-5.59825e-07 0 -7.03422e-14
-5.59842e-07 0 -6.62681e-14
-5.59857e-07 0 8.09774e-15
-5.59869e-07 0 3.40999e-13
-5.59881e-07 0 1.47277e-12
-5.59894e-07 0 4.67603e-12
-5.59911e-07 0 1.16647e-11
-5.59939e-07 0 3.09098e-11
0.0124101 0 -3.57885e-07
0.0036 2.11464e-07 1.10817e-07
0.00359963 -0.00558668 -0.00287328
0.0150222 -0.010078 -0.00444919
0.0247551 -0.00863381 -0.00240699
0.0341549 -0.00782291 -0.00128148
0.0440361 -0.00484626 -0.000669556
0.0459669 -0.000811425 -0.000331938
0.0453985 0.00229327 -0.000170958
0.0400679 0.00408252 -9.28754e-05
0.035172 0.00391316 -5.33485e-05
0.0314288 0.00303609 -2.8631e-05
0.0289046 0.00209263 -1.50086e-05
0.0273378 0.00132635 -7.78982e-06
0.0264284 0.000784127 -4.01767e-06
0.0259353 0.000432812 -2.06893e-06
0.0256897 0.000219984 -1.07068e-06
0.0255826 9.85888e-05 -5.60214e-07
0.0255485 3.36055e-05 -2.97664e-07
0.0255496 1.52301e-06 -1.61024e-07
0.0255655 -1.23718e-05 -8.88059e-08
0.0255857 -1.67965e-05 -4.99771e-08
0.0256052 -1.66745e-05 -2.87267e-08
0.0256222 -1.4655e-05 -1.68844e-08
0.0256362 -1.20838e-05 -1.01606e-08
0.0256471 -9.58983e-06 -6.26719e-09
0.0256556 -7.42483e-06 -3.96501e-09
0.0256621 -5.65333e-06 -2.57303e-09
0.0256669 -4.25467e-06 -1.71153e-09
0.0256705 -3.17565e-06 -1.16553e-09
0.0256732 -2.35618e-06 -8.11313e-10
0.0256751 -1.74059e-06 -5.76344e-10
0.0256766 -1.28175e-06 -4.17273e-10
0.0256777 -9.41661e-07 -3.07633e-10
0.0256784 -6.90614e-07 -2.30933e-10
0.025679 -5.05857e-07 -1.7673e-10
0.0256794 -3.70193e-07 -1.38382e-10
0.0256797 -2.70756e-07 -1.11806e-10
0.02568 -1.97993e-07 -9.48889e-11
0.0256801 -1.44856e-07 -8.74752e-11
0.0256802 -1.06189e-07 -9.21388e-11
0.0256803 -7.82773e-08 -1.16591e-10
0.0256804 -5.85341e-08 -1.80329e-10
0.0256804 -4.53345e-08 -3.3351e-10
0.0256805 -3.80134e-08 -7.13259e-10
0.0256805 -3.71352e-08 -1.71968e-09
0.0256806 -4.5332e-08 -4.59047e-09
0.0256806 -6.9651e-08 -1.33732e-08
0.0256807 -1.28933e-07 -4.21773e-08
0.0256808 -2.81013e-07 -1.43619e-07
0.0256811 -6.90158e-07 -4.81938e-07
0.0256816 -9.89101e-07 -7.41011e-07
0.01 1.88805e-07 1.54925e-07
0.0100001 -0.00867346 -0.00515034
0.0183248 -0.0166342 -0.0076452
0.0259868 -0.0163207 -0.00365321
0.0350037 -0.0176388 -0.0017446
0.0522325 -0.0108851 -0.000802136
0.0514088 -0.000861846 -0.000327098
0.0519497 0.00616766 -0.000163346
0.0411597 0.0103686 -9.04195e-05
0.0345775 0.00871475 -5.92178e-05
0.0306775 0.00630697 -3.1633e-05
0.0284281 0.00411156 -1.58562e-05
0.0272448 0.00248682 -7.98793e-06
0.0266701 0.00140796 -3.98547e-06
0.0264228 0.000741615 -1.96736e-06
0.0263409 0.000354177 -9.67781e-07
0.0263358 0.000141925 -4.78138e-07
0.0263618 3.34378e-05 -2.38644e-07
0.0263967 -1.67528e-05 -1.20737e-07
0.0264307 -3.59324e-05 -6.20078e-08
0.02646 -3.96931e-05 -3.23336e-08
0.0264838 -3.65438e-05 -1.71144e-08
0.0265024 -3.0898e-05 -9.19528e-09
0.0265167 -2.48957e-05 -5.01857e-09
0.0265275 -1.94651e-05 -2.78766e-09
0.0265356 -1.49193e-05 -1.5814e-09
0.0265416 -1.12799e-05 -9.20966e-10
0.026546 -8.4468e-06 -5.54427e-10
0.0265493 -6.2819e-06 -3.47791e-10
0.0265517 -4.64866e-06 -2.29101e-10
0.0265535 -3.42757e-06 -1.5936e-10
0.0265548 -2.52049e-06 -1.17247e-10
0.0265557 -1.84982e-06 -9.10096e-11
0.0265564 -1.35563e-06 -7.41322e-11
0.0265569 -9.92411e-07 -6.30297e-11
0.0265573 -7.25958e-07 -5.58334e-11
0.0265575 -5.30789e-07 -5.18128e-11
0.0265577 -3.88034e-07 -5.12265e-11
0.0265579 -2.83803e-07 -5.5599e-11
0.026558 -2.07939e-07 -6.8697e-11
0.026558 -1.53115e-07 -9.91034e-11
0.0265581 -1.14205e-07 -1.67085e-10
0.0265581 -8.7915e-08 -3.23991e-10
0.0265582 -7.27201e-08 -7.10227e-10
0.0265582 -6.92065e-08 -1.73692e-09
0.0265582 -8.11387e-08 -4.68026e-09
0.0265583 -1.17807e-07 -1.37243e-08
0.0265583 -1.97874e-07 -4.34751e-08
0.0265583 -3.49692e-07 -1.48494e-07
0.0265584 -6.11352e-07 -4.98682e-07
0.0265583 -7.75164e-07 -7.66781e-07
0.0148 -1.49334e-07 3.56458e-07
0.0148005 -0.0093869 -0.00713218
0.0202117 -0.0188485 -0.0105425
0.0239786 -0.0211996 -0.0049128
0.0261111 -0.0318621 -0.00227163
0.0283934 -0.0201288 -0.000865688
0.0269605 -2.66682e-06 -0.000147804
0.0277897 0.0128219 -8.42517e-05
0.0332742 0.0215955 -5.37301e-05
0.0294519 0.01447 -3.5435e-05
0.0269863 0.00922371 -2.38981e-05
0.0259002 0.00554506 -1.35781e-05
0.0256207 0.00309463 -7.0284e-06
0.0256941 0.0016114 -3.42865e-06
0.0258729 0.000764705 -1.60757e-06
0.0260524 0.00030837 -7.4074e-07
0.0261989 7.84248e-05 -3.40971e-07
0.0263083 -2.68798e-05 -1.58679e-07
0.0263868 -6.71141e-05 -7.53312e-08
0.0264421 -7.55148e-05 -3.67292e-08
0.0264807 -6.9827e-05 -1.84834e-08
0.0265077 -5.90803e-05 -9.63471e-09
0.0265266 -4.75819e-05 -5.2158e-09
0.02654 -3.71741e-05 -2.93835e-09
0.0265495 -2.84702e-05 -1.72532e-09
0.0265563 -2.15104e-05 -1.05703e-09
0.0265611 -1.60984e-05 -6.75949e-10
0.0265646 -1.19669e-05 -4.5097e-10
0.0265671 -8.85246e-06 -3.13464e-10
0.0265689 -6.52533e-06 -2.26519e-10
0.0265703 -4.79745e-06 -1.69724e-10
0.0265712 -3.52035e-06 -1.31481e-10
0.0265719 -2.57956e-06 -1.05027e-10
0.0265724 -1.88821e-06 -8.63354e-11
0.0265728 -1.38109e-06 -7.30081e-11
0.0265731 -1.00961e-06 -6.36987e-11
0.0265733 -7.37788e-07 -5.78713e-11
0.0265734 -5.39096e-07 -5.5825e-11
0.0265735 -3.94047e-07 -5.90619e-11
0.0265736 -2.88404e-07 -7.13112e-11
0.0265736 -2.11865e-07 -1.01139e-10
0.0265737 -1.57132e-07 -1.68866e-10
0.0265737 -1.19317e-07 -3.26102e-10
0.0265737 -9.56702e-08 -7.14103e-10
0.0265737 -8.56472e-08 -1.74657e-09
0.0265737 -9.1355e-08 -4.70716e-09
0.0265737 -1.18257e-07 -1.37999e-08
0.0265737 -1.75729e-07 -4.36706e-08
0.0265737 -2.76804e-07 -1.48859e-07
0.0265736 -4.28688e-07 -4.99182e-07
0.0265735 -5.17319e-07 -7.6733e-07
0.018 -4.87998e-07 3.77583e-07
0.0180003 -0.0079572 -0.00854815
0.0209632 -0.0160265 -0.0126671
0.0208622 -0.0167014 -0.00585984
0.015813 -0.0191226 -0.00265205
-3.73354e-08 -0.0104922 -0.00091078
3.35234e-05 1.56821e-05 1.85542e-08
-1.60283e-05 1.77301e-05 -1.13617e-05
0.0128381 0.0088028 -1.66679e-05
0.0216297 0.0150559 -1.0078e-05
0.0216845 0.00988831 -1.05388e-05
0.0224664 0.00549332 -9.54094e-06
0.0236013 0.00270162 -5.65224e-06
0.0245868 0.00116037 -2.71701e-06
0.0253046 0.000385677 -1.20497e-06
0.0257822 2.94249e-05 -5.18014e-07
0.0260847 -0.000113346 -2.22421e-07
0.0262714 -0.000154161 -9.79446e-08
0.0263855 -0.000150277 -4.5387e-08
0.0264552 -0.000129668 -2.26131e-08
0.0264979 -0.00010525 -1.22491e-08
0.0265244 -8.24702e-05 -7.19591e-09
0.0265412 -6.32131e-05 -4.52586e-09
0.0265519 -4.77566e-05 -2.99775e-09
0.0265589 -3.57263e-05 -2.06056e-09
0.0265635 -2.65441e-05 -1.45397e-09
0.0265667 -1.96263e-05 -1.04567e-09
0.0265688 -1.44608e-05 -7.63168e-10
0.0265703 -1.0628e-05 -5.63912e-10
0.0265713 -7.79662e-06 -4.21442e-10
0.0265721 -5.71179e-06 -3.18554e-10
0.0265726 -4.18027e-06 -2.43682e-10
0.026573 -3.05713e-06 -1.88883e-10
0.0265733 -2.23452e-06 -1.48633e-10
0.0265735 -1.6326e-06 -1.19102e-10
0.0265736 -1.19247e-06 -9.77227e-11
0.0265737 -8.70826e-07 -8.29763e-11
0.0265738 -6.359e-07 -7.44073e-11
0.0265738 -4.64426e-07 -7.29662e-11
0.0265739 -3.39419e-07 -8.20173e-11
0.0265739 -2.48535e-07 -1.09954e-10
0.0265739 -1.82898e-07 -1.77164e-10
0.0265739 -1.36287e-07 -3.35668e-10
0.0265739 -1.04614e-07 -7.27661e-10
0.0265739 -8.56557e-08 -1.76842e-09
0.0265739 -7.89938e-08 -4.74292e-09
0.0265739 -8.60574e-08 -1.38515e-08
0.0265738 -1.10001e-07 -4.37255e-08
0.0265738 -1.54991e-07 -1.48914e-07
0.0265737 -2.20972e-07 -4.99225e-07
0.0265735 -2.58655e-07 -7.67355e-07
0.0196 -4.71543e-07 2.27432e-07
0.0196 -0.00503697 -0.00927689
0.021427 -0.00995877 -0.0137665
0.0200317 -0.00941737 -0.00632219
0.0148579 -0.00752728 -0.00274264
0.00462615 -0.00303218 -0.00115134
2.6743e-05 -2.48567e-05 -0.000241503
8.82834e-06 -8.82834e-06 -4.90323e-09
-1.54389e-05 1.66178e-05 -3.92685e-06
0.00880757 0.00565145 -6.05786e-06
0.0150674 0.00840533 -6.12002e-06
0.0186202 0.00363987 -7.35466e-06
0.0216919 0.000981116 -5.08461e-06
0.0237434 -8.80372e-05 -2.48405e-06
0.0249809 -0.000428579 -1.08721e-06
0.0256912 -0.000470557 -4.6012e-07
0.0260891 -0.000410243 -1.99793e-07
0.026309 -0.000327425 -9.34131e-08
0.0264297 -0.000250653 -4.82527e-08
0.0264956 -0.000187791 -2.7449e-08
0.0265315 -0.000139064 -1.68265e-08
0.026551 -0.00010232 -1.08542e-08
0.0265616 -7.50126e-05 -7.2411e-09
0.0265674 -5.48818e-05 -4.94405e-09
0.0265705 -4.01076e-05 -3.43482e-09
0.0265721 -2.92918e-05 -2.42008e-09
0.026573 -2.13851e-05 -1.72576e-09
0.0265735 -1.56096e-05 -1.24389e-09
0.0265737 -1.13926e-05 -9.0547e-10
0.0265739 -8.31438e-06 -6.65383e-10
0.0265739 -6.06767e-06 -4.93599e-10
0.026574 -4.42798e-06 -3.69799e-10
0.026574 -3.23136e-06 -2.80053e-10
0.026574 -2.35809e-06 -2.14724e-10
0.026574 -1.72081e-06 -1.6713e-10
0.026574 -1.25573e-06 -1.32713e-10
0.026574 -9.16338e-07 -1.08561e-10
0.026574 -6.68653e-07 -9.32451e-11
0.026574 -4.87892e-07 -8.70519e-11
0.026574 -3.55969e-07 -9.29251e-11
0.026574 -2.59679e-07 -1.1905e-10
0.026574 -1.89385e-07 -1.85809e-10
0.026574 -1.38042e-07 -3.45408e-10
0.026574 -1.00485e-07 -7.40286e-10
0.0265739 -7.28835e-08 -1.78554e-09
0.0265739 -5.2336e-08 -4.76438e-09
0.0265739 -3.6576e-08 -1.38725e-08
0.0265738 -2.38799e-08 -4.37347e-08
0.0265738 -1.32966e-08 -1.48914e-07
0.0265736 -4.22195e-09 -4.99226e-07
0.0265735 3.17815e-11 -7.67358e-07
0.0196 -3.15364e-07 4.57936e-08
0.0196001 -0.00185523 -0.0092913
0.0217555 -0.00368107 -0.013786
0.0212331 -0.00295933 -0.00632516
0.0181564 -0.000128794 -0.00268346
0.0138358 0.00598594 -0.00131161
0.00888044 0.00498156 -0.000581855
2.68968e-05 -2.28166e-05 -0.000123159
7.37762e-06 -7.37762e-06 -1.99897e-09
-1.49957e-05 1.58822e-05 -1.50438e-06
0.00565281 8.69441e-05 -3.94119e-06
0.0150098 -0.00112258 -7.83887e-06
0.020786 -0.0024157 -8.28426e-06
0.0237358 -0.00212505 -4.10442e-06
0.0251991 -0.00156018 -1.72939e-06
0.0259213 -0.00107769 -7.30753e-07
0.026276 -0.000730498 -3.32339e-07
0.0264482 -0.000494441 -1.66204e-07
0.0265298 -0.000336729 -9.03601e-08
0.0265667 -0.000231438 -5.21629e-08
0.0265819 -0.000160649 -3.13392e-08
0.0265868 -0.000112561 -1.93611e-08
0.0265871 -7.95227e-05 -1.22302e-08
0.0265855 -5.65758e-05 -7.88293e-09
0.0265835 -4.04812e-05 -5.18088e-09
0.0265815 -2.90979e-05 -3.47052e-09
0.0265798 -2.09908e-05 -2.36782e-09
0.0265784 -1.51848e-05 -1.64363e-09
0.0265773 -1.10082e-05 -1.15936e-09
0.0265764 -7.99341e-06 -8.2995e-10
0.0265758 -5.81146e-06 -6.02393e-10
0.0265753 -4.22905e-06 -4.43046e-10
0.026575 -3.07967e-06 -3.30175e-10
0.0265747 -2.24383e-06 -2.49506e-10
0.0265745 -1.63547e-06 -1.91559e-10
0.0265744 -1.19236e-06 -1.50056e-10
0.0265743 -8.69436e-07 -1.21009e-10
0.0265742 -6.33966e-07 -1.02314e-10
0.0265741 -4.62141e-07 -9.3834e-11
0.0265741 -3.36592e-07 -9.82676e-11
0.026574 -2.44589e-07 -1.2369e-10
0.026574 -1.76704e-07 -1.90484e-10
0.026574 -1.25787e-07 -3.50927e-10
0.026574 -8.61322e-08 -7.47487e-10
0.026574 -5.27315e-08 -1.79492e-09
0.0265739 -2.05418e-08 -4.775e-09
0.0265739 1.61759e-08 -1.38799e-08
0.0265739 6.40645e-08 -4.37295e-08
0.0265738 1.29298e-07 -1.48891e-07
0.0265737 2.1281e-07 -4.99199e-07
0.0265736 2.58717e-07 -7.67335e-07
0.018 -2.20606e-07 -1.06184e-07
0.0180002 0.000751569 -0.00863579
0.0213381 0.00120275 -0.0128024
0.0224766 0.00134639 -0.00589155
0.0219022 0.0033679 -0.00252096
0.0213164 0.00810255 -0.0012102
0.0222213 0.014694 -0.000641423
0.0142717 0.00906391 -0.000289966
2.74155e-05 -1.82176e-05 -6.25451e-05
-1.31151e-05 -1.95589e-05 7.71513e-08
1.62386e-06 -0.00659996 6.91119e-06
0.0155881 -0.0114855 -1.5732e-06
0.0226658 -0.00773833 -1.31281e-05
0.0252233 -0.004497 -6.63587e-06
0.0261719 -0.0026118 -2.77607e-06
0.0265268 -0.00154621 -1.19492e-06
0.0266493 -0.000936493 -5.55642e-07
0.0266798 -0.000580903 -2.78317e-07
0.0266755 -0.000368976 -1.47388e-07
0.0266598 -0.000239727 -8.10528e-08
0.0266425 -0.000159026 -4.57424e-08
0.0266269 -0.000107455 -2.63355e-08
0.0266141 -7.37667e-05 -1.54399e-08
0.026604 -5.13138e-05 -9.22326e-09
0.0265963 -3.60813e-05 -5.62369e-09
0.0265904 -2.55898e-05 -3.50695e-09
0.026586 -1.8272e-05 -2.24045e-09
0.0265828 -1.31155e-05 -1.46779e-09
0.0265804 -9.45231e-06 -9.86278e-10
0.0265786 -6.83324e-06 -6.79411e-10
0.0265773 -4.95142e-06 -4.79375e-10
0.0265764 -3.59416e-06 -3.461e-10
0.0265757 -2.6124e-06 -2.55503e-10
0.0265752 -1.90069e-06 -1.92857e-10
0.0265748 -1.38387e-06 -1.49027e-10
0.0265745 -1.00809e-06 -1.18356e-10
0.0265743 -7.34564e-07 -9.7509e-11
0.0265742 -5.3526e-07 -8.49623e-11
0.0265741 -3.89838e-07 -8.10662e-11
0.026574 -2.83463e-07 -8.89061e-11
0.0265739 -2.05219e-07 -1.16858e-10
0.0265739 -1.46913e-07 -1.85539e-10
0.0265739 -1.02125e-07 -3.47413e-10
0.0265738 -6.53571e-08 -7.45112e-10
0.0265738 -3.11465e-08 -1.79352e-09
0.0265738 7.02056e-09 -4.77414e-09
0.0265738 5.80961e-08 -1.38766e-08
0.0265738 1.34862e-07 -4.37116e-08
0.0265737 2.53188e-07 -1.48832e-07
0.0265736 4.21094e-07 -4.99119e-07
0.0265735 5.17371e-07 -7.67264e-07
0.0148 -2.04721e-07 -2.38967e-07
0.0148003 0.00222213 -0.00741668
0.0199607 0.00375795 -0.0109973
0.0230158 0.0031486 -0.00511852
0.0246735 0.00430308 -0.00226483
0.0264371 0.00737184 -0.00110778
0.0297641 0.012976 -0.000587184
0.03507 0.0226561 -0.000312577
0.030343 0.0143618 -0.000105882
0.0305032 -4.1816e-10 1.02097e-05
0.0323522 -0.0154959 1.51742e-05
0.0305608 -0.0237775 -4.38783e-06
0.0291296 -0.0120421 -1.44811e-05
0.0282772 -0.00562566 -7.20698e-06
0.0277226 -0.00286073 -3.08842e-06
0.02735 -0.00155358 -1.35863e-06
0.0270992 -0.000882717 -6.27763e-07
0.0269304 -0.000520134 -3.01782e-07
0.0268164 -0.000316522 -1.48678e-07
0.0267389 -0.00019836 -7.39905e-08
0.0266857 -0.000127667 -3.6695e-08
0.0266488 -8.41353e-05 -1.78726e-08
0.0266229 -5.65938e-05 -8.37933e-09
0.0266047 -3.87302e-05 -3.64822e-09
0.0265917 -2.68838e-05 -1.35118e-09
0.0265825 -1.88754e-05 -2.88815e-10
0.0265758 -1.3373e-05 1.58299e-10
0.026571 -9.54186e-06 3.08592e-10
0.0265675 -6.8455e-06 3.23756e-10
0.026565 -4.93165e-06 2.84093e-10
0.0265632 -3.56416e-06 2.27993e-10
0.0265618 -2.58206e-06 1.72598e-10
0.0265609 -1.87395e-06 1.24537e-10
0.0265602 -1.36188e-06 8.54411e-11
0.0265596 -9.90708e-07 5.47006e-11
0.0265593 -7.21198e-07 3.07687e-11
0.026559 -5.25215e-07 1.16779e-11
0.0265588 -3.82494e-07 -4.93485e-12
0.0265586 -2.7836e-07 -2.22465e-11
0.0265585 -2.02113e-07 -4.53706e-11
0.0265585 -1.45847e-07 -8.40952e-11
0.0265584 -1.0356e-07 -1.59957e-10
0.0265584 -7.04081e-08 -3.2595e-10
0.0265583 -4.19816e-08 -7.24979e-10
0.0265583 -1.34194e-08 -1.77218e-09
0.0265583 2.19404e-08 -4.74931e-09
0.0265583 7.49557e-08 -1.38431e-08
0.0265583 1.65141e-07 -4.3637e-08
0.0265584 3.27331e-07 -1.48575e-07
0.0265584 6.03571e-07 -4.98579e-07
0.0265583 7.75194e-07 -7.66589e-07
0.01 -3.06707e-07 -4.01546e-07
0.0100001 0.00205548 -0.0058453
0.0175516 0.00335227 -0.00868806
0.0222675 0.00247479 -0.00414173
0.0255435 0.00288847 -0.00193591