# vtk DataFile Version 2.0
Tobias Weinzierl: CPU, Manycore and Cluster Computing
ASCII

DATASET STRUCTURED_POINTS
DIMENSIONS  51 11 6

ORIGIN 0 0 0 

SPACING 0.1 0.1 0.1 

POINT_DATA 3366

VECTORS velocity float
0 0 0
2.90906e-12 0 0
9.9244e-09 0 0
-1.18643e-09 0 0
-5.31392e-08 0 0
-1.75824e-08 0 0
-1.16551e-08 0 0
-1.26241e-08 0 0
-1.05594e-08 0 0
-5.1008e-09 0 0
-1.97324e-09 0 0
-7.29968e-09 0 0
-1.93297e-08 0 0
-3.08116e-08 0 0
-3.66364e-08 0 0
-3.73516e-08 0 0
-3.62551e-08 0 0
-3.57179e-08 0 0
-3.6307e-08 0 0
-3.76138e-08 0 0
-3.90892e-08 0 0
-4.0385e-08 0 0
-4.13708e-08 0 0
-4.20496e-08 0 0
-4.24807e-08 0 0
-4.27337e-08 0 0
-4.28688e-08 0 0
-4.29314e-08 0 0
-4.29524e-08 0 0
-4.29517e-08 0 0
-4.29412e-08 0 0
-4.29276e-08 0 0
-4.29144e-08 0 0
-4.29031e-08 0 0
-4.28941e-08 0 0
-4.28874e-08 0 0
-4.28827e-08 0 0
-4.28795e-08 0 0
-4.28775e-08 0 0
-4.28764e-08 0 0
-4.28759e-08 0 0
-4.28759e-08 0 0
-4.28761e-08 0 0
-4.28766e-08 0 0
-4.28772e-08 0 0
-4.28779e-08 0 0
-4.28787e-08 0 0
-4.28797e-08 0 0
-4.2881e-08 0 0
-4.2884e-08 0 0
0.00208931 0 0
0 3.91668e-07 0
1.03753e-12 -9.90909e-09 0
1.78056e-08 -1.53898e-08 0
5.00444e-09 2.46574e-09 0
-6.79455e-08 -1.86424e-08 0
-9.54705e-09 -2.01543e-08 0
-9.9313e-09 2.81358e-08 0
-2.2154e-08 4.02334e-08 0
-2.49746e-08 2.98755e-08 0
-1.96031e-08 1.77204e-08 0
-1.42424e-08 1.40382e-08 0
-2.02674e-08 1.82933e-08 0
-3.82009e-08 2.04614e-08 0
-5.64652e-08 1.5316e-08 0
-6.57859e-08 6.94494e-09 0
-6.77037e-08 1.23573e-09 0
-6.8462e-08 -3.42819e-10 0
-7.15703e-08 3.54446e-10 0
-7.69107e-08 1.36293e-09 0
-8.29597e-08 1.85434e-09 0
-8.84306e-08 1.81448e-09 0
-9.27231e-08 1.48622e-09 0
-9.57699e-08 1.08197e-09 0
-9.77687e-08 7.18284e-10 0
-9.8991e-08 4.37341e-10 0
-9.96853e-08 2.40822e-10 0
-1.00044e-07 1.13876e-10 0
-1.00204e-07 3.79977e-11 0
-1.00252e-07 -3.32969e-12 0
-1.00244e-07 -2.28584e-11 0
-1.00212e-07 -2.95858e-11 0
-1.00174e-07 -2.94339e-11 0
-1.00138e-07 -2.60598e-11 0
-1.00107e-07 -2.1572e-11 0
-1.00082e-07 -1.70853e-11 0
-1.00064e-07 -1.31132e-11 0
-1.00051e-07 -9.82955e-12 0
-1.00042e-07 -7.23175e-12 0
-1.00036e-07 -5.23749e-12 0
-1.00032e-07 -3.73819e-12 0
-1.0003e-07 -2.62593e-12 0
-1.00029e-07 -1.80516e-12 0
-1.00029e-07 -1.19521e-12 0
-1.0003e-07 -7.28259e-13 0
-1.00031e-07 -3.44609e-13 0
-1.00032e-07 2.23075e-14 0
-1.00034e-07 4.55567e-13 0
-1.00037e-07 1.11037e-12 0
-1.0004e-07 2.90311e-12 0
-1.00048e-07 8.06247e-12 0
0.00593363 -6.5281e-08 0
0 -2.27979e-08 0
-2.11184e-12 -8.43471e-09 0
2.28119e-08 -2.66318e-08 0
3.58349e-08 -4.74389e-08 0
9.29569e-09 -1.01045e-07 0
6.15634e-08 -7.95042e-08 0
3.16167e-08 4.79738e-09 0
-7.98092e-09 2.07707e-08 0
-3.93627e-08 1.49693e-08 0
-4.34108e-08 1.40015e-08 0
-3.4496e-08 1.3764e-08 0
-3.20095e-08 1.13133e-08 0
-4.3875e-08 9.76034e-09 0
-5.89909e-08 1.189e-08 0
-6.56066e-08 1.63872e-08 0
-6.49096e-08 2.00011e-08 0
-6.36285e-08 2.09046e-08 0
-6.55878e-08 1.92977e-08 0
-7.05972e-08 1.61959e-08 0
-7.67892e-08 1.25783e-08 0
-8.25228e-08 9.13856e-09 0
-8.69955e-08 6.25473e-09 0
-9.00877e-08 4.04617e-09 0
-9.20262e-08 2.46985e-09 0
-9.31321e-08 1.40938e-09 0
-9.36948e-08 7.3377e-10 0
-9.39318e-08 3.2681e-10 0
-9.39896e-08 9.72809e-11 0
-9.39594e-08 -2.09901e-11 0
-9.38938e-08 -7.32e-11 0
-9.38208e-08 -8.86599e-11 0
-9.37538e-08 -8.54491e-11 0
-9.3698e-08 -7.41327e-11 0
-9.3654e-08 -6.04936e-11 0
-9.36209e-08 -4.74176e-11 0
-9.35968e-08 -3.61266e-11 0
-9.35797e-08 -2.69482e-11 0
-9.3568e-08 -1.97729e-11 0
-9.35604e-08 -1.43115e-11 0
-9.35555e-08 -1.023e-11 0
-9.35528e-08 -7.21354e-12 0
-9.35515e-08 -4.9904e-12 0
-9.35511e-08 -3.33421e-12 0
-9.35515e-08 -2.05205e-12 0
-9.35524e-08 -9.6506e-13 0
-9.35538e-08 1.33686e-13 0
-9.35557e-08 1.62384e-12 0
-9.35584e-08 4.1794e-12 0
-9.35617e-08 8.50381e-12 0
-9.35676e-08 1.51523e-11 0
0.00834089 -1.31524e-07 0
0 -6.42422e-07 0
3.28603e-12 -1.32143e-08 0
2.78899e-08 -4.50213e-08 0
4.87646e-08 -8.49843e-08 0
1.37613e-08 -1.13608e-07 0
5.35284e-08 -6.04598e-08 0
2.9895e-08 -4.27681e-11 0
1.54865e-09 -6.35162e-09 0
-4.90459e-08 -2.47056e-08 0
-6.04836e-08 -4.25438e-08 0
-5.23946e-08 -4.91753e-08 0
-5.56779e-08 -4.0726e-08 0
-7.22777e-08 -1.54558e-08 0
-8.87489e-08 1.3368e-08 0
-9.24543e-08 3.16823e-08 0
-8.44162e-08 3.69717e-08 0
-7.21611e-08 3.41007e-08 0
-6.21318e-08 2.82014e-08 0
-5.66606e-08 2.18762e-08 0
-5.48959e-08 1.60523e-08 0
-5.50245e-08 1.11028e-08 0
-5.56697e-08 7.19912e-09 0
-5.61785e-08 4.33999e-09 0
-5.63894e-08 2.38893e-09 0
-5.63568e-08 1.146e-09 0
-5.61851e-08 4.09711e-10 0
-5.59605e-08 1.05969e-11 0
-5.57371e-08 -1.78654e-10 0
-5.55415e-08 -2.46158e-10 0
-5.53827e-08 -2.48924e-10 0
-5.52601e-08 -2.21572e-10 0
-5.51687e-08 -1.83735e-10 0
-5.51024e-08 -1.45624e-10 0
-5.50554e-08 -1.11869e-10 0
-5.50227e-08 -8.4009e-11 0
-5.50004e-08 -6.20173e-11 0
-5.49856e-08 -4.51773e-11 0
-5.49761e-08 -3.25577e-11 0
-5.49702e-08 -2.32462e-11 0
-5.49668e-08 -1.64482e-11 0
-5.49652e-08 -1.15122e-11 0
-5.49647e-08 -7.92124e-12 0
-5.49649e-08 -5.26667e-12 0
-5.49656e-08 -3.21495e-12 0
-5.49667e-08 -1.45337e-12 0
-5.49679e-08 3.62471e-13 0
-5.49692e-08 2.55174e-12 0
-5.49704e-08 5.28874e-12 0
-5.49707e-08 8.71162e-12 0
-5.49722e-08 1.31558e-11 0
0.00919379 -1.28741e-07 0
0 -1.24142e-06 0
-6.99497e-12 -2.30608e-08 0
1.20931e-08 -6.164e-08 0
1.24129e-08 -7.81705e-08 0
-2.37288e-08 -6.07561e-08 0
-1.5426e-11 -2.11888e-08 0
-3.21362e-10 -3.65002e-10 0
3.30518e-10 -3.59388e-10 0
-2.40988e-08 -2.56156e-08 0
-6.84192e-08 -6.7158e-08 0
-8.11142e-08 -7.94868e-08 0
-8.88265e-08 -5.84216e-08 0
-1.04252e-07 -1.76708e-08 0
-1.16115e-07 2.04353e-08 0
-1.1747e-07 3.85913e-08 0
-1.0706e-07 3.85076e-08 0
-8.85939e-08 3.02333e-08 0
-6.92516e-08 2.14895e-08 0
-5.43378e-08 1.46732e-08 0
-4.49134e-08 9.56695e-09 0
-3.95306e-08 5.70852e-09 0
-3.64411e-08 2.90088e-09 0
-3.45025e-08 1.02231e-09 0
-3.31552e-08 -9.81508e-11 0
-3.21643e-08 -6.67146e-10 0
-3.14284e-08 -8.78501e-10 0
-3.08903e-08 -8.84047e-10 0
-3.0506e-08 -7.8809e-10 0
-3.0238e-08 -6.54861e-10 0
-3.0055e-08 -5.19734e-10 0
-2.99323e-08 -3.99478e-10 0
-2.98514e-08 -2.99978e-10 0
-2.97988e-08 -2.21379e-10 0
-2.97652e-08 -1.6123e-10 0
-2.97441e-08 -1.1623e-10 0
-2.97312e-08 -8.31188e-11 0
-2.97237e-08 -5.90558e-11 0
-2.97196e-08 -4.1729e-11 0
-2.97178e-08 -2.93349e-11 0
-2.97174e-08 -2.05053e-11 0
-2.97179e-08 -1.42195e-11 0
-2.97189e-08 -9.72243e-12 0
-2.97201e-08 -6.45036e-12 0
-2.97214e-08 -3.97281e-12 0
-2.97227e-08 -1.97173e-12 0
-2.97236e-08 -2.49904e-13 0
-2.9724e-08 1.28574e-12 0
-2.97239e-08 2.72181e-12 0
-2.97226e-08 4.34197e-12 0
-2.97223e-08 6.79193e-12 0
0.00944369 -7.3029e-08 0
0 -1.11534e-06 0
-2.16553e-11 -2.44589e-08 0
-2.8324e-09 -5.10689e-08 0
-1.04379e-08 -6.15947e-08 0
-4.20181e-08 -6.98223e-08 0
-3.23692e-08 -3.48441e-08 0
-3.28286e-10 3.17982e-10 0
1.25371e-11 -1.25371e-11 0
3.12975e-10 -3.4806e-10 0
-3.68444e-08 -3.61782e-08 0
-9.2524e-08 -8.24855e-08 0
-9.53533e-08 -6.98151e-08 0
-9.93343e-08 -1.887e-08 0
-1.04982e-07 2.61826e-08 0
-1.1239e-07 4.47783e-08 0
-1.1286e-07 3.91357e-08 0
-9.97409e-08 2.39374e-08 0
-7.83653e-08 1.09377e-08 0
-5.81278e-08 3.14604e-09 0
-4.36948e-08 -9.09625e-10 0
-3.48674e-08 -2.91585e-09 0
-2.9781e-08 -3.75762e-09 0
-2.68322e-08 -3.86904e-09 0
-2.50626e-08 -3.54164e-09 0
-2.39689e-08 -3.00243e-09 0
-2.3286e-08 -2.41137e-09 0
-2.28628e-08 -1.86226e-09 0
-2.26054e-08 -1.39749e-09 0
-2.2453e-08 -1.02683e-09 0
-2.23659e-08 -7.42899e-10 0
-2.23183e-08 -5.31435e-10 0
-2.22941e-08 -3.77048e-10 0
-2.22832e-08 -2.6592e-10 0
-2.22798e-08 -1.86733e-10 0
-2.22803e-08 -1.30709e-10 0
-2.22828e-08 -9.12724e-11 0
-2.22861e-08 -6.36094e-11 0
-2.22897e-08 -4.425e-11 0
-2.22932e-08 -3.07191e-11 0
-2.22965e-08 -2.12634e-11 0
-2.22995e-08 -1.46448e-11 0
-2.23023e-08 -9.99152e-12 0
-2.23046e-08 -6.69668e-12 0
-2.23066e-08 -4.35285e-12 0
-2.23082e-08 -2.69708e-12 0
-2.23093e-08 -1.55176e-12 0
-2.23097e-08 -8.04149e-13 0
-2.23098e-08 -4.15138e-13 0
-2.23088e-08 -2.6426e-13 0
-2.23086e-08 1.87151e-13 0
0.00949294 3.88522e-09 0
0 -7.75619e-07 0
-1.49922e-11 -1.71848e-08 0
-3.58173e-09 -4.29037e-08 0
-1.07987e-08 -5.29683e-08 0
-5.74093e-08 -4.84013e-08 0
-7.74793e-08 -2.5556e-08 0
-2.81023e-08 -4.40174e-09 0
-3.23245e-10 3.12718e-10 0
2.578e-13 -2.578e-13 0
2.88618e-10 -3.37329e-10 0
-4.15778e-08 -4.61993e-08 0
-6.15087e-08 -6.92537e-08 0
-6.44918e-08 -1.44198e-08 0
-6.39643e-08 3.67051e-08 0
-7.50692e-08 5.62247e-08 0
-9.06884e-08 4.44868e-08 0
-9.2815e-08 2.0557e-08 0
-7.90522e-08 1.47219e-09 0
-6.03524e-08 -8.28957e-09 0
-4.55187e-08 -1.14756e-08 0
-3.65632e-08 -1.13764e-08 0
-3.20093e-08 -9.91344e-09 0
-2.99745e-08 -8.0272e-09 0
-2.91895e-08 -6.1794e-09 0
-2.89707e-08 -4.58403e-09 0
-2.89875e-08 -3.30979e-09 0
-2.90884e-08 -2.34425e-09 0
-2.92072e-08 -1.63875e-09 0
-2.93172e-08 -1.1359e-09 0
-2.94095e-08 -7.8337e-10 0
-2.94832e-08 -5.38811e-10 0
-2.95403e-08 -3.7021e-10 0
-2.95839e-08 -2.54356e-10 0
-2.96168e-08 -1.74848e-10 0
-2.96417e-08 -1.20284e-10 0
-2.96606e-08 -8.2812e-11 0
-2.96749e-08 -5.7049e-11 0
-2.96859e-08 -3.93131e-11 0
-2.96945e-08 -2.70861e-11 0
-2.97012e-08 -1.86452e-11 0
-2.97066e-08 -1.28124e-11 0
-2.97109e-08 -8.78637e-12 0
-2.97143e-08 -6.02579e-12 0
-2.97171e-08 -4.1681e-12 0
-2.97193e-08 -2.97998e-12 0
-2.97209e-08 -2.33054e-12 0
-2.9722e-08 -2.18957e-12 0
-2.97227e-08 -2.69181e-12 0
-2.97226e-08 -4.09068e-12 0
-2.9723e-08 -6.20173e-12 0
0.00944366 7.87366e-08 0
0 -5.44535e-07 0
-6.42078e-12 -1.33596e-08 0
-3.05045e-09 -3.2646e-08 0
-1.73293e-08 -3.97046e-08 0
-5.9841e-08 -3.09366e-08 0
-9.12376e-08 -1.03065e-08 0
-7.18333e-08 -2.79595e-09 0
-3.48045e-08 -3.00993e-09 0
-3.37526e-10 2.87909e-10 0
2.81344e-10 2.79922e-10 0
1.8774e-13 -2.33672e-08 0
-4.51014e-08 -3.1881e-08 0
-6.45168e-08 6.62109e-09 0
-4.77855e-08 4.49024e-08 0
-3.19233e-08 5.76655e-08 0
-4.14645e-08 4.29288e-08 0
-5.91129e-08 1.69934e-08 0
-6.48566e-08 -3.57712e-09 0
-5.99444e-08 -1.35677e-08 0
-5.33548e-08 -1.57739e-08 0
-4.95838e-08 -1.41901e-08 0
-4.8665e-08 -1.13579e-08 0
-4.93036e-08 -8.4987e-09 0
-5.04596e-08 -6.0907e-09 0
-5.16016e-08 -4.24437e-09 0
-5.25393e-08 -2.90698e-09 0
-5.32465e-08 -1.97204e-09 0
-5.37567e-08 -1.33223e-09 0
-5.41165e-08 -8.99424e-10 0
-5.43675e-08 -6.08115e-10 0
-5.45419e-08 -4.12197e-10 0
-5.46632e-08 -2.8021e-10 0
-5.4748e-08 -1.91029e-10 0
-5.48075e-08 -1.30564e-10 0
-5.48496e-08 -8.94303e-11 0
-5.48797e-08 -6.13596e-11 0
-5.49015e-08 -4.21519e-11 0
-5.49175e-08 -2.89799e-11 0
-5.49294e-08 -1.99326e-11 0
-5.49383e-08 -1.37147e-11 0
-5.49452e-08 -9.44718e-12 0
-5.49506e-08 -6.5341e-12 0
-5.49548e-08 -4.57587e-12 0
-5.49582e-08 -3.31532e-12 0
-5.49609e-08 -2.60923e-12 0
-5.4963e-08 -2.42017e-12 0
-5.49648e-08 -2.81222e-12 0
-5.49663e-08 -4.05335e-12 0
-5.49672e-08 -6.90671e-12 0
-5.4969e-08 -1.19675e-11 0
0.00919374 1.27672e-07 0
0 -4.66611e-07 0
-2.07549e-12 -7.69141e-09 0
-3.85569e-09 -2.08357e-08 0
-2.71583e-08 -2.79864e-08 0
-7.21704e-08 -2.23916e-08 0
-1.04332e-07 -9.55674e-10 0
-9.39386e-08 7.76757e-09 0
-7.59752e-08 -2.18111e-08 0
-4.6892e-08 -2.29855e-08 0
-4.07722e-08 -6.48128e-13 0
-4.49906e-08 5.4237e-09 0
-8.92025e-08 2.08186e-08 0
-1.12699e-07 3.25564e-08 0
-7.50737e-08 3.11705e-08 0
-2.38887e-08 2.29296e-08 0
-1.72936e-08 1.246e-08 0
-4.46572e-08 2.69837e-09 0
-6.89585e-08 -4.14077e-09 0
-7.86554e-08 -7.29014e-09 0
-8.07832e-08 -7.67786e-09 0
-8.18164e-08 -6.71115e-09 0
-8.35612e-08 -5.34033e-09 0
-8.57174e-08 -4.01804e-09 0
-8.77559e-08 -2.91508e-09 0
-8.94159e-08 -2.06573e-09 0
-9.06586e-08 -1.44322e-09 0
-9.15462e-08 -1.00057e-09 0
-9.2164e-08 -6.91218e-10 0
-9.2589e-08 -4.76915e-10 0
-9.28801e-08 -3.29016e-10 0
-9.30796e-08 -2.27055e-10 0
-9.3217e-08 -1.56751e-10 0
-9.33121e-08 -1.08245e-10 0
-9.33784e-08 -7.47579e-11 0
-9.3425e-08 -5.16276e-11 0
-9.34582e-08 -3.5646e-11 0
-9.3482e-08 -2.46026e-11 0
-9.34993e-08 -1.6973e-11 0
-9.35121e-08 -1.17058e-11 0
-9.35217e-08 -8.07592e-12 0
-9.3529e-08 -5.58533e-12 0
-9.35347e-08 -3.89552e-12 0
-9.35392e-08 -2.78372e-12 0
-9.35428e-08 -2.11595e-12 0
-9.35458e-08 -1.83392e-12 0
-9.35484e-08 -1.96663e-12 0
-9.35507e-08 -2.64451e-12 0
-9.35531e-08 -4.16722e-12 0
-9.35557e-08 -7.5238e-12 0
-9.35608e-08 -1.40374e-11 0
0.00834086 1.20942e-07 0
0 -4.84557e-07 0
5.65746e-12 -2.38954e-09 0
-5.44721e-09 -8.15916e-09 0
-3.38487e-08 -1.23682e-08 0
-7.6805e-08 -1.04771e-08 0
-1.07562e-07 -5.21986e-09 0
-1.00943e-07 -1.70465e-09 0
-8.6176e-08 -1.15996e-08 0
-9.99783e-08 -1.31678e-08 0
-9.23411e-08 6.0697e-09 0
-8.16296e-08 2.40761e-08 0
-8.04013e-08 3.35942e-08 0
-7.5259e-08 2.8294e-08 0
-4.40098e-08 1.06288e-08 0
-1.46369e-08 -9.33649e-09 0
-2.35013e-08 -2.02261e-08 0
-5.68972e-08 -1.78637e-08 0
-8.33767e-08 -8.82712e-09 0
-9.38216e-08 -1.53373e-09 0
-9.53924e-08 1.42556e-09 0
-9.49331e-08 1.62308e-09 0
-9.49216e-08 9.4515e-10 0
-9.55346e-08 3.07933e-10 0
-9.64141e-08 -6.75499e-11 0
-9.72805e-08 -2.25948e-10 0
-9.80086e-08 -2.58173e-10 0
-9.85721e-08 -2.32722e-10 0
-9.89887e-08 -1.88587e-10 0
-9.92887e-08 -1.44182e-10 0
-9.95018e-08 -1.06467e-10 0
-9.96521e-08 -7.69194e-11 0
-9.9758e-08 -5.4788e-11 0
-9.98327e-08 -3.86527e-11 0
-9.98857e-08 -2.70878e-11 0
-9.99234e-08 -1.8891e-11 0
-9.99505e-08 -1.31259e-11 0
-9.99703e-08 -9.09343e-12 0
-9.99848e-08 -6.28506e-12 0
-9.99957e-08 -4.3369e-12 0
-1.00004e-07 -2.992e-12 0
-1.0001e-07 -2.0715e-12 0
-1.00015e-07 -1.4539e-12 0
-1.0002e-07 -1.06141e-12 0
-1.00023e-07 -8.51994e-13 0
-1.00026e-07 -8.17321e-13 0
-1.00029e-07 -9.94913e-13 0
-1.00031e-07 -1.48505e-12 0
-1.00034e-07 -2.44485e-12 0
-1.00038e-07 -4.28496e-12 0
-1.00046e-07 -7.98518e-12 0
0.00593365 5.33181e-08 0
0 0 0
5.17031e-12 0 0
-3.02661e-09 0 0
-1.69513e-08 0 0
-3.56963e-08 0 0
-4.93416e-08 0 0
-5.07407e-08 0 0
-4.50003e-08 0 0
-5.31107e-08 0 0
-5.15765e-08 0 0
-3.66384e-08 0 0
-1.79543e-08 0 0
-4.94071e-09 0 0
2.96408e-09 0 0
1.48047e-09 0 0
-1.26429e-08 0 0
-3.04245e-08 0 0
-4.17329e-08 0 0
-4.52152e-08 0 0
-4.46794e-08 0 0
-4.33171e-08 0 0
-4.23684e-08 0 0
-4.19659e-08 0 0
-4.1918e-08 0 0
-4.20352e-08 0 0
-4.22014e-08 0 0
-4.23607e-08 0 0
-4.24931e-08 0 0
-4.25957e-08 0 0
-4.26721e-08 0 0
-4.27278e-08 0 0
-4.27679e-08 0 0
-4.27968e-08 0 0
-4.28175e-08 0 0
-4.28325e-08 0 0
-4.28434e-08 0 0
-4.28514e-08 0 0
-4.28574e-08 0 0
-4.2862e-08 0 0
-4.28655e-08 0 0
-4.28683e-08 0 0
-4.28705e-08 0 0
-4.28724e-08 0 0
-4.28739e-08 0 0
-4.28753e-08 0 0
-4.28766e-08 0 0
-4.2878e-08 0 0
-4.28796e-08 0 0
-4.28818e-08 0 0
-4.28861e-08 0 0
0.00208934 0 0
0 0 5.40414e-07
2.92399e-12 0 -2.00793e-11
2.09043e-08 0 1.65743e-08
1.60877e-08 0 6.05931e-08
-1.38474e-07 0 3.50336e-08
-5.07753e-08 0 -2.13347e-08
-2.26671e-08 0 -3.30988e-08
-4.77932e-09 0 -4.13338e-08
1.17843e-08 0 -3.74036e-08
3.06824e-08 0 -2.63114e-08
4.55959e-08 0 -1.18441e-08
4.24476e-08 0 -9.41668e-10
1.88034e-08 0 3.04567e-09
-1.30319e-08 0 1.98577e-09
-3.89064e-08 0 -4.09845e-10
-5.45556e-08 0 -1.62186e-09
-6.39248e-08 0 -1.29578e-09
-7.1524e-08 0 -3.07436e-10
-7.90229e-08 0 5.28104e-10
-8.61271e-08 0 9.22955e-10
-9.21572e-08 0 9.51825e-10
-9.67755e-08 0 7.90557e-10
-1.00027e-07 0 5.7792e-10
-1.0216e-07 0 3.86905e-10
-1.03473e-07 0 2.42037e-10
-1.04227e-07 0 1.42753e-10
-1.04626e-07 0 7.93673e-11
-1.04811e-07 0 4.1126e-11
-1.04874e-07 0 1.92183e-11
-1.04875e-07 0 7.34367e-12
-1.04848e-07 0 1.34675e-12
-1.04812e-07 0 -1.36353e-12
-1.04776e-07 0 -2.33226e-12
-1.04745e-07 0 -2.44355e-12
-1.0472e-07 0 -2.18139e-12
-1.04701e-07 0 -1.79674e-12
-1.04687e-07 0 -1.40983e-12
-1.04677e-07 0 -1.07067e-12
-1.04671e-07 0 -7.93514e-13
-1.04667e-07 0 -5.75716e-13
-1.04665e-07 0 -4.07616e-13
-1.04664e-07 0 -2.77431e-13
-1.04664e-07 0 -1.72883e-13
-1.04664e-07 0 -8.14954e-14
-1.04665e-07 0 8.19048e-15
-1.04666e-07 0 1.10825e-13
-1.04668e-07 0 2.22544e-13
-1.0467e-07 0 2.82498e-13
-1.04674e-07 0 7.9417e-13
-1.04681e-07 0 3.92699e-12
0.00589598 0 -2.03338e-08
0.0036 -3.04907e-07 -5.92806e-08
0.00359981 -0.00133288 1.48868e-06
0.00673841 -0.00382539 8.53901e-05
0.0135933 -0.00616507 -0.000816189
0.0237806 -0.0143653 -0.00456199
0.0461184 -0.0128053 -0.00493576
0.049528 -0.0016446 -0.00168819
0.0492526 0.00282333 -0.000197163
0.0441713 0.00510397 0.000527304
0.0384611 0.0052692 0.000502018
0.0332959 0.0046045 0.000228304
0.0290177 0.0036555 -6.11149e-05
0.0256785 0.00265093 -0.000270886
0.0231768 0.00176789 -0.000351948
0.0213506 0.00111941 -0.000313472
0.0200401 0.000707163 -0.000214873
0.0191153 0.000461273 -0.000117486
0.0184766 0.000310135 -5.0356e-05
0.0180468 0.00020986 -1.41413e-05
0.0177663 0.000139758 1.35285e-06
0.017589 9.04532e-05 5.9682e-06
0.0174807 5.65752e-05 5.97956e-06
0.0174169 3.40801e-05 4.57445e-06
0.0173807 1.96756e-05 3.0817e-06
0.0173613 1.0781e-05 1.91747e-06
0.0173515 5.49159e-06 1.12372e-06
0.0173472 2.4762e-06 6.24089e-07
0.0173457 8.45363e-07 3.27074e-07
0.0173456 2.71003e-08 1.58825e-07
0.0173462 -3.3392e-07 6.7989e-08
0.0173469 -4.51064e-07 2.16779e-08
0.0173476 -4.47919e-07 -7.01782e-11
0.0173483 -3.93099e-07 -8.8775e-09
0.0173488 -3.22656e-07 -1.12612e-08
0.0173492 -2.54029e-07 -1.07366e-08
0.0173495 -1.94475e-07 -9.11356e-09
0.0173498 -1.45986e-07 -7.26607e-09
0.0173499 -1.08068e-07 -5.5734e-09
0.0173501 -7.92358e-08 -4.16605e-09
0.0173501 -5.77725e-08 -3.05895e-09
0.0173502 -4.20867e-08 -2.22299e-09
0.0173503 -3.0851e-08 -1.62249e-09
0.0173503 -2.30365e-08 -1.23112e-09
0.0173503 -1.79165e-08 -1.04692e-09
0.0173503 -1.50474e-08 -1.06688e-09
0.0173504 -1.42554e-08 -1.18513e-09
0.0173504 -1.58432e-08 -1.06895e-09
0.0173504 -2.02092e-08 1.7919e-09
0.0173505 -3.84933e-08 4.60557e-09
0.0173506 -1.2349e-07 -3.17618e-08
0.0173508 -1.93118e-07 -6.82684e-08
0.01 -1.42076e-07 -1.45722e-06
0.0100008 -0.00299117 -0.000557573
0.0148502 -0.0098917 -0.000741156
0.0241345 -0.0177414 -0.00144977
0.0381795 -0.0320178 -0.00349392
0.0584868 -0.0240479 -0.000813879
0.05585 -0.00240882 0.00299564
0.055405 0.00541056 0.00312398
0.0496669 0.0104652 0.00270042
0.0441767 0.0105988 0.00181061
0.039687 0.00943481 0.000884722
0.0359769 0.0078763 0.000140097
0.0329574 0.0062345 -0.000368023
0.0306155 0.00470526 -0.000584333
0.0288548 0.0034099 -0.00054285
0.0275713 0.00239123 -0.000376547
0.026667 0.00163227 -0.000207862
0.0260514 0.00108803 -9.08076e-05
0.0256469 0.000708355 -2.70035e-05
0.0253912 0.000449696 9.00545e-07
0.0252364 0.000277789 9.73713e-06
0.0251471 0.000166537 1.03193e-05
0.0250985 9.65122e-05 8.20269e-06
0.0250741 5.36857e-05 5.75373e-06
0.0250632 2.82804e-05 3.75868e-06
0.0250596 1.37178e-05 2.34325e-06
0.0250595 5.7122e-06 1.4118e-06
0.0250609 1.553e-06 8.27628e-07
0.0250628 -4.2671e-07 4.73639e-07
0.0250646 -1.22333e-06 2.64859e-07
0.0250661 -1.41468e-06 1.44555e-07
0.0250674 -1.32421e-06 7.67232e-08
0.0250684 -1.12511e-06 3.93102e-08
0.0250691 -9.04471e-07 1.91691e-08
0.0250697 -7.01817e-07 8.63809e-09
0.0250701 -5.31594e-07 3.34066e-09
0.0250704 -3.95871e-07 8.24708e-10
0.0250706 -2.91275e-07 -2.56717e-10
0.0250707 -2.12588e-07 -6.27492e-10
0.0250708 -1.54495e-07 -6.67099e-10
0.0250709 -1.12328e-07 -5.71682e-10
0.025071 -8.23235e-08 -4.47521e-10
0.025071 -6.1638e-08 -3.52872e-10
0.0250711 -4.83045e-08 -3.26487e-10
0.0250711 -4.12804e-08 -3.68395e-10
0.0250711 -4.04546e-08 -7.94694e-11
0.0250711 -4.84915e-08 1.15148e-09
0.0250712 -7.71326e-08 5.08946e-09
0.0250713 -1.45614e-07 4.10495e-09
0.0250714 -2.85317e-07 -6.16393e-08
0.0250715 -3.78347e-07 -1.23386e-07
0.0148 -9.65863e-07 -1.74395e-06
0.0148024 -0.005277 -0.00110659
0.0202728 -0.0162667 -0.00238964
0.027161 -0.0283453 -0.00401575
0.0316682 -0.0453148 -0.00566787
0.0301808 -0.0279787 -0.00123055
0.0265622 -1.2099e-05 0.00320407
0.0261118 0.00720093 0.00330456
0.0299334 0.0148058 0.00313117
0.0303968 0.0143781 0.00215875
0.0295553 0.0126464 0.00117239
0.0286218 0.0107596 0.000312275
0.0278618 0.00864298 -0.000250921
0.0274916 0.00649388 -0.000479218
0.0273982 0.00462442 -0.000440744
0.0274412 0.00316518 -0.000287758
0.0275253 0.00210646 -0.000137145
0.0276046 0.00137126 -3.60483e-05
0.0276677 0.000872502 1.47741e-05
0.0277177 0.000540004 3.17851e-05
0.027759 0.000323134 3.15766e-05
0.0277939 0.000185644 2.50786e-05
0.0278229 0.000101346 1.77902e-05
0.0278462 5.156e-05 1.17825e-05
0.0278643 2.33874e-05 7.45039e-06
0.0278778 8.26416e-06 4.55437e-06
0.0278877 7.23048e-07 2.71105e-06
0.0278948 -2.59879e-06 1.57802e-06
0.0278998 -3.69624e-06 9.00094e-07
0.0279033 -3.70886e-06 5.03398e-07
0.0279057 -3.25998e-06 2.75783e-07
0.0279073 -2.67202e-06 1.47577e-07
0.0279084 -2.09844e-06 7.6703e-08
0.0279092 -1.60181e-06 3.83151e-08
0.0279097 -1.19872e-06 1.80194e-08
0.0279101 -8.84376e-07 7.61972e-09
0.0279104 -6.45785e-07 2.52473e-09
0.0279105 -4.68162e-07 2.04854e-10
0.0279107 -3.37878e-07 -7.08061e-10
0.0279107 -2.4352e-07 -9.38341e-10
0.0279108 -1.76072e-07 -8.6132e-10
0.0279109 -1.28722e-07 -6.70909e-10
0.0279109 -9.65859e-08 -4.60182e-10
0.0279109 -7.64537e-08 -2.32915e-10
0.0279109 -6.68707e-08 1.04354e-10
0.027911 -6.93494e-08 9.00329e-10
0.027911 -8.86988e-08 2.07488e-09
0.027911 -1.32082e-07 2.20044e-09
0.0279111 -2.06253e-07 -1.24859e-08
0.0279111 -3.09874e-07 -9.74279e-08
0.0279111 -3.6807e-07 -1.68169e-07
0.018 -1.96056e-06 -1.72386e-06
0.0180029 -0.00687942 -0.0018876
0.0206273 -0.018562 -0.00489953
0.0204974 -0.0243139 -0.00632616
0.0159592 -0.0264541 -0.00754592
-1.56104e-06 -0.0138323 -0.00423274
9.8557e-05 2.78156e-05 8.91505e-07
-3.46584e-05 3.61442e-05 0.000603454
0.00678226 0.00435094 0.00129651
0.0140322 0.0099744 0.00122646
0.0174883 0.0109598 0.000799587
0.0191583 0.00986798 0.000238871
0.0208149 0.00791167 -0.000211023
0.022545 0.00570819 -0.000383517
0.0241375 0.00384993 -0.0003459
0.0254741 0.00248187 -0.000221617
0.0265105 0.00155697 -9.49805e-05
0.0272588 0.000959003 -5.57277e-06
0.0277717 0.000576362 3.96383e-05
0.0281138 0.000331994 5.18618e-05
0.0283395 0.000178649 4.65512e-05
0.0284879 8.61341e-05 3.53131e-05
0.0285849 3.34893e-05 2.42742e-05
0.0286479 5.8284e-06 1.56392e-05
0.0286884 -7.05565e-06 9.62315e-06
0.0287141 -1.1769e-05 5.71775e-06
0.0287303 -1.23319e-05 3.30146e-06
0.0287403 -1.10436e-05 1.85856e-06
0.0287466 -9.13298e-06 1.02091e-06
0.0287504 -7.20169e-06 5.46272e-07
0.0287528 -5.50489e-06 2.83324e-07
0.0287542 -4.11873e-06 1.40957e-07
0.0287551 -3.03499e-06 6.5845e-08
0.0287557 -2.21178e-06 2.74803e-08
0.0287561 -1.59879e-06 8.75664e-09
0.0287563 -1.14882e-06 2.60952e-10
0.0287564 -8.22023e-07 -3.08687e-09
0.0287565 -5.86636e-07 -3.96902e-09
0.0287566 -4.18288e-07 -3.76288e-09
0.0287566 -2.98741e-07 -3.14916e-09
0.0287566 -2.14638e-07 -2.44806e-09
0.0287567 -1.56404e-07 -1.7983e-09
0.0287567 -1.17421e-07 -1.24074e-09
0.0287567 -9.36184e-08 -7.83353e-10
0.0287567 -8.31525e-08 -4.79052e-10
0.0287567 -8.55733e-08 -5.50797e-10
0.0287567 -1.00531e-07 -2.0966e-09
0.0287567 -1.25605e-07 -7.29726e-09
0.0287567 -1.58675e-07 -3.2756e-08
0.0287566 -1.94788e-07 -1.2309e-07
0.0287565 -2.12383e-07 -1.91814e-07
0.0196 -2.77737e-06 -2.61645e-06
0.0196009 -0.00571811 -0.00274098
0.0190811 -0.0127746 -0.00643654
0.0160462 -0.0156738 -0.00667103
0.0110663 -0.0146208 -0.0066949
0.00185571 -0.00600634 -0.00496282
7.37673e-05 -6.77767e-05 -0.00124087
3.31183e-05 -3.31183e-05 -3.96724e-08
-3.39577e-05 3.53592e-05 0.000218707
0.00423871 0.00313508 0.000458006
0.00979617 0.00734774 0.000385038
0.0126961 0.00758834 5.38912e-05
0.015931 0.00560715 -0.000293038
0.01908 0.00354155 -0.000409298
0.0217908 0.00197905 -0.000376329
0.0239847 0.000960142 -0.000275624
0.0256559 0.000390143 -0.000153528
0.026842 0.000113382 -4.89716e-05
0.0276321 -9.82761e-06 1.5201e-05
0.0281364 -6.20845e-05 4.04166e-05
0.0284505 -8.05673e-05 4.14344e-05
0.0286433 -8.12602e-05 3.25975e-05
0.0287602 -7.26937e-05 2.23659e-05
0.02883 -6.03402e-05 1.40932e-05
0.0288712 -4.75901e-05 8.37206e-06
0.028895 -3.62112e-05 4.75515e-06
0.0289086 -2.6864e-05 2.6e-06
0.0289162 -1.9578e-05 1.37044e-06
0.0289203 -1.40924e-05 6.93377e-07
0.0289226 -1.00577e-05 3.32472e-07
0.0289237 -7.13693e-06 1.46546e-07
0.0289243 -5.0451e-06 5.46609e-08
0.0289246 -3.55769e-06 1.18596e-08
0.0289247 -2.50506e-06 -6.16216e-09
0.0289247 -1.76247e-06 -1.22129e-08
0.0289247 -1.23967e-06 -1.28582e-08
0.0289247 -8.72166e-07 -1.13506e-08
0.0289247 -6.14175e-07 -9.22448e-09
0.0289246 -4.33375e-07 -7.14816e-09
0.0289246 -3.07048e-07 -5.36868e-09
0.0289246 -2.19301e-07 -3.94481e-09
0.0289246 -1.59129e-07 -2.87329e-09
0.0289246 -1.19034e-07 -2.15349e-09
0.0289246 -9.38773e-08 -1.88266e-09
0.0289246 -7.97824e-08 -2.33356e-09
0.0289246 -7.3115e-08 -3.84523e-09
0.0289246 -7.00676e-08 -7.52841e-09
0.0289245 -6.52533e-08 -1.49561e-08
0.0289245 -5.08651e-08 -4.28774e-08
0.0289244 -1.92291e-08 -1.31049e-07
0.0289243 1.73336e-09 -1.96125e-07
0.0196 -1.32438e-06 -3.59716e-06
0.0196 -0.00357657 -0.00310509
0.0188661 -0.00775753 -0.00647039
0.0176276 -0.00762956 -0.00609302
0.0134121 -0.00379709 -0.00560919
0.00934468 0.00289188 -0.00520925
0.00623117 0.0032417 -0.00291632
7.38921e-05 -6.16613e-05 -0.000592295
2.77037e-05 -2.77037e-05 -1.28868e-07
-3.3281e-05 3.46344e-05 7.30632e-05
0.00311306 0.00243484 0.000337023
0.0076712 0.00385435 0.000294211
0.0130489 0.00182275 -6.77063e-05
0.0176914 0.000189568 -0.000246417
0.0212506 -0.000749031 -0.000314605
0.0238766 -0.00115742 -0.000311894
0.0257495 -0.00117005 -0.000240546
0.027004 -0.000968468 -0.000137238
0.0277835 -0.000719858 -5.13784e-05
0.0282383 -0.000509014 -3.50142e-06
0.0284918 -0.000353157 1.37303e-05
0.0286283 -0.00024308 1.51472e-05
0.0286994 -0.000166262 1.1301e-05
0.0287349 -0.000112993 7.08947e-06
0.0287517 -7.63691e-05 3.99056e-06
0.0287588 -5.14322e-05 2.06199e-06
0.0287613 -3.4594e-05 9.76828e-07
0.0287616 -2.32877e-05 4.10943e-07
0.0287611 -1.57151e-05 1.36408e-07
0.0287603 -1.06423e-05 1.45622e-08
0.0287595 -7.23658e-06 -3.20499e-08
0.0287588 -4.94174e-06 -4.4113e-08
0.0287583 -3.38869e-06 -4.18781e-08
0.0287578 -2.33279e-06 -3.48597e-08
0.0287575 -1.61164e-06 -2.71926e-08
0.0287573 -1.11709e-06 -2.04443e-08
0.0287571 -7.76725e-07 -1.50294e-08
0.028757 -5.41839e-07 -1.08937e-08
0.0287569 -3.7948e-07 -7.82767e-09
0.0287568 -2.67254e-07 -5.60443e-09
0.0287568 -1.89868e-07 -4.03967e-09
0.0287568 -1.36783e-07 -3.02683e-09
0.0287567 -1.00537e-07 -2.55053e-09
0.0287567 -7.55241e-08 -2.70759e-09
0.0287567 -5.70917e-08 -3.70252e-09
0.0287567 -4.072e-08 -5.62786e-09
0.0287566 -2.13761e-08 -9.40476e-09
0.0287566 8.3339e-09 -1.63776e-08
0.0287565 6.31043e-08 -4.07346e-08
0.0287565 1.57015e-07 -1.21823e-07
0.0287564 2.14787e-07 -1.82958e-07
0.018 -8.58681e-07 -3.56319e-06
0.0180009 -0.00191657 -0.00302855
0.018364 -0.00359453 -0.00612256
0.0185045 -0.0022299 -0.00533303
0.0175928 0.0010778 -0.00431997
0.0173814 0.0073534 -0.00395752
0.0180933 0.0126581 -0.00281315
0.0111531 0.00693361 -0.00133271
7.54739e-05 -4.78488e-05 -0.000392329
-2.6307e-05 -5.54426e-05 5.55238e-07
7.83457e-06 -0.000449703 0.000758366
0.00871864 -0.00242266 0.00114546
0.0163851 -0.00428862 0.000596044
0.0214967 -0.00440653 0.000318893
0.0245516 -0.00388627 0.000107604
0.0262867 -0.00322599 -9.5253e-05
0.0272478 -0.00249954 -0.000206472
0.0277508 -0.00178298 -0.000199825
0.0279797 -0.00118717 -0.000135181
0.0280566 -0.000758826 -7.28038e-05
0.0280606 -0.000476702 -3.3674e-05
0.0280368 -0.000298097 -1.42257e-05
0.0280074 -0.000186539 -5.87458e-06
0.0279812 -0.000117097 -2.58227e-06
0.0279607 -7.38818e-05 -1.30635e-06
0.0279456 -4.69431e-05 -7.71103e-07
0.0279349 -3.00847e-05 -5.03631e-07
0.0279275 -1.94674e-05 -3.42673e-07
0.0279223 -1.27243e-05 -2.34544e-07
0.0279188 -8.39929e-06 -1.59302e-07
0.0279164 -5.59595e-06 -1.07069e-07
0.0279147 -3.7597e-06 -7.13259e-08
0.0279136 -2.54485e-06 -4.72373e-08
0.0279128 -1.73373e-06 -3.12001e-08
0.0279122 -1.18776e-06 -2.06118e-08
0.0279118 -8.17718e-07 -1.36533e-08
0.0279116 -5.65457e-07 -9.0883e-09
0.0279114 -3.92707e-07 -6.0942e-09
0.0279112 -2.74011e-07 -4.134e-09
0.0279112 -1.9226e-07 -2.86665e-09
0.0279111 -1.35791e-07 -2.0915e-09
0.027911 -9.64697e-08 -1.7147e-09
0.027911 -6.83838e-08 -1.71551e-09
0.027911 -4.68892e-08 -2.14149e-09
0.027911 -2.78416e-08 -3.11546e-09
0.0279109 -6.77339e-09 -4.61038e-09
0.0279109 2.19962e-08 -7.36072e-09
0.0279109 6.68959e-08 -1.23371e-08
0.0279109 1.47823e-07 -2.85104e-08
0.0279109 2.84041e-07 -9.67152e-08
0.0279108 3.67131e-07 -1.51843e-07
0.0148 -4.83331e-07 -3.14922e-06
0.0148015 -0.000965965 -0.0027999
0.0162878 -0.00142385 -0.00540187
0.0179929 0.000326739 -0.00437094
0.0195198 0.00354908 -0.00323367
0.0214186 0.00754248 -0.0029415
0.0252215 0.0129334 -0.0023612
0.028474 0.0195974 -0.00139664
0.0233454 0.0114425 -0.000266445
0.023765 2.29049e-10 0.000647723
0.026974 -0.00666494 0.00157451
0.0307877 -0.0131347 0.0021207
0.0319301 -0.0112908 0.00171931
0.0313797 -0.00809672 0.00133172
0.0301461 -0.00545515 0.000839647
0.0288069 -0.00361948 0.000283913
0.027651 -0.00236117 -0.000116383
0.026779 -0.00148377 -0.000256662
0.0261733 -0.000894601 -0.000223785
0.0257719 -0.000525752 -0.000142949
0.0255128 -0.000307254 -7.74263e-05
0.0253484 -0.000180984 -3.81812e-05
0.0252453 -0.00010813 -1.7868e-05
0.025181 -6.56738e-05 -8.14265e-06
0.025141 -4.05706e-05 -3.67335e-06
0.0251159 -2.54852e-05 -1.65687e-06
0.0251002 -1.62646e-05 -7.50283e-07
0.0250902 -1.05316e-05 -3.40176e-07
0.0250838 -6.90788e-06 -1.52593e-07
0.0250796 -4.58196e-06 -6.58944e-08
0.0250768 -3.06839e-06 -2.57216e-08
0.025075 -2.07151e-06 -7.38992e-09
0.0250738 -1.40807e-06 5.61738e-10
0.0250729 -9.62642e-07 3.58312e-09
0.0250724 -6.61357e-07 4.31683e-09
0.025072 -4.56318e-07 4.05574e-09
0.0250717 -3.16081e-07 3.4266e-09
0.0250715 -2.19775e-07 2.72135e-09
0.0250714 -1.53398e-07 2.06211e-09
0.0250713 -1.07437e-07 1.485e-09
0.0250712 -7.53096e-08 9.81011e-10
0.0250712 -5.23141e-08 5.14109e-10
0.0250712 -3.48764e-08 3.50604e-11
0.0250711 -1.99592e-08 -5.23754e-10
0.0250711 -4.54563e-09 -1.25771e-09
0.0250711 1.49558e-08 -2.11124e-09
0.0250711 4.37531e-08 -3.45316e-09
0.0250711 8.89911e-08 -5.82281e-09
0.0250711 1.67427e-07 -1.37107e-08
0.0250712 2.95561e-07 -6.62889e-08
0.0250714 3.73007e-07 -1.12452e-07
0.01 -9.25765e-07 -2.83727e-06
0.0100008 -0.00059642 -0.00228669
0.011403 -0.000596917 -0.00415612
0.013462 0.000725667 -0.00302274
0.0161657 0.00269312 -0.00198854