# vtk DataFile Version 2.0
Tobias Weinzierl: CPU, Manycore and Cluster Computing
ASCII

DATASET STRUCTURED_POINTS
DIMENSIONS  51 11 6

ORIGIN 0 0 0 

SPACING 0.1 0.1 0.1 

POINT_DATA 3366

VECTORS velocity float
0 0 0
-4.14208e-14 0 0
2.0847e-09 0 0
3.61533e-09 0 0
-6.08154e-09 0 0
4.99027e-09 0 0
6.38716e-09 0 0
5.12398e-09 0 0
4.47246e-09 0 0
3.23652e-09 0 0
1.75676e-09 0 0
9.25874e-10 0 0
8.63042e-12 0 0
-2.29283e-09 0 0
-5.68431e-09 0 0
-8.58203e-09 0 0
-1.00591e-08 0 0
-1.05064e-08 0 0
-1.07975e-08 0 0
-1.14543e-08 0 0
-1.25019e-08 0 0
-1.37146e-08 0 0
-1.48595e-08 0 0
-1.58001e-08 0 0
-1.64977e-08 0 0
-1.69743e-08 0 0
-1.72766e-08 0 0
-1.74542e-08 0 0
-1.75488e-08 0 0
-1.75916e-08 0 0
-1.76045e-08 0 0
-1.76016e-08 0 0
-1.75914e-08 0 0
-1.75791e-08 0 0
-1.75671e-08 0 0
-1.75567e-08 0 0
-1.75482e-08 0 0
-1.75416e-08 0 0
-1.75366e-08 0 0
-1.75329e-08 0 0
-1.75302e-08 0 0
-1.75284e-08 0 0
-1.7527e-08 0 0
-1.75262e-08 0 0
-1.75256e-08 0 0
-1.75253e-08 0 0
-1.75252e-08 0 0
-1.75252e-08 0 0
-1.75255e-08 0 0
-1.75263e-08 0 0
0.00196151 0 0
0 3.8647e-07 0
-1.51003e-12 -2.06657e-09 0
3.19801e-09 -5.29108e-09 0
7.96305e-09 -1.69754e-09 0
-3.2936e-09 -8.37997e-09 0
1.68566e-08 -1.11849e-08 0
1.86247e-08 1.33118e-10 0
1.4961e-08 2.63498e-09 0
1.36266e-08 2.70005e-09 0
1.20029e-08 2.54009e-09 0
9.2097e-09 1.33474e-09 0
6.3993e-09 1.03387e-09 0
2.90799e-09 3.19002e-09 0
-2.60652e-09 5.8465e-09 0
-9.09628e-09 6.25648e-09 0
-1.40676e-08 4.34523e-09 0
-1.67202e-08 2.05164e-09 0
-1.83744e-08 8.22295e-10 0
-2.06154e-08 7.14621e-10 0
-2.3997e-08 1.08725e-09 0
-2.81217e-08 1.3972e-09 0
-3.22726e-08 1.44857e-09 0
-3.58857e-08 1.28177e-09 0
-3.87007e-08 1.00971e-09 0
-4.07076e-08 7.26248e-10 0
-4.2033e-08 4.82824e-10 0
-4.28463e-08 2.96761e-10 0
-4.33058e-08 1.66011e-10 0
-4.35375e-08 8.04538e-11 0
-4.36319e-08 2.83426e-11 0
-4.36499e-08 -7.56021e-13 0
-4.36297e-08 -1.50029e-11 0
-4.35939e-08 -2.02857e-11 0
-4.35551e-08 -2.05881e-11 0
-4.35194e-08 -1.84486e-11 0
-4.34892e-08 -1.53832e-11 0
-4.3465e-08 -1.22268e-11 0
-4.34464e-08 -9.38564e-12 0
-4.34324e-08 -7.01354e-12 0
-4.34222e-08 -5.12677e-12 0
-4.34148e-08 -3.67525e-12 0
-4.34096e-08 -2.58383e-12 0
-4.3406e-08 -1.77437e-12 0
-4.34035e-08 -1.17506e-12 0
-4.3402e-08 -7.23629e-13 0
-4.34011e-08 -3.65594e-13 0
-4.34007e-08 -4.081e-14 0
-4.3401e-08 3.26809e-13 0
-4.3402e-08 1.06683e-12 0
-4.34044e-08 3.15246e-12 0
0.00562696 -3.0888e-08 0
0 -2.13084e-08 0
-1.6983e-12 -1.9754e-09 0
3.8015e-09 -8.49836e-09 0
1.4009e-08 -1.37545e-08 0
1.56722e-08 -2.65283e-08 0
3.18971e-08 -2.23034e-08 0
2.73417e-08 -1.89937e-09 0
2.48965e-08 8.89715e-11 0
2.06293e-08 -5.22156e-09 0
1.45475e-08 -1.06658e-08 0
6.78253e-09 -1.24644e-08 0
1.83389e-09 -8.62467e-09 0
-1.09424e-09 -1.44716e-09 0
-5.81402e-09 4.62497e-09 0
-1.17346e-08 7.96618e-09 0
-1.61487e-08 9.72964e-09 0
-1.82196e-08 1.08851e-08 0
-1.92614e-08 1.14294e-08 0
-2.08795e-08 1.11827e-08 0
-2.37337e-08 1.01892e-08 0
-2.7512e-08 8.66466e-09 0
-3.1479e-08 6.89226e-09 0
-3.49881e-08 5.14117e-09 0
-3.7705e-08 3.60454e-09 0
-3.95871e-08 2.3762e-09 0
-4.07628e-08 1.46656e-09 0
-4.14182e-08 8.35818e-10 0
-4.17283e-08 4.24425e-10 0
-4.183e-08 1.72592e-10 0
-4.18183e-08 2.96979e-11 0
-4.17538e-08 -4.30109e-11 0
-4.16719e-08 -7.31717e-11 0
-4.15914e-08 -7.93665e-11 0
-4.15209e-08 -7.34145e-11 0
-4.14631e-08 -6.24004e-11 0
-4.14178e-08 -5.02738e-11 0
-4.13834e-08 -3.9017e-11 0
-4.13578e-08 -2.94488e-11 0
-4.13392e-08 -2.17471e-11 0
-4.13259e-08 -1.5773e-11 0
-4.13165e-08 -1.12582e-11 0
-4.13099e-08 -7.90643e-12 0
-4.13054e-08 -5.44196e-12 0
-4.13023e-08 -3.62658e-12 0
-4.13004e-08 -2.2563e-12 0
-4.12993e-08 -1.14782e-12 0
-4.1299e-08 -6.65071e-14 0
-4.12994e-08 1.3851e-12 0
-4.13007e-08 3.66499e-12 0
-4.13031e-08 7.1839e-12 0
0.00805158 -7.03733e-08 0
0 -6.40976e-07 0
1.72074e-12 -4.02872e-09 0
5.74494e-09 -1.405e-08 0
1.79542e-08 -2.62367e-08 0
1.74125e-08 -3.59561e-08 0
2.00308e-08 -1.97491e-08 0
1.5108e-08 -9.82772e-12 0
1.50594e-08 -2.23682e-09 0
5.14945e-09 -1.08739e-08 0
-5.22638e-09 -2.10801e-08 0
-1.12125e-08 -2.65166e-08 0
-1.34886e-08 -2.69399e-08 0
-1.47708e-08 -2.0747e-08 0
-2.02171e-08 -8.71647e-09 0
-2.75976e-08 5.10731e-09 0
-3.26727e-08 1.61611e-08 0
-3.34455e-08 2.15804e-08 0
-3.06467e-08 2.17291e-08 0
-2.64368e-08 1.89043e-08 0
-2.28197e-08 1.51635e-08 0
-2.06936e-08 1.15346e-08 0
-1.99082e-08 8.35642e-09 0
-1.98676e-08 5.72146e-09 0
-2.00389e-08 3.65316e-09 0
-2.0136e-08 2.12847e-09 0
-2.00808e-08 1.07933e-09 0
-1.99021e-08 4.0993e-10 0
-1.96592e-08 1.95012e-11 0
-1.94035e-08 -1.81099e-10 0
-1.91677e-08 -2.61993e-10 0
-1.89673e-08 -2.73647e-10 0
-1.88064e-08 -2.49744e-10 0
-1.86822e-08 -2.11171e-10 0
-1.85892e-08 -1.69843e-10 0
-1.85211e-08 -1.31826e-10 0
-1.84721e-08 -9.96203e-11 0
-1.84374e-08 -7.37333e-11 0
-1.84131e-08 -5.36703e-11 0
-1.83961e-08 -3.85302e-11 0
-1.83844e-08 -2.73304e-11 0
-1.83765e-08 -1.91659e-11 0
-1.8371e-08 -1.32704e-11 0
-1.83674e-08 -9.02523e-12 0
-1.8365e-08 -5.94057e-12 0
-1.83636e-08 -3.61794e-12 0
-1.83628e-08 -1.6931e-12 0
-1.83625e-08 1.92364e-13 0
-1.83626e-08 2.3277e-12 0
-1.83627e-08 4.81274e-12 0
-1.83632e-08 7.50487e-12 0
0.00904213 -7.49244e-08 0
0 -1.25245e-06 0
4.58299e-14 -7.70911e-09 0
2.33366e-09 -2.1221e-08 0
6.74864e-09 -2.78707e-08 0
3.01516e-09 -2.26053e-08 0
-2.32339e-12 -8.25228e-09 0
-8.33161e-11 -1.00318e-10 0
9.2953e-11 -9.83566e-11 0
-6.32571e-09 -9.03543e-09 0
-2.44912e-08 -2.77324e-08 0
-3.13481e-08 -4.1541e-08 0
-2.97526e-08 -4.37097e-08 0
-3.19075e-08 -3.24824e-08 0
-3.80738e-08 -1.1725e-08 0
-4.43433e-08 9.16466e-09 0
-4.78481e-08 2.3015e-08 0
-4.69178e-08 2.71414e-08 0
-4.11933e-08 2.39326e-08 0
-3.23109e-08 1.78283e-08 0
-2.30306e-08 1.19767e-08 0
-1.54315e-08 7.46033e-09 0
-1.01294e-08 4.22698e-09 0
-6.7291e-09 1.97677e-09 0
-4.5637e-09 4.75628e-10 0
-3.11003e-09 -4.43234e-10 0
-2.06605e-09 -9.23916e-10 0
-1.28386e-09 -1.09982e-09 0
-6.92274e-10 -1.08566e-09 0
-2.5014e-10 -9.69585e-10 0
7.3475e-11 -8.1209e-10 0
3.05057e-10 -6.50121e-10 0
4.67353e-10 -5.03254e-10 0
5.79063e-10 -3.79619e-10 0
6.54822e-10 -2.80588e-10 0
7.05591e-10 -2.04045e-10 0
7.393e-10 -1.46441e-10 0
7.61521e-10 -1.03969e-10 0
7.76088e-10 -7.31512e-11 0
7.85596e-10 -5.10666e-11 0
7.91774e-10 -3.53911e-11 0
7.95769e-10 -2.43392e-11 0
7.98334e-10 -1.65722e-11 0
7.99957e-10 -1.10994e-11 0
8.00962e-10 -7.18524e-12 0
8.01574e-10 -4.27672e-12 0
8.01976e-10 -1.97265e-12 0
8.02413e-10 -2.46297e-14 0
8.03121e-10 1.6565e-12 0
8.04227e-10 3.08755e-12 0
8.05043e-10 4.44428e-12 0
0.00939411 -4.32499e-08 0
0 -1.13296e-06 0
-5.82177e-12 -8.4346e-09 0
-2.71954e-09 -1.84929e-08 0
-2.92091e-09 -2.16703e-08 0
-7.42328e-09 -2.16477e-08 0
-6.35748e-09 -1.00377e-08 0
-8.84355e-11 8.58728e-11 0
7.08044e-12 -7.08044e-12 0
8.8868e-11 -9.70396e-11 0
-1.34837e-08 -1.54034e-08 0
-3.86606e-08 -4.31019e-08 0
-4.14252e-08 -5.21172e-08 0
-4.36287e-08 -3.72999e-08 0
-4.54683e-08 -1.25626e-08 0
-4.59466e-08 1.09061e-08 0
-4.60662e-08 2.54024e-08 0
-4.51308e-08 2.80717e-08 0
-4.06701e-08 2.20866e-08 0
-3.20201e-08 1.32812e-08 0
-2.14303e-08 5.78058e-09 0
-1.17776e-08 8.1853e-10 0
-4.56607e-09 -1.99083e-09 0
1.74127e-10 -3.35322e-09 0
3.08131e-09 -3.80755e-09 0
4.82483e-09 -3.71021e-09 0
5.87752e-09 -3.30678e-09 0
6.52263e-09 -2.77065e-09 0
6.92095e-09 -2.21679e-09 0
7.16551e-09 -1.71162e-09 0
7.31291e-09 -1.28523e-09 0
7.39916e-09 -9.44087e-10 0
7.44759e-09 -6.81566e-10 0
7.47326e-09 -4.85342e-10 0
7.48571e-09 -3.41883e-10 0
7.49081e-09 -2.38768e-10 0
7.49207e-09 -1.65614e-10 0
7.4915e-09 -1.14235e-10 0
7.49019e-09 -7.84271e-11 0
7.48871e-09 -5.3616e-11 0
7.48733e-09 -3.6495e-11 0
7.48616e-09 -2.47078e-11 0
7.48521e-09 -1.65904e-11 0
7.48448e-09 -1.0974e-11 0
7.48398e-09 -7.04777e-12 0
7.48371e-09 -4.27028e-12 0
7.48373e-09 -2.30544e-12 0
7.48415e-09 -9.55138e-13 0
7.48502e-09 -1.11206e-13 0
7.48623e-09 2.33636e-13 0
7.48707e-09 3.23407e-13 0
0.00947621 6.08156e-09 0
0 -7.82241e-07 0
-3.76062e-12 -5.12353e-09 0
-2.87747e-09 -1.30467e-08 0
-2.57973e-09 -1.70543e-08 0
-1.10168e-08 -1.68411e-08 0
-1.60671e-08 -1.01834e-08 0
-7.13188e-09 -2.47283e-09 0
-8.64697e-11 8.52764e-11 0
3.59134e-12 -3.59134e-12 0
8.28898e-11 -9.48481e-11 0
-1.78546e-08 -2.53601e-08 0
-3.28784e-08 -4.90153e-08 0
-4.02717e-08 -3.53112e-08 0
-4.14052e-08 -1.03907e-08 0
-3.76713e-08 1.20741e-08 0
-3.31795e-08 2.51706e-08 0
-3.07673e-08 2.63583e-08 0
-2.84728e-08 1.87179e-08 0
-2.34638e-08 8.39569e-09 0
-1.60588e-08 2.97646e-11 0
-8.66169e-09 -4.95877e-09 0
-3.10948e-09 -7.12988e-09 0
2.09891e-10 -7.49852e-09 0
1.79619e-09 -6.88248e-09 0
2.33005e-09 -5.82418e-09 0
2.33457e-09 -4.65796e-09 0
2.12396e-09 -3.57182e-09 0
1.85898e-09 -2.65249e-09 0
1.61046e-09 -1.92208e-09 0
1.40316e-09 -1.36712e-09 0
1.24062e-09 -9.58882e-10 0
1.11784e-09 -6.65598e-10 0
1.02733e-09 -4.58497e-10 0
9.61718e-10 -3.1407e-10 0
9.14722e-10 -2.14249e-10 0
8.81351e-10 -1.45697e-10 0
8.57807e-10 -9.88299e-11 0
8.41276e-10 -6.68873e-11 0
8.29712e-10 -4.5162e-11 0
8.2165e-10 -3.04037e-11 0
8.16051e-10 -2.03812e-11 0
8.12189e-10 -1.35717e-11 0
8.09566e-10 -8.94586e-12 0
8.07848e-10 -5.81852e-12 0
8.06818e-10 -3.7425e-12 0
8.0632e-10 -2.43529e-12 0
8.06297e-10 -1.73788e-12 0
8.0669e-10 -1.61647e-12 0
8.07314e-10 -2.24497e-12 0
8.07641e-10 -3.62525e-12 0
0.00939408 5.27158e-08 0
0 -5.486e-07 0
-1.272e-13 -3.68712e-09 0
-1.18627e-09 -9.49423e-09 0
-2.61766e-09 -1.28112e-08 0
-1.06539e-08 -1.17708e-08 0
-2.0482e-08 -5.38882e-09 0
-2.00006e-08 -3.12265e-10 0
-1.12833e-08 3.09531e-10 0
-9.14701e-11 7.90836e-11 0
8.16839e-11 7.4073e-11 0
2.90227e-12 -1.40631e-08 0
-2.03239e-08 -2.83774e-08 0
-3.76503e-08 -1.86822e-08 0
-4.38384e-08 5.38173e-10 0
-3.72061e-08 1.48374e-08 0
-2.43376e-08 2.04909e-08 0
-1.51924e-08 1.81404e-08 0
-1.2484e-08 1.06574e-08 0
-1.23782e-08 2.24268e-09 0
-1.17376e-08 -3.98143e-09 0
-1.05446e-08 -7.19274e-09 0
-9.86722e-09 -8.0499e-09 0
-1.01756e-08 -7.52593e-09 0
-1.12466e-08 -6.37372e-09 0
-1.2638e-08 -5.06017e-09 0
-1.40044e-08 -3.83664e-09 0
-1.51692e-08 -2.81244e-09 0
-1.60826e-08 -2.0115e-09 0
-1.67625e-08 -1.41352e-09 0
-1.7252e-08 -9.81173e-10 0
-1.75969e-08 -6.754e-10 0
-1.78366e-08 -4.62324e-10 0
-1.80017e-08 -3.15282e-10 0
-1.8115e-08 -2.14441e-10 0
-1.81925e-08 -1.45558e-10 0
-1.82454e-08 -9.86253e-11 0
-1.82815e-08 -6.67043e-11 0
-1.83061e-08 -4.5022e-11 0
-1.83229e-08 -3.03108e-11 0
-1.83344e-08 -2.03409e-11 0
-1.83422e-08 -1.35952e-11 0
-1.83475e-08 -9.04654e-12 0
-1.83511e-08 -6.00301e-12 0
-1.83534e-08 -4.00433e-12 0
-1.8355e-08 -2.75442e-12 0
-1.83559e-08 -2.08416e-12 0
-1.83565e-08 -1.93986e-12 0
-1.83567e-08 -2.40064e-12 0
-1.83568e-08 -3.81659e-12 0
-1.83575e-08 -6.48984e-12 0
0.0090421 7.70408e-08 0
0 -4.65741e-07 0
-8.33176e-14 -1.9325e-09 0
-1.96658e-10 -5.37358e-09 0
-3.65199e-09 -7.98828e-09 0
-1.3947e-08 -7.92505e-09 0
-2.60858e-08 -1.63743e-09 0
-2.87666e-08 3.96627e-09 0
-2.54603e-08 -4.47748e-09 0
-1.60464e-08 -6.70351e-09 0
-1.37846e-08 -5.49775e-14 0
-1.50767e-08 -5.188e-09 0
-3.22139e-08 -7.57397e-09 0
-4.93982e-08 1.87211e-09 0
-5.20547e-08 1.21848e-08 0
-3.78569e-08 1.49008e-08 0
-1.77815e-08 1.06292e-08 0
-6.37529e-09 3.83164e-09 0
-7.42226e-09 -1.95924e-09 0
-1.45345e-08 -5.09624e-09 0
-2.12806e-08 -5.75727e-09 0
-2.57793e-08 -5.08827e-09 0
-2.87762e-08 -4.08966e-09 0
-3.11793e-08 -3.2034e-09 0
-3.33365e-08 -2.50081e-09 0
-3.52477e-08 -1.94113e-09 0
-3.68431e-08 -1.48673e-09 0
-3.80981e-08 -1.11899e-09 0
-3.90403e-08 -8.27547e-10 0
-3.97242e-08 -6.02543e-10 0
-4.02095e-08 -4.33021e-10 0
-4.05487e-08 -3.07859e-10 0
-4.07835e-08 -2.16923e-10 0
-4.0945e-08 -1.5169e-10 0
-4.10559e-08 -1.05372e-10 0
-4.11317e-08 -7.27614e-11 0
-4.11836e-08 -4.99661e-11 0
-4.1219e-08 -3.41317e-11 0
-4.12431e-08 -2.31943e-11 0
-4.12596e-08 -1.56791e-11 0
-4.12708e-08 -1.05428e-11 0
-4.12784e-08 -7.05441e-12 0
-4.12836e-08 -4.70663e-12 0
-4.12871e-08 -3.15309e-12 0
-4.12895e-08 -2.16574e-12 0
-4.12911e-08 -1.60717e-12 0
-4.12923e-08 -1.41605e-12 0
-4.12932e-08 -1.61513e-12 0
-4.1294e-08 -2.31355e-12 0
-4.12951e-08 -3.82042e-12 0
-4.12974e-08 -6.52823e-12 0
0.00805157 6.46446e-08 0
0 -4.80654e-07 0
2.13353e-12 -3.40035e-10 0
3.64804e-10 -1.38594e-09 0
-4.46262e-09 -2.60578e-09 0
-1.59938e-08 -2.88313e-09 0
-2.91738e-08 -1.92299e-09 0
-3.30126e-08 4.13168e-10 0
-2.99793e-08 -1.66108e-09 0
-3.45515e-08 -3.4992e-09 0
-3.22563e-08 8.14869e-10 0
-3.00644e-08 5.06538e-09 0
-3.37121e-08 7.95753e-09 0
-3.60578e-08 8.52313e-09 0
-3.09765e-08 6.7186e-09 0
-1.80014e-08 3.58422e-09 0
-5.64788e-09 -5.24085e-10 0
-3.21816e-09 -4.23125e-09 0
-1.08068e-08 -5.68754e-09 0
-2.15238e-08 -4.70277e-09 0
-2.98234e-08 -2.71232e-09 0
-3.45715e-08 -1.07853e-09 0
-3.69728e-08 -2.3043e-10 0
-3.8323e-08 2.88541e-11 0
-3.93086e-08 1.4669e-11 0
-4.01566e-08 -6.64456e-11 0
-4.08986e-08 -1.28199e-10 0
-4.15218e-08 -1.53008e-10 0
-4.20208e-08 -1.49391e-10 0
-4.24046e-08 -1.30384e-10 0
-4.26911e-08 -1.06001e-10 0
-4.29e-08 -8.21219e-11 0
-4.305e-08 -6.14717e-11 0
-4.31562e-08 -4.48573e-11 0
-4.32308e-08 -3.21012e-11 0
-4.32828e-08 -2.26201e-11 0
-4.33189e-08 -1.57381e-11 0
-4.33437e-08 -1.08316e-11 0
-4.33608e-08 -7.38302e-12 0
-4.33725e-08 -4.98779e-12 0
-4.33805e-08 -3.34216e-12 0
-4.3386e-08 -2.22472e-12 0
-4.33897e-08 -1.47846e-12 0
-4.33922e-08 -9.95742e-13 0
-4.33939e-08 -7.07796e-13 0
-4.33952e-08 -5.77783e-13 0
-4.33962e-08 -5.97334e-13 0
-4.33971e-08 -7.92923e-13 0
-4.33983e-08 -1.19569e-12 0
-4.34e-08 -1.83706e-12 0
-4.34032e-08 -2.95842e-12 0
0.00562698 2.45139e-08 0
0 0 0
1.93311e-12 0 0
2.56229e-10 0 0
-2.22515e-09 0 0
-7.59412e-09 0 0
-1.38579e-08 0 0
-1.71159e-08 0 0
-1.58017e-08 0 0
-1.85112e-08 0 0
-1.84729e-08 0 0
-1.49847e-08 0 0
-1.04653e-08 0 0
-6.53654e-09 0 0
-3.46621e-09 0 0
-5.5739e-10 0 0
7.47902e-10 0 0
-1.36795e-09 0 0
-6.12577e-09 0 0
-1.09881e-08 0 0
-1.425e-08 0 0
-1.58226e-08 0 0
-1.63781e-08 0 0
-1.65316e-08 0 0
-1.66044e-08 0 0
-1.67009e-08 0 0
-1.68276e-08 0 0
-1.69639e-08 0 0
-1.70913e-08 0 0
-1.72e-08 0 0
-1.7287e-08 0 0
-1.73537e-08 0 0
-1.74033e-08 0 0
-1.74394e-08 0 0
-1.74652e-08 0 0
-1.74834e-08 0 0
-1.74961e-08 0 0
-1.75049e-08 0 0
-1.7511e-08 0 0
-1.75152e-08 0 0
-1.7518e-08 0 0
-1.752e-08 0 0
-1.75213e-08 0 0
-1.75222e-08 0 0
-1.75228e-08 0 0
-1.75233e-08 0 0
-1.75237e-08 0 0
-1.75241e-08 0 0
-1.75247e-08 0 0
-1.75256e-08 0 0
-1.75271e-08 0 0
0.00196153 0 0
0 0 5.36633e-07
-1.65004e-12 0 -1.85693e-11
2.3466e-09 0 1.67527e-09
8.90626e-09 0 9.86333e-09
-2.01896e-08 0 7.00459e-09
7.75682e-09 0 -1.2842e-09
1.36734e-08 0 -2.67274e-10
1.24828e-08 0 -7.2072e-10
1.32848e-08 0 -8.13037e-10
1.50141e-08 0 1.7516e-10
1.76186e-08 0 9.75469e-10
2.13624e-08 0 7.13839e-10
2.35739e-08 0 2.8273e-11
2.05097e-08 0 -1.53969e-10
1.19636e-08 0 3.23227e-11
1.66553e-09 0 2.9198e-11
-6.98768e-09 0 -1.27643e-10
-1.34571e-08 0 -8.43484e-11
-1.88982e-08 0 2.32922e-10
-2.4235e-08 0 6.1681e-10
-2.95418e-08 0 8.62756e-10
-3.44227e-08 0 9.08716e-10
-3.84953e-08 0 8.03365e-10
-4.16025e-08 0 6.28169e-10
-4.37964e-08 0 4.476e-10
-4.52425e-08 0 2.95796e-10
-4.61342e-08 0 1.82893e-10
-4.66448e-08 0 1.05833e-10
-4.69095e-08 0 5.66695e-11
-4.70249e-08 0 2.71254e-11
-4.70559e-08 0 1.04276e-11
-4.70434e-08 0 1.6746e-12
-4.70119e-08 0 -2.4179e-12
-4.69752e-08 0 -3.93006e-12
-4.69404e-08 0 -4.11695e-12
-4.69104e-08 0 -3.69996e-12
-4.68861e-08 0 -3.07108e-12
-4.68672e-08 0 -2.42751e-12
-4.6853e-08 0 -1.8565e-12
-4.68424e-08 0 -1.38654e-12
-4.68348e-08 0 -1.01698e-12
-4.68294e-08 0 -7.34548e-13
-4.68256e-08 0 -5.22283e-13
-4.68231e-08 0 -3.63115e-13
-4.68214e-08 0 -2.42052e-13
-4.68204e-08 0 -1.49166e-13
-4.682e-08 0 -7.9266e-14
-4.68202e-08 0 -6.79783e-14
-4.6821e-08 0 -4.42336e-14
-4.68233e-08 0 7.83924e-13
0.00557074 0 -4.16017e-09
0.0036 -3.0937e-07 -6.33471e-08
0.0035998 -0.00138543 -2.21197e-05
0.00671551 -0.00391436 0.000106775
0.0136071 -0.00591382 -0.000543692
0.0235344 -0.0144257 -0.00430333
0.0462849 -0.0132962 -0.004878
0.0497785 -0.0018763 -0.00164601
0.0495163 0.00267811 -0.000168527
0.0445252 0.00500493 0.000558597
0.0389106 0.00517198 0.000531436
0.0337856 0.00450565 0.00024898
0.0294683 0.003621 -2.84523e-05
0.0260508 0.00273208 -0.000215965
0.0234754 0.00193533 -0.000303159
0.0215796 0.00129728 -0.000306067
0.0201818 0.000844702 -0.000250863
0.019142 0.000555082 -0.000170389
0.018368 0.000378742 -9.44321e-05
0.0177992 0.00026798 -3.94354e-05
0.0173912 0.000191873 -7.59168e-06
0.0171078 0.000135411 6.77285e-06
0.0169179 9.26106e-05 1.08164e-05
0.0167957 6.08666e-05 1.00273e-05
0.0167203 3.82664e-05 7.65264e-06
0.016676 2.28934e-05 5.23593e-06
0.0166514 1.28998e-05 3.32324e-06
0.0166387 6.69089e-06 1.98627e-06
0.0166331 3.01656e-06 1.12231e-06
0.0166313 9.65711e-07 5.95613e-07
0.0166314 -8.93597e-08 2.90217e-07
0.0166323 -5.61616e-07 1.21886e-07
0.0166335 -7.1178e-07 3.463e-08
0.0166347 -6.97876e-07 -6.71031e-09
0.0166358 -6.11407e-07 -2.32703e-08
0.0166366 -5.02397e-07 -2.72681e-08
0.0166373 -3.96025e-07 -2.54892e-08
0.0166378 -3.03241e-07 -2.15259e-08
0.0166382 -2.27309e-07 -1.71582e-08
0.0166384 -1.67689e-07 -1.31768e-08
0.0166386 -1.22218e-07 -9.8571e-09
0.0166388 -8.82892e-08 -7.22543e-09
0.0166389 -6.34191e-08 -5.20661e-09
0.016639 -4.54919e-08 -3.69801e-09
0.016639 -3.28243e-08 -2.59987e-09
0.0166391 -2.41669e-08 -1.83214e-09
0.0166391 -1.86142e-08 -1.23958e-09
0.0166391 -1.56462e-08 -4.97011e-10
0.0166391 -1.51425e-08 1.68507e-09
0.0166392 -2.08907e-08 5.69463e-09
0.0166392 -5.82319e-08 -4.22229e-09
0.0166393 -9.01994e-08 -1.64289e-08
0.01 -1.3974e-07 -1.45907e-06
0.0100007 -0.00298988 -0.000598472
0.0147896 -0.00994393 -0.000787131
0.0241598 -0.0177115 -0.00126111
0.0384912 -0.0324472 -0.00336329
0.0591155 -0.0247301 -0.000818736
0.0563695 -0.00268911 0.00316582
0.0558086 0.00513396 0.003377
0.0500256 0.0101351 0.00298054
0.0445406 0.0103107 0.00206029
0.0400287 0.00925501 0.00109235
0.0363114 0.00783117 0.000343997
0.0333376 0.00631101 -0.00016885
0.0310586 0.00488596 -0.000458507
0.0293146 0.00367972 -0.0005396
0.0279655 0.00272102 -0.000468383
0.0269289 0.00198103 -0.000327369
0.0261529 0.00141886 -0.000186961
0.0255921 0.000997508 -8.32623e-05
0.0252018 0.000686167 -2.17842e-05
0.024941 0.00046 7.35769e-06
0.0247743 0.000299289 1.69937e-05
0.0246732 0.000188192 1.71074e-05
0.0246159 0.000113791 1.37335e-05
0.0245862 6.56491e-05 9.84526e-06
0.0245731 3.56197e-05 6.5857e-06
0.0245691 1.76261e-05 4.20106e-06
0.0245697 7.34149e-06 2.58571e-06
0.0245724 1.81444e-06 1.54484e-06
0.0245757 -8.91452e-07 8.97926e-07
0.0245788 -2.00136e-06 5.07346e-07
0.0245815 -2.26294e-06 2.77565e-07
0.0245837 -2.11475e-06 1.45806e-07
0.0245854 -1.80212e-06 7.23328e-08
0.0245866 -1.45386e-06 3.27009e-08
0.0245876 -1.13116e-06 1.22342e-08
0.0245883 -8.57882e-07 2.31948e-09
0.0245888 -6.38538e-07 -1.98307e-09
0.0245891 -4.68652e-07 -3.43572e-09
0.0245894 -3.40382e-07 -3.53685e-09
0.0245896 -2.45394e-07 -3.06741e-09
0.0245897 -1.76178e-07 -2.41966e-09
0.0245898 -1.2653e-07 -1.7853e-09
0.0245899 -9.16088e-08 -1.23663e-09
0.0245899 -6.78799e-08 -7.98133e-10
0.0245899 -5.29934e-08 -2.51762e-10
0.02459 -4.61671e-08 1.04519e-09
0.02459 -5.19401e-08 4.08438e-09
0.0245901 -8.02338e-08 7.08813e-09
0.0245901 -1.52185e-07 -1.52876e-08
0.0245902 -2.02995e-07 -3.85715e-08
0.0148 -9.63395e-07 -1.75058e-06
0.0148024 -0.00529152 -0.0011282
0.0203663 -0.016399 -0.00243994
0.0274905 -0.028745 -0.0039418
0.032112 -0.0460595 -0.00576172
0.0305971 -0.0284416 -0.00140679
0.0268365 -1.2326e-05 0.0032916
0.026281 0.00708554 0.00351348
0.0298179 0.0144948 0.00340948
0.0301771 0.0139734 0.00242208
0.0293722 0.0122209 0.00143722
0.028539 0.0103824 0.000589373
0.0278971 0.00846921 -1.46725e-05
0.0275676 0.00663549 -0.000359959
0.0274377 0.00504508 -0.000459665
0.0274134 0.00372801 -0.000394287
0.0274463 0.00267476 -0.000261088
0.0275077 0.00186674 -0.000130827
0.0275778 0.00127115 -3.64931e-05
0.0276449 0.00084502 1.7073e-05
0.027705 0.000546455 3.89805e-05
0.027758 0.000341372 4.16858e-05
0.0278044 0.000204005 3.54509e-05
0.0278443 0.000114962 2.67232e-05
0.0278777 5.95256e-05 1.86702e-05
0.0279047 2.66499e-05 1.23785e-05
0.0279259 8.31038e-06 7.89674e-06
0.0279419 -1.07676e-06 4.88719e-06
0.0279538 -5.22346e-06 2.94796e-06
0.0279623 -6.48734e-06 1.73696e-06
0.0279685 -6.29812e-06 1.00002e-06
0.0279727 -5.47978e-06 5.61756e-07
0.0279757 -4.47837e-06 3.06779e-07
0.0279778 -3.51464e-06 1.61745e-07
0.0279792 -2.68164e-06 8.12647e-08
0.0279802 -2.00454e-06 3.7894e-08
0.0279808 -1.47558e-06 1.53862e-08
0.0279813 -1.07361e-06 4.31789e-09
0.0279816 -7.74263e-07 -6.63371e-10
0.0279818 -5.54767e-07 -2.52841e-09
0.027982 -3.95838e-07 -2.88107e-09
0.0279821 -2.8207e-07 -2.56389e-09
0.0279821 -2.0166e-07 -2.01161e-09
0.0279822 -1.459e-07 -1.39873e-09
0.0279822 -1.08716e-07 -7.3191e-10
0.0279823 -8.68997e-08 2.10579e-10
0.0279823 -8.03013e-08 2.02328e-09
0.0279823 -9.25919e-08 3.94517e-09
0.0279824 -1.29287e-07 -8.09728e-10
0.0279824 -1.86763e-07 -3.50604e-08
0.0279824 -2.19185e-07 -6.3863e-08
0.018 -1.94249e-06 -1.70355e-06
0.018003 -0.00698102 -0.0018803
0.0207558 -0.0189308 -0.00492031
0.0206945 -0.0248781 -0.00632904
0.0160689 -0.0269216 -0.0076132
-1.60329e-06 -0.0140029 -0.00432519
9.76311e-05 2.64983e-05 9.20124e-07
-3.35318e-05 3.48922e-05 0.000649688
0.00660487 0.00413243 0.00142204
0.0135467 0.00940971 0.00138079
0.0169828 0.0102829 0.000964537
0.0187367 0.00932642 0.000415707
0.0204122 0.00772615 -7.3705e-05
0.0221015 0.00596999 -0.000330426
0.0236384 0.00442518 -0.00037627
0.0249512 0.00314993 -0.000304509
0.0260332 0.00214647 -0.0001932
0.0268977 0.00140389 -8.78478e-05
0.0275635 0.000885956 -9.44634e-06
0.0280573 0.000539155 3.66121e-05
0.0284129 0.000312181 5.48937e-05
0.0286643 0.000166473 5.47503e-05
0.0288399 7.58944e-05 4.55526e-05
0.0289617 2.26377e-05 3.39562e-05
0.0290454 -5.97737e-06 2.34836e-05
0.0291021 -1.91086e-05 1.53781e-05
0.0291401 -2.31786e-05 9.65631e-06
0.0291652 -2.24465e-05 5.85904e-06
0.0291815 -1.95487e-05 3.44974e-06
0.029192 -1.59923e-05 1.97408e-06
0.0291987 -1.25544e-05 1.09687e-06
0.0292029 -9.57429e-06 5.89441e-07
0.0292056 -7.14879e-06 3.0373e-07
0.0292073 -5.25391e-06 1.47461e-07
0.0292083 -3.81508e-06 6.48676e-08
0.029209 -2.74479e-06 2.31307e-08
0.0292094 -1.96076e-06 3.40277e-09
0.0292096 -1.3931e-06 -4.8817e-09
0.0292098 -9.85829e-07 -7.49491e-09
0.0292099 -6.95812e-07 -7.496e-09
0.02921 -4.90661e-07 -6.44245e-09
0.02921 -3.46567e-07 -5.08799e-09
0.02921 -2.46349e-07 -3.76771e-09
0.0292101 -1.77958e-07 -2.5707e-09
0.0292101 -1.33457e-07 -1.46717e-09
0.0292101 -1.08134e-07 -4.87818e-10
0.0292101 -9.93492e-08 3.3292e-10
0.0292101 -1.03952e-07 -5.73542e-10
0.0292101 -1.19033e-07 -1.36531e-08
0.0292101 -1.31613e-07 -5.24291e-08
0.02921 -1.34226e-07 -7.94149e-08
0.0196 -2.81009e-06 -2.57332e-06
0.019601 -0.00588091 -0.00274486
0.0190617 -0.0131204 -0.00647103
0.0159638 -0.0161216 -0.00667583
0.0109305 -0.0150975 -0.00668365
0.00175192 -0.00621827 -0.00503549
7.27505e-05 -6.68063e-05 -0.00129903
3.32745e-05 -3.32745e-05 -4.06443e-08
-3.29169e-05 3.41467e-05 0.000253692
0.00397309 0.00283294 0.000538891
0.00912938 0.00665453 0.000467274
0.0120524 0.00698178 0.000118153
0.0153001 0.00544564 -0.000259764
0.018455 0.00387154 -0.000411004
0.0211556 0.00262269 -0.000395998
0.0233402 0.00164872 -0.000312414
0.0250642 0.000918005 -0.000213482
0.0263956 0.00042106 -0.000120073
0.0273906 0.00012406 -4.31169e-05
0.0281046 -3.11646e-05 9.52272e-06
0.0285976 -0.000101108 3.63775e-05
0.0289274 -0.000124801 4.30623e-05
0.0291431 -0.000124477 3.81764e-05
0.0292815 -0.000112169 2.90339e-05
0.0293686 -9.47612e-05 1.99815e-05
0.0294225 -7.63881e-05 1.27971e-05
0.0294552 -5.94095e-05 7.75039e-06
0.0294745 -4.494e-05 4.47779e-06
0.0294857 -3.32733e-05 2.47576e-06
0.0294921 -2.42335e-05 1.30684e-06
0.0294955 -1.74304e-05 6.51959e-07
0.0294974 -1.242e-05 2.99789e-07
0.0294983 -8.78824e-06 1.18966e-07
0.0294987 -6.18664e-06 3.1578e-08
0.0294989 -4.33903e-06 -6.83717e-09
0.0294989 -3.03514e-06 -2.07838e-08
0.0294989 -2.1192e-06 -2.33001e-08
0.0294988 -1.47798e-06 -2.10523e-08
0.0294988 -1.03026e-06 -1.7278e-08
0.0294988 -7.18405e-07 -1.34295e-08
0.0294987 -5.01747e-07 -1.00641e-08
0.0294987 -3.51823e-07 -7.32536e-09
0.0294987 -2.48866e-07 -5.19312e-09
0.0294987 -1.79285e-07 -3.60402e-09
0.0294987 -1.33695e-07 -2.59074e-09
0.0294987 -1.05007e-07 -2.3376e-09
0.0294986 -8.71597e-08 -3.09826e-09
0.0294986 -7.34422e-08 -5.95641e-09
0.0294986 -5.6098e-08 -2.20444e-08
0.0294985 -2.13011e-08 -5.84696e-08
0.0294984 2.94714e-09 -8.1005e-08
0.0196 -1.34991e-06 -3.5817e-06
0.0195999 -0.00367345 -0.00312386
0.0187837 -0.00804914 -0.00650934
0.0175381 -0.00805136 -0.00604922
0.0132334 -0.0042108 -0.00554817
0.00913752 0.00264298 -0.00531887
0.0061621 0.00317947 -0.00309073
7.29123e-05 -6.07003e-05 -0.000660034
2.77834e-05 -2.77834e-05 -1.27266e-07
-3.2368e-05 3.34658e-05 9.06306e-05
0.00279536 0.00205694 0.000352202
0.00717162 0.00326253 0.000260571
0.0124799 0.00166157 -0.000146489
0.0171321 0.000527023 -0.000318707
0.0207314 -7.89654e-05 -0.000325415
0.0233936 -0.000454372 -0.000274793
0.0253331 -0.000694434 -0.000216081
0.0267238 -0.000795052 -0.000155997
0.0276887 -0.000768206 -9.53871e-05
0.0283265 -0.000662628 -4.31502e-05
0.0287255 -0.000531227 -7.94217e-06
0.0289622 -0.000407143 9.37054e-06
0.0290955 -0.000303337 1.40293e-05
0.0291665 -0.000221522 1.235e-05
0.0292017 -0.000159189 8.75809e-06
0.0292173 -0.000112846 5.42166e-06
0.0292226 -7.90955e-05 3.01289e-06
0.0292232 -5.49524e-05 1.50354e-06
0.0292216 -3.79365e-05 6.50726e-07
0.0292195 -2.6081e-05 2.12142e-07
0.0292174 -1.7889e-05 1.00551e-08
0.0292156 -1.2259e-05 -6.80195e-08
0.0292142 -8.40168e-06 -8.67057e-08
0.029213 -5.76236e-06 -8.03279e-08
0.0292122 -3.95659e-06 -6.57436e-08
0.0292116 -2.72026e-06 -5.04548e-08
0.0292112 -1.87285e-06 -3.72887e-08
0.0292109 -1.29132e-06 -2.69187e-08
0.0292106 -8.9182e-07 -1.91399e-08
0.0292105 -6.17199e-07 -1.34692e-08
0.0292104 -4.28462e-07 -9.40391e-09
0.0292103 -2.9895e-07 -6.5336e-09
0.0292102 -2.10339e-07 -4.58727e-09
0.0292102 -1.49767e-07 -3.41602e-09
0.0292101 -1.07794e-07 -3.03755e-09
0.0292101 -7.6874e-08 -3.50037e-09
0.0292101 -5.03136e-08 -4.85007e-09
0.02921 -2.07971e-08 -7.71681e-09
0.02921 2.30291e-08 -2.12414e-08
0.0292099 9.45511e-08 -5.10734e-08
0.0292099 1.38775e-07 -6.93417e-08
0.018 -8.64247e-07 -3.56926e-06
0.0180009 -0.00199857 -0.00304618
0.0183238 -0.00384117 -0.00615162
0.0183919 -0.00260321 -0.00528596
0.0173908 0.000705767 -0.00420927
0.0171254 0.00713682 -0.00396727
0.0178608 0.0126052 -0.00297643
0.0109789 0.00693391 -0.00146954
7.44065e-05 -4.69941e-05 -0.000427832
-2.54191e-05 -5.46714e-05 5.55514e-07
7.87395e-06 -0.000646801 0.000742993
0.00837225 -0.00272627 0.001085
0.0157716 -0.00431443 0.000471487
0.020807 -0.00408099 0.000178811
0.0239837 -0.00332078 6.50264e-05
0.0259396 -0.00265126 -1.64441e-06
0.0271189 -0.00215068 -6.48864e-05
0.0277949 -0.00173471 -0.000109902
0.0281411 -0.00135017 -0.000118315
0.0282799 -0.00100272 -9.64999e-05
0.0283005 -0.000714763 -6.44862e-05
0.0282646 -0.000495041 -3.73002e-05
0.0282095 -0.000336752 -1.96161e-05
0.0281546 -0.000226593 -9.88193e-06
0.0281081 -0.000151454 -5.05018e-06
0.0280718 -0.000100843 -2.75383e-06
0.0280449 -6.70422e-05 -1.63553e-06
0.0280257 -4.45927e-05 -1.04102e-06
0.0280122 -2.97247e-05 -6.87524e-07
0.0280028 -1.98804e-05 -4.58591e-07
0.0279964 -1.33501e-05 -3.04234e-07
0.027992 -9.00317e-06 -1.99463e-07
0.0279889 -6.09692e-06 -1.2907e-07
0.0279869 -4.1446e-06 -8.25282e-08
0.0279854 -2.82696e-06 -5.22588e-08
0.0279845 -1.93383e-06 -3.28558e-08
0.0279838 -1.32618e-06 -2.05632e-08
0.0279833 -9.11496e-07 -1.28436e-08
0.027983 -6.27834e-07 -8.02548e-09
0.0279828 -4.33488e-07 -5.032e-09
0.0279826 -3.00188e-07 -3.18545e-09
0.0279825 -2.08586e-07 -2.08464e-09
0.0279825 -1.45217e-07 -1.52317e-09
0.0279824 -1.0042e-07 -1.39238e-09
0.0279824 -6.68861e-08 -1.68417e-09
0.0279823 -3.85368e-08 -2.35522e-09
0.0279823 -9.48795e-09 -3.33626e-09
0.0279823 2.7091e-08 -5.04052e-09
0.0279822 8.36463e-08 -1.25421e-08
0.0279822 1.69596e-07 -3.37633e-08
0.0279822 2.20124e-07 -4.86228e-08
0.0148 -4.85321e-07 -3.16208e-06
0.0148015 -0.00102706 -0.0028237
0.0162369 -0.00161529 -0.00541708
0.0178212 2.5134e-05 -0.00429503
0.0191799 0.00324261 -0.0030906
0.0209508 0.00740074 -0.00286807
0.0247713 0.0129809 -0.00241138
0.0280607 0.0195291 -0.00149757
0.0230612 0.0113202 -0.000329018
0.0235034 1.25775e-10 0.000628987
0.0266478 -0.00667935 0.00155794
0.030149 -0.0130529 0.00210781
0.0310823 -0.0110281 0.00164935
0.0305598 -0.00777561 0.00117697
0.0295378 -0.00519241 0.000746517
0.0284787 -0.00347232 0.000382018
0.02755 -0.00235886 0.000100244
0.0267879 -0.00160375 -7.68926e-05
0.0261844 -0.00106878 -0.000147033
0.025721 -0.000692817 -0.000141839
0.0253759 -0.000440169 -0.000104798
0.0251266 -0.00027801 -6.6127e-05
0.0249513 -0.000176659 -3.76481e-05
0.0248308 -0.000113614 -2.00228e-05
0.0247495 -7.40238e-05 -1.01819e-05
0.0246955 -4.87904e-05 -5.02481e-06
0.0246598 -3.24707e-05 -2.42464e-06
0.0246363 -2.17823e-05 -1.14349e-06
0.0246209 -1.47085e-05 -5.21372e-07
0.0246107 -9.98527e-06 -2.23115e-07
0.0246039 -6.80804e-06 -8.27527e-08
0.0245994 -4.65747e-06 -1.89961e-08
0.0245964 -3.19448e-06 7.87985e-09
0.0245944 -2.19526e-06 1.73164e-08
0.024593 -1.51075e-06 1.88313e-08
0.0245921 -1.04078e-06 1.70554e-08
0.0245914 -7.17611e-07 1.41966e-08
0.024591 -4.95172e-07 1.12585e-08
0.0245907 -3.41973e-07 8.6493e-09
0.0245905 -2.3639e-07 6.49009e-09
0.0245903 -1.6348e-07 4.76986e-09
0.0245902 -1.12801e-07 3.4191e-09
0.0245901 -7.69102e-08 2.3474e-09
0.0245901 -5.02898e-08 1.4841e-09
0.0245901 -2.85218e-08 7.5298e-10
0.02459 -7.64472e-09 1.60336e-10
0.02459 1.65785e-08 -1.74443e-10
0.02459 4.87924e-08 -5.53792e-10
0.02459 9.65196e-08 -2.71075e-09
0.0245901 1.62854e-07 -1.73036e-08
0.0245901 2.00164e-07 -3.00359e-08
0.01 -9.26153e-07 -2.86243e-06
0.0100008 -0.000629954 -0.00229968
0.0113322 -0.00069697 -0.00414076
0.0132249 0.000579262 -0.00292346
0.015708 0.0025536 -0.0018432
0.01966 0.00559575 -0.0018535
0.025597 0.00836911 -0.00238303
0.0346915 0.0101231 -0.00209356
0.0463286 0.00484032 -0.000505461