# vtk DataFile Version 2.0
Tobias Weinzierl: CPU, Manycore and Cluster Computing
ASCII

DATASET STRUCTURED_POINTS
DIMENSIONS  51 11 6

ORIGIN 0 0 0 

SPACING 0.1 0.1 0.1 

POINT_DATA 3366

VECTORS velocity float
0 0 0
-6.19979e-13 0 0
9.35114e-09 0 0
2.53763e-09 0 0
-4.15564e-08 0 0
-1.18277e-08 0 0
-7.19995e-09 0 0
-8.81572e-09 0 0
-8.88367e-09 0 0
-5.72715e-09 0 0
-2.39707e-09 0 0
-5.04809e-09 0 0
-1.43398e-08 0 0
-2.4781e-08 0 0
-3.1029e-08 0 0
-3.24783e-08 0 0
-3.17586e-08 0 0
-3.12493e-08 0 0
-3.17423e-08 0 0
-3.29755e-08 0 0
-3.44356e-08 0 0
-3.57579e-08 0 0
-3.67871e-08 0 0
-3.75096e-08 0 0
-3.79769e-08 0 0
-3.82567e-08 0 0
-3.84103e-08 0 0
-3.84847e-08 0 0
-3.85128e-08 0 0
-3.85161e-08 0 0
-3.85076e-08 0 0
-3.84949e-08 0 0
-3.84819e-08 0 0
-3.84704e-08 0 0
-3.84612e-08 0 0
-3.84542e-08 0 0
-3.84491e-08 0 0
-3.84455e-08 0 0
-3.84432e-08 0 0
-3.84417e-08 0 0
-3.84409e-08 0 0
-3.84406e-08 0 0
-3.84405e-08 0 0
-3.84408e-08 0 0
-3.84411e-08 0 0
-3.84416e-08 0 0
-3.84423e-08 0 0
-3.84431e-08 0 0
-3.84442e-08 0 0
-3.84467e-08 0 0
0.00206824 0 0
0 3.90098e-07 0
-6.01335e-12 -8.90095e-09 0
1.62593e-08 -1.49177e-08 0
1.05142e-08 4.83414e-10 0
-5.04046e-08 -1.89791e-08 0
-8.28013e-10 -2.21333e-08 0
-1.72827e-09 2.02984e-08 0
-1.29904e-08 3.28665e-08 0
-1.77261e-08 2.64724e-08 0
-1.6251e-08 1.6029e-08 0
-1.22058e-08 1.12641e-08 0
-1.53852e-08 1.45907e-08 0
-2.93924e-08 1.7867e-08 0
-4.59755e-08 1.4768e-08 0
-5.58309e-08 7.59865e-09 0
-5.85475e-08 1.91014e-09 0
-5.93548e-08 -9.77776e-11 0
-6.201e-08 3.04243e-10 0
-6.68955e-08 1.24911e-09 0
-7.27159e-08 1.79157e-09 0
-7.81719e-08 1.8156e-09 0
-8.25689e-08 1.52611e-09 0
-8.57567e-08 1.13499e-09 0
-8.78864e-08 7.68834e-10 0
-8.92114e-08 4.78702e-10 0
-8.99786e-08 2.71621e-10 0
-9.03854e-08 1.35264e-10 0
-9.05739e-08 5.19873e-11 0
-9.06388e-08 5.30076e-12 0
-9.06396e-08 -1.78711e-11 0
-9.06115e-08 -2.69388e-11 0
-9.05741e-08 -2.82072e-11 0
-9.05373e-08 -2.56408e-11 0
-9.05055e-08 -2.15743e-11 0
-9.048e-08 -1.72781e-11 0
-9.04606e-08 -1.33671e-11 0
-9.04463e-08 -1.00781e-11 0
-9.04363e-08 -7.44592e-12 0
-9.04294e-08 -5.40875e-12 0
-9.0425e-08 -3.86847e-12 0
-9.04223e-08 -2.72175e-12 0
-9.04208e-08 -1.87441e-12 0
-9.04203e-08 -1.24596e-12 0
-9.04203e-08 -7.68561e-13 0
-9.04209e-08 -3.83585e-13 0
-9.04218e-08 -2.81914e-14 0
-9.04232e-08 3.74284e-13 0
-9.04254e-08 9.5413e-13 0
-9.04285e-08 2.51849e-12 0
-9.0435e-08 7.10804e-12 0
0.00588425 -5.95009e-08 0
0 -2.29813e-08 0
-8.88027e-12 -7.50398e-09 0
1.93558e-08 -2.41707e-08 0
3.52123e-08 -4.14001e-08 0
1.48151e-08 -8.78163e-08 0
6.0217e-08 -7.08101e-08 0
3.65312e-08 1.09811e-09 0
3.59323e-09 1.35989e-08 0
-2.67027e-08 8.11163e-09 0
-3.59406e-08 8.19543e-09 0
-3.08625e-08 1.05474e-08 0
-2.72096e-08 1.07737e-08 0
-3.56923e-08 9.93941e-09 0
-4.94016e-08 1.10623e-08 0
-5.68609e-08 1.45079e-08 0
-5.71865e-08 1.79454e-08 0
-5.59979e-08 1.93259e-08 0
-5.73802e-08 1.83648e-08 0
-6.17497e-08 1.58076e-08 0
-6.75661e-08 1.25503e-08 0
-7.32075e-08 9.29673e-09 0
-7.77587e-08 6.47438e-09 0
-8.09897e-08 4.25676e-09 0
-8.30619e-08 2.64137e-09 0
-8.4271e-08 1.5357e-09 0
-8.49033e-08 8.20002e-10 0
-8.51824e-08 3.81858e-10 0
-8.52629e-08 1.30066e-10 0
-8.5243e-08 -3.04567e-12 0
-8.51805e-08 -6.45425e-11 0
-8.51069e-08 -8.54348e-11 0
-8.50377e-08 -8.51463e-11 0
-8.49791e-08 -7.5214e-11 0
-8.49326e-08 -6.20762e-11 0
-8.48971e-08 -4.90348e-11 0
-8.48711e-08 -3.75616e-11 0
-8.48524e-08 -2.8125e-11 0
-8.48395e-08 -2.06891e-11 0
-8.48306e-08 -1.4998e-11 0
-8.48249e-08 -1.07294e-11 0
-8.48213e-08 -7.56858e-12 0
-8.48192e-08 -5.23949e-12 0
-8.48183e-08 -3.51059e-12 0
-8.48181e-08 -2.18576e-12 0
-8.48185e-08 -1.08694e-12 0
-8.48195e-08 -1.68247e-14 0
-8.4821e-08 1.3767e-12 0
-8.48234e-08 3.72118e-12 0
-8.48264e-08 7.67837e-12 0
-8.48317e-08 1.37675e-11 0
0.00829465 -1.22049e-07 0
0 -6.4244e-07 0
-2.55672e-12 -1.15912e-08 0
2.34236e-08 -3.94837e-08 0
4.53412e-08 -7.38858e-08 0
1.7439e-08 -9.84359e-08 0
4.92179e-08 -5.24678e-08 0
3.1065e-08 -3.57212e-11 0
7.76745e-09 -5.6958e-09 0
-3.92622e-08 -2.19951e-08 0
-5.39573e-08 -3.80066e-08 0
-4.76383e-08 -4.4833e-08 0
-4.80968e-08 -3.90549e-08 0
-6.11954e-08 -1.76483e-08 0
-7.7137e-08 9.06622e-09 0
-8.29682e-08 2.77766e-08 0
-7.75004e-08 3.44923e-08 0
-6.67324e-08 3.27764e-08 0
-5.69145e-08 2.75469e-08 0
-5.0998e-08 2.16339e-08 0
-4.8743e-08 1.60889e-08 0
-4.85869e-08 1.12989e-08 0
-4.91384e-08 7.4481e-09 0
-4.96526e-08 4.57079e-09 0
-4.98973e-08 2.56915e-09 0
-4.98935e-08 1.27024e-09 0
-4.97364e-08 4.86215e-10 0
-4.95146e-08 5.19224e-11 0
-4.92866e-08 -1.60572e-10 0
-4.9083e-08 -2.41938e-10 0
-4.89154e-08 -2.52016e-10 0
-4.87848e-08 -2.27821e-10 0
-4.86867e-08 -1.90748e-10 0
-4.86151e-08 -1.52174e-10 0
-4.85641e-08 -1.17439e-10 0
-4.85284e-08 -8.84785e-11 0
-4.85039e-08 -6.54619e-11 0
-4.84873e-08 -4.77523e-11 0
-4.84764e-08 -3.4436e-11 0
-4.84695e-08 -2.45881e-11 0
-4.84652e-08 -1.73894e-11 0
-4.84627e-08 -1.2162e-11 0
-4.84615e-08 -8.36492e-12 0
-4.84612e-08 -5.57086e-12 0
-4.84614e-08 -3.43377e-12 0
-4.8462e-08 -1.63681e-12 0
-4.84629e-08 1.63912e-13 0
-4.8464e-08 2.29372e-12 0
-4.8465e-08 4.93082e-12 0
-4.84653e-08 8.17381e-12 0
-4.84666e-08 1.22565e-11 0
0.00916703 -1.20893e-07 0
0 -1.24359e-06 0
-1.01804e-11 -2.0429e-08 0
1.00406e-08 -5.46273e-08 0
1.27934e-08 -6.93462e-08 0
-1.60741e-08 -5.42471e-08 0
-1.12025e-11 -1.91184e-08 0
-2.25883e-10 -2.68431e-10 0
2.40152e-10 -2.64125e-10 0
-2.14024e-08 -2.26583e-08 0
-6.15228e-08 -6.05968e-08 0
-7.25876e-08 -7.41997e-08 0
-7.79338e-08 -5.78479e-08 0
-9.15647e-08 -2.15322e-08 0
-1.0354e-07 1.5379e-08 0
-1.06717e-07 3.53693e-08 0
-9.9186e-08 3.75746e-08 0
-8.32449e-08 3.04019e-08 0
-6.50122e-08 2.17827e-08 0
-5.0009e-08 1.48524e-08 0
-4.00687e-08 9.70522e-09 0
-3.42446e-08 5.85495e-09 0
-3.09042e-08 3.03964e-09 0
-2.88473e-08 1.12534e-09 0
-2.74429e-08 -4.20151e-11 0
-2.64158e-08 -6.52388e-10 0
-2.56501e-08 -8.92169e-10 0
-2.50855e-08 -9.13031e-10 0
-2.46785e-08 -8.22417e-10 0
-2.43922e-08 -6.88274e-10 0
-2.41952e-08 -5.49026e-10 0
-2.40622e-08 -4.23511e-10 0
-2.3974e-08 -3.18816e-10 0
-2.39162e-08 -2.35665e-10 0
-2.38791e-08 -1.71797e-10 0
-2.38555e-08 -1.23896e-10 0
-2.38409e-08 -8.85932e-11 0
-2.38322e-08 -6.29125e-11 0
-2.38272e-08 -4.44123e-11 0
-2.38245e-08 -3.11792e-11 0
-2.38234e-08 -2.1757e-11 0
-2.38233e-08 -1.50574e-11 0
-2.38237e-08 -1.02749e-11 0
-2.38244e-08 -6.80954e-12 0
-2.38253e-08 -4.20387e-12 0
-2.38262e-08 -2.11696e-12 0
-2.38268e-08 -3.32266e-13 0
-2.38271e-08 1.2496e-12 0
-2.38268e-08 2.69089e-12 0
-2.38255e-08 4.21754e-12 0
-2.38251e-08 6.42962e-12 0
0.00942991 -6.88412e-08 0
0 -1.11849e-06 0
-2.34878e-11 -2.18928e-08 0
-3.13412e-09 -4.58559e-08 0
-8.10076e-09 -5.46596e-08 0
-3.31573e-08 -6.10417e-08 0
-2.69356e-08 -3.03511e-08 0
-2.34596e-10 2.27023e-10 0
1.3074e-11 -1.3074e-11 0
2.25519e-10 -2.54759e-10 0
-3.29828e-08 -3.29925e-08 0
-8.39976e-08 -7.73819e-08 0
-8.67271e-08 -6.93899e-08 0
-9.02302e-08 -2.38865e-08 0
-9.43865e-08 1.9795e-08 0
-1.00328e-07 4.11923e-08 0
-1.01957e-07 3.91593e-08 0
-9.20204e-08 2.56116e-08 0
-7.31626e-08 1.24524e-08 0
-5.37228e-08 4.00786e-09 0
-3.90408e-08 -5.11381e-10 0
-2.97439e-08 -2.75742e-09 0
-2.43148e-08 -3.72999e-09 0
-2.11757e-08 -3.92385e-09 0
-1.93083e-08 -3.64543e-09 0
-1.81616e-08 -3.12652e-09 0
-1.74465e-08 -2.53428e-09 0
-1.70019e-08 -1.97122e-09 0
-1.67301e-08 -1.48719e-09 0
-1.65681e-08 -1.09688e-09 0
-1.64748e-08 -7.95533e-10 0
-1.64235e-08 -5.69869e-10 0
-1.6397e-08 -4.04523e-10 0
-1.63848e-08 -2.85251e-10 0
-1.63806e-08 -2.00173e-10 0
-1.63807e-08 -1.39967e-10 0
-1.63828e-08 -9.76016e-11 0
-1.63858e-08 -6.79054e-11 0
-1.6389e-08 -4.71441e-11 0
-1.63922e-08 -3.26516e-11 0
-1.63951e-08 -2.25388e-11 0
-1.63977e-08 -1.54727e-11 0
-1.64e-08 -1.05141e-11 0
-1.64019e-08 -7.00786e-12 0
-1.64036e-08 -4.51213e-12 0
-1.64048e-08 -2.74321e-12 0
-1.64056e-08 -1.51438e-12 0
-1.64058e-08 -7.05871e-13 0
-1.64057e-08 -2.74408e-13 0
-1.64047e-08 -1.30518e-13 0
-1.64044e-08 2.35264e-13 0
0.00948301 4.1876e-09 0
0 -7.76946e-07 0
-1.71375e-11 -1.50596e-08 0
-3.7589e-09 -3.77685e-08 0
-8.34292e-09 -4.70749e-08 0
-4.68182e-08 -4.33724e-08 0
-6.50982e-08 -2.29947e-08 0
-2.4355e-08 -3.98672e-09 0
-2.30729e-10 2.23333e-10 0
2.15188e-12 -2.15188e-12 0
2.05022e-10 -2.45988e-10 0
-3.79951e-08 -4.38487e-08 0
-5.77546e-08 -6.85909e-08 0
-6.1882e-08 -2.08178e-08 0
-5.95199e-08 2.75759e-08 0
-6.5216e-08 5.04294e-08 0
-7.76746e-08 4.42794e-08 0
-8.16299e-08 2.34861e-08 0
-7.13631e-08 4.4746e-09 0
-5.47137e-08 -6.3948e-09 0
-4.0311e-08 -1.05667e-08 0
-3.11153e-08 -1.10686e-08 0
-2.62709e-08 -9.92762e-09 0
-2.4067e-08 -8.19548e-09 0
-2.32155e-08 -6.40132e-09 0
-2.29849e-08 -4.80256e-09 0
-2.3012e-08 -3.4977e-09 0
-2.31295e-08 -2.49322e-09 0
-2.32644e-08 -1.75064e-09 0
-2.33878e-08 -1.21684e-09 0
-2.34905e-08 -8.40399e-10 0
-2.3572e-08 -5.78248e-10 0
-2.36347e-08 -3.97129e-10 0
-2.36822e-08 -2.72566e-10 0
-2.37179e-08 -1.8709e-10 0
-2.37446e-08 -1.28477e-10 0
-2.37646e-08 -8.82734e-11 0
-2.37796e-08 -6.06728e-11 0
-2.37909e-08 -4.17027e-11 0
-2.37995e-08 -2.86473e-11 0
-2.38061e-08 -1.96501e-11 0
-2.38112e-08 -1.34425e-11 0
-2.38151e-08 -9.16195e-12 0
-2.38183e-08 -6.22604e-12 0
-2.38207e-08 -4.24517e-12 0
-2.38225e-08 -2.96696e-12 0
-2.38239e-08 -2.24547e-12 0
-2.38247e-08 -2.03368e-12 0
-2.38252e-08 -2.44272e-12 0
-2.38251e-08 -3.72774e-12 0
-2.38254e-08 -5.73795e-12 0
0.00942988 7.50471e-08 0
0 -5.45385e-07 0
-8.76184e-12 -1.16602e-08 0
-2.76279e-09 -2.85983e-08 0
-1.36902e-08 -3.51992e-08 0
-4.90906e-08 -2.81022e-08 0
-7.7618e-08 -9.77438e-09 0
-6.28793e-08 -2.10948e-09 0
-3.09317e-08 -2.17798e-09 0
-2.43874e-10 2.02802e-10 0
1.99275e-10 1.94865e-10 0
8.66855e-13 -2.23702e-08 0
-4.07696e-08 -3.25729e-08 0
-6.24988e-08 2.87381e-10 0
-5.0201e-08 3.50702e-08 0
-3.13571e-08 4.99856e-08 0
-3.33893e-08 4.10074e-08 0
-4.7647e-08 1.93563e-08 0
-5.47962e-08 -2.42393e-10 0
-5.20386e-08 -1.11104e-08 0
-4.64522e-08 -1.44397e-08 0
-4.28409e-08 -1.36462e-08 0
-4.18478e-08 -1.12583e-08 0
-4.24446e-08 -8.60665e-09 0
-4.36257e-08 -6.26755e-09 0
-4.48279e-08 -4.42009e-09 0
-4.58318e-08 -3.05362e-09 0
-4.65965e-08 -2.08386e-09 0
-4.71516e-08 -1.41309e-09 0
-4.75443e-08 -9.56009e-10 0
-4.78184e-08 -6.46896e-10 0
-4.80088e-08 -4.38431e-10 0
-4.81409e-08 -2.97811e-10 0
-4.82328e-08 -2.02778e-10 0
-4.8297e-08 -1.3838e-10 0
-4.83422e-08 -9.46135e-11 0
-4.83743e-08 -6.4784e-11 0
-4.83972e-08 -4.44016e-11 0
-4.84138e-08 -3.04444e-11 0
-4.84259e-08 -2.08719e-11 0
-4.84348e-08 -1.43027e-11 0
-4.84415e-08 -9.79972e-12 0
-4.84466e-08 -6.72821e-12 0
-4.84505e-08 -4.66167e-12 0
-4.84535e-08 -3.32329e-12 0
-4.84559e-08 -2.55365e-12 0
-4.84578e-08 -2.30065e-12 0
-4.84592e-08 -2.61281e-12 0
-4.84605e-08 -3.72212e-12 0
-4.84614e-08 -6.32973e-12 0
-4.8463e-08 -1.10074e-11 0
0.00916698 1.20159e-07 0
0 -4.66499e-07 0
-5.24281e-12 -6.59026e-09 0
-2.92148e-09 -1.79149e-08 0
-2.16915e-08 -2.44693e-08 0
-6.01204e-08 -2.02743e-08 0
-8.99342e-08 -1.38656e-09 0
-8.30225e-08 7.36349e-09 0
-6.77013e-08 -1.85718e-08 0
-4.21031e-08 -2.01931e-08 0
-3.75302e-08 -1.05792e-12 0
-4.07109e-08 2.7607e-09 0
-7.74054e-08 1.56824e-08 0
-1.01711e-07 2.8676e-08 0
-7.47685e-08 2.84407e-08 0
-2.73198e-08 2.04324e-08 0
-1.32227e-08 1.06691e-08 0
-3.34601e-08 2.06342e-09 0
-5.67039e-08 -3.85762e-09 0
-6.80455e-08 -6.63752e-09 0
-7.13726e-08 -7.05551e-09 0
-7.27694e-08 -6.27451e-09 0
-7.45316e-08 -5.09575e-09 0
-7.66688e-08 -3.91335e-09 0
-7.87293e-08 -2.89173e-09 0
-8.04405e-08 -2.08037e-09 0
-8.17413e-08 -1.47049e-09 0
-8.26804e-08 -1.02824e-09 0
-8.33389e-08 -7.14619e-10 0
-8.37938e-08 -4.95062e-10 0
-8.4106e-08 -3.42411e-10 0
-8.43202e-08 -2.36639e-10 0
-8.44675e-08 -1.63465e-10 0
-8.45691e-08 -1.12876e-10 0
-8.46398e-08 -7.79129e-11 0
-8.46892e-08 -5.37525e-11 0
-8.4724e-08 -3.70595e-11 0
-8.47488e-08 -2.55284e-11 0
-8.47666e-08 -1.75666e-11 0
-8.47796e-08 -1.20743e-11 0
-8.47891e-08 -8.29278e-12 0
-8.47962e-08 -5.7004e-12 0
-8.48015e-08 -3.94169e-12 0
-8.48057e-08 -2.7813e-12 0
-8.4809e-08 -2.07524e-12 0
-8.48116e-08 -1.75535e-12 0
-8.48139e-08 -1.8377e-12 0
-8.48159e-08 -2.43724e-12 0
-8.4818e-08 -3.81401e-12 0
-8.48204e-08 -6.83282e-12 0
-8.4825e-08 -1.26717e-11 0
0.00829462 1.11956e-07 0
0 -4.8388e-07 0
1.8287e-12 -1.92441e-09 0
-3.83095e-09 -6.72333e-09 0
-2.72306e-08 -1.05338e-08 0
-6.47531e-08 -9.3264e-09 0
-9.36146e-08 -4.88699e-09 0
-8.97165e-08 -1.29019e-09 0
-7.69073e-08 -9.48086e-09 0
-8.92471e-08 -1.07255e-08 0
-8.32777e-08 5.95956e-09 0
-7.3588e-08 2.03315e-08 0
-7.13441e-08 2.75647e-08 0
-6.7686e-08 2.42603e-08 0
-4.27714e-08 1.1293e-08 0
-1.44121e-08 -5.19676e-09 0
-1.64515e-08 -1.62439e-08 0
-4.39718e-08 -1.64307e-08 0
-6.98562e-08 -9.46289e-09 0
-8.21328e-08 -2.64561e-09 0
-8.51342e-08 7.01433e-10 0
-8.52319e-08 1.33858e-09 0
-8.53177e-08 8.99527e-10 0
-8.58979e-08 3.43934e-10 0
-8.67424e-08 -2.26976e-11 0
-8.75968e-08 -1.9404e-10 0
-8.83302e-08 -2.40291e-10 0
-8.89064e-08 -2.24494e-10 0
-8.9337e-08 -1.85773e-10 0
-8.96495e-08 -1.43948e-10 0
-8.98725e-08 -1.07231e-10 0
-9.00303e-08 -7.79101e-11 0
-9.01414e-08 -5.56856e-11 0
-9.02196e-08 -3.93597e-11 0
-9.02749e-08 -2.76026e-11 0
-9.03141e-08 -1.92456e-11 0
-9.03421e-08 -1.33579e-11 0
-9.03622e-08 -9.23622e-12 0
-9.03768e-08 -6.36489e-12 0
-9.03876e-08 -4.37346e-12 0
-9.03956e-08 -2.99943e-12 0
-9.04017e-08 -2.05955e-12 0
-9.04063e-08 -1.4287e-12 0
-9.041e-08 -1.02588e-12 0
-9.0413e-08 -8.05991e-13 0
-9.04156e-08 -7.56254e-13 0
-9.04179e-08 -9.06566e-13 0
-9.04202e-08 -1.34494e-12 0
-9.04229e-08 -2.19957e-12 0
-9.04266e-08 -3.79872e-12 0
-9.04336e-08 -6.9857e-12 0
0.00588428 4.82503e-08 0
0 0 0
3.06994e-12 0 0
-2.11217e-09 0 0
-1.3675e-08 0 0
-3.02124e-08 0 0
-4.31241e-08 0 0
-4.52215e-08 0 0
-4.01346e-08 0 0
-4.71641e-08 0 0
-4.57538e-08 0 0
-3.28757e-08 0 0
-1.69712e-08 0 0
-5.81287e-09 0 0
1.53955e-09 0 0
2.24666e-09 0 0
-8.0973e-09 0 0
-2.3635e-08 0 0
-3.5031e-08 0 0
-3.95276e-08 0 0
-3.97924e-08 0 0
-3.88031e-08 0 0
-3.79642e-08 0 0
-3.75674e-08 0 0
-3.75008e-08 0 0
-3.76022e-08 0 0
-3.776e-08 0 0
-3.79168e-08 0 0
-3.80498e-08 0 0
-3.81541e-08 0 0
-3.82325e-08 0 0
-3.82899e-08 0 0
-3.83313e-08 0 0
-3.83611e-08 0 0
-3.83824e-08 0 0
-3.83977e-08 0 0
-3.84087e-08 0 0
-3.84168e-08 0 0
-3.84227e-08 0 0
-3.84271e-08 0 0
-3.84305e-08 0 0
-3.8433e-08 0 0
-3.84351e-08 0 0
-3.84367e-08 0 0
-3.8438e-08 0 0
-3.84392e-08 0 0
-3.84403e-08 0 0
-3.84415e-08 0 0
-3.84429e-08 0 0
-3.84449e-08 0 0
-3.84487e-08 0 0
0.00206827 0 0
0 0 5.39487e-07
-4.92315e-12 0 -4.59518e-10
1.84173e-08 0 1.23703e-08
2.03828e-08 0 5.04153e-08
-1.08708e-07 0 3.3336e-08
-3.64025e-08 0 -1.22313e-08
-1.49229e-08 0 -2.33182e-08
-1.21792e-09 0 -3.11902e-08
1.07729e-08 0 -2.95683e-08
2.46693e-08 0 -2.25229e-08
3.8675e-08 0 -1.19504e-08
4.02659e-08 0 -2.65515e-09
2.33592e-08 0 1.85883e-09
-3.97892e-09 0 1.91418e-09
-2.85585e-08 0 9.16547e-11
-4.44066e-08 0 -1.1875e-09
-5.39323e-08 0 -1.13815e-09
-6.1348e-08 0 -3.2736e-10
-6.86006e-08 0 4.7037e-10
-7.56024e-08 0 8.95034e-10
-8.16891e-08 0 9.60291e-10
-8.6452e-08 0 8.19119e-10
-8.98668e-08 0 6.10676e-10
-9.2144e-08 0 4.15064e-10
-9.35671e-08 0 2.62801e-10
-9.43997e-08 0 1.5655e-10
-9.48496e-08 0 8.7792e-11
-9.50657e-08 0 4.5855e-11
-9.51476e-08 0 2.16056e-11
-9.51582e-08 0 8.34935e-12
-9.51353e-08 0 1.59667e-12
-9.51003e-08 0 -1.48698e-12
-9.50644e-08 0 -2.60954e-12
-9.50325e-08 0 -2.75731e-12
-9.50066e-08 0 -2.47506e-12
-9.49866e-08 0 -2.04783e-12
-9.49718e-08 0 -1.61367e-12
-9.49612e-08 0 -1.23098e-12
-9.49539e-08 0 -9.17199e-13
-9.49492e-08 0 -6.70295e-13
-9.49462e-08 0 -4.80018e-13
-9.49446e-08 0 -3.33649e-13
-9.49438e-08 0 -2.1811e-13
-9.49438e-08 0 -1.20334e-13
-9.49443e-08 0 -2.87746e-14
-9.49451e-08 0 7.04122e-14
-9.49464e-08 0 1.75961e-13
-9.49484e-08 0 2.22261e-13
-9.49514e-08 0 6.21487e-13
-9.49578e-08 0 3.32679e-12
0.00584422 0 -1.71845e-08
0.0036 -3.0799e-07 -6.15735e-08
0.00359981 -0.00134358 -3.25299e-06
0.00673512 -0.00383618 9.44292e-05
0.0135907 -0.00610385 -0.000753668
0.0237203 -0.014372 -0.00450618
0.0461315 -0.0129022 -0.00492431
0.0495579 -0.001688 -0.00168317
0.0492945 0.00280178 -0.000197842
0.0442349 0.00508906 0.000521653
0.0385353 0.00525157 0.000492024
0.0333629 0.00459225 0.000221784
0.0290688 0.00366286 -5.6297e-05
0.0257172 0.00267806 -0.00025867
0.0232074 0.00180099 -0.000343824
0.021371 0.00114566 -0.000315276
0.0200446 0.000723682 -0.000223123
0.0190996 0.000471682 -0.000126053
0.0184394 0.000318157 -5.60036e-05
0.0179899 0.000216981 -1.6726e-05
0.0176931 0.000145998 7.40294e-07
0.0175034 9.55151e-05 6.26985e-06
0.0173863 6.0355e-05 6.54481e-06
0.0173167 3.67027e-05 5.10455e-06
0.0172769 2.13805e-05 3.48295e-06
0.0172553 1.18212e-05 2.18858e-06
0.0172443 6.08293e-06 1.29357e-06
0.0172393 2.78189e-06 7.2431e-07
0.0172375 9.79688e-07 3.82965e-07
0.0172374 6.533e-08 1.88049e-07
0.0172379 -3.44807e-07 8.1947e-08
0.0172387 -4.83329e-07 2.73356e-08
0.0172395 -4.86227e-07 1.35555e-09
0.0172402 -4.29723e-07 -9.40969e-09
0.0172408 -3.54288e-07 -1.25422e-08
0.0172412 -2.79767e-07 -1.21648e-08
0.0172416 -2.14607e-07 -1.04203e-08
0.0172418 -1.61298e-07 -8.35568e-09
0.017242 -1.19472e-07 -6.4341e-09
0.0172422 -8.75871e-08 -4.82169e-09
0.0172423 -6.38015e-08 -3.54422e-09
0.0172423 -4.6378e-08 -2.57135e-09
0.0172424 -3.38536e-08 -1.86116e-09
0.0172424 -2.50816e-08 -1.37873e-09
0.0172425 -1.92355e-08 -1.1118e-09
0.0172425 -1.5787e-08 -1.05048e-09
0.0172425 -1.4472e-08 -1.07692e-09
0.0172425 -1.54883e-08 -8.68536e-10
0.0172426 -1.91578e-08 1.88828e-09
0.0172426 -3.52842e-08 5.15564e-09
0.0172427 -1.12403e-07 -2.62581e-08
0.0172429 -1.75922e-07 -5.84084e-08
0.01 -1.42018e-07 -1.4596e-06
0.0100007 -0.00299085 -0.00056699
0.0148372 -0.00989522 -0.000745676
0.0241385 -0.0177226 -0.00140324
0.0382356 -0.0320922 -0.0034619
0.0585949 -0.0241797 -0.000807106
0.0559323 -0.00246852 0.00304091
0.0554626 0.00535798 0.00318105
0.0497152 0.0104202 0.00274684
0.0442201 0.0105773 0.00184015
0.039722 0.00943484 0.000910364
0.0360151 0.00788786 0.000172972
0.0330116 0.00625401 -0.000336654
0.0306824 0.00473702 -0.000571124
0.0289196 0.00345507 -0.000550931
0.0276195 0.00244376 -0.000395058
0.0266917 0.00168415 -0.000225161
0.026052 0.00113379 -0.00010184
0.0256264 0.000745565 -3.20846e-05
0.0253539 0.00047803 -4.32815e-07
0.0251868 0.00029814 1.01564e-05
0.0250892 0.000180394 1.12801e-05
0.0250354 0.000105487 9.1441e-06
0.0250079 5.92177e-05 6.49061e-06
0.0249954 3.15124e-05 4.27582e-06
0.0249911 1.54858e-05 2.68315e-06
0.0249908 6.59152e-06 1.62539e-06
0.0249922 1.92026e-06 9.57272e-07
0.0249942 -3.3583e-07 5.50018e-07
0.0249961 -1.2679e-06 3.08583e-07
0.0249978 -1.51464e-06 1.68832e-07
0.0249992 -1.437e-06 8.97272e-08
0.0250003 -1.23025e-06 4.59563e-08
0.0250011 -9.93813e-07 2.2338e-08
0.0250017 -7.73687e-07 9.97555e-09
0.0250022 -5.87348e-07 3.76174e-09
0.0250025 -4.38026e-07 8.22575e-10
0.0250027 -3.22543e-07 -4.26502e-10
0.0250029 -2.35435e-07 -8.39398e-10
0.025003 -1.70976e-07 -8.64047e-10
0.0250031 -1.24069e-07 -7.3042e-10
0.0250032 -9.05589e-08 -5.60317e-10
0.0250032 -6.72698e-08 -4.17993e-10
0.0250033 -5.19516e-08 -3.40758e-10
0.0250033 -4.33077e-08 -3.3319e-10
0.0250033 -4.09688e-08 -7.56366e-12
0.0250033 -4.71011e-08 1.26536e-09
0.0250034 -7.24078e-08 5.09119e-09
0.0250035 -1.34865e-07 5.06175e-09
0.0250036 -2.6464e-07 -5.28573e-08
0.0250037 -3.5157e-07 -1.07872e-07
0.0148 -9.65181e-07 -1.74575e-06
0.0148024 -0.00527858 -0.00111276
0.0202879 -0.0162864 -0.00239717
0.0272168 -0.028407 -0.0039954
0.0317393 -0.0454377 -0.00568928
0.0302534 -0.0280581 -0.00126689
0.0266048 -1.21445e-05 0.00322977
0.0261259 0.00718347 0.00335225
0.0298951 0.0147605 0.00318188
0.0303477 0.0143206 0.00220074
0.0295231 0.0125866 0.00121583
0.0286131 0.0107133 0.000356938
0.0278693 0.0086382 -0.000219405
0.0274983 0.00654013 -0.000471612
0.0273954 0.00470367 -0.000452973
0.0274306 0.00325163 -0.000307198
0.0275131 0.00218357 -0.000153625
0.0275949 0.00143363 -4.56459e-05
0.0276615 0.000920355 1.14053e-05
0.0277144 0.000575126 3.22536e-05
0.027758 0.000347649 3.36661e-05
0.0277948 0.000201813 2.74183e-05
0.0278256 0.000111368 1.97711e-05
0.0278507 5.73475e-05 1.3252e-05
0.0278703 2.64388e-05 8.45908e-06
0.0278851 9.65665e-06 5.21197e-06
0.0278961 1.17765e-06 3.12399e-06
0.0279039 -2.62872e-06 1.82974e-06
0.0279095 -3.94243e-06 1.04966e-06
0.0279134 -4.023e-06 5.90194e-07
0.0279161 -3.56718e-06 3.24982e-07
0.0279179 -2.9398e-06 1.74774e-07
0.0279192 -2.31723e-06 9.13074e-08
0.0279201 -1.77333e-06 4.58749e-08
0.0279207 -1.32938e-06 2.17366e-08
0.0279211 -9.8189e-07 9.30331e-09
0.0279214 -7.17436e-07 3.17404e-09
0.0279216 -5.20178e-07 3.58177e-10
0.0279217 -3.75268e-07 -7.69546e-10
0.0279218 -2.70159e-07 -1.07327e-09
0.0279219 -1.94872e-07 -1.00188e-09
0.0279219 -1.41814e-07 -7.86788e-10
0.0279219 -1.05483e-07 -5.39791e-10
0.027922 -8.21687e-08 -2.72253e-10
0.027922 -6.99624e-08 1.02711e-10
0.027922 -6.9853e-08 9.46896e-10
0.027922 -8.61198e-08 2.30787e-09
0.0279221 -1.25661e-07 2.74031e-09
0.0279221 -1.95126e-07 -1.02549e-08
0.0279222 -2.92428e-07 -8.63389e-08
0.0279221 -3.46893e-07 -1.4976e-07
0.018 -1.95753e-06 -1.71975e-06
0.0180029 -0.00689672 -0.00188774
0.0206486 -0.0186233 -0.00490289
0.0205283 -0.0244017 -0.00632123
0.015973 -0.0265274 -0.00756038
-1.57093e-06 -0.0138619 -0.00425535
9.83871e-05 2.75803e-05 8.97638e-07
-3.44614e-05 3.59219e-05 0.00061216
0.00675339 0.00431548 0.00131815
0.0139571 0.00988764 0.00125161
0.0174131 0.0108662 0.00082626
0.0190923 0.00981013 0.000265276
0.0207466 0.00791813 -0.000194733
0.0224684 0.0057764 -0.000382237
0.0240549 0.00394569 -0.000356273
0.0253954 0.00257152 -0.000237019
0.0264485 0.00162528 -0.000109218
0.0272212 0.00100661 -1.47321e-05
0.0277586 0.000608872 3.62647e-05
0.0281208 0.000353844 5.26356e-05
0.0283617 0.000192586 4.92647e-05
0.0285213 9.41803e-05 3.83565e-05
0.0286265 3.74127e-05 2.686e-05
0.0286953 7.1306e-06 1.75527e-05
0.0287398 -7.23163e-06 1.09249e-05
0.0287683 -1.26481e-05 6.55433e-06
0.0287864 -1.34434e-05 3.81686e-06
0.0287977 -1.21337e-05 2.16553e-06
0.0288048 -1.00862e-05 1.19846e-06
0.0288091 -7.98174e-06 6.4617e-07
0.0288118 -6.11653e-06 3.37966e-07
0.0288135 -4.58437e-06 1.69906e-07
0.0288145 -3.38206e-06 8.05778e-08
0.0288151 -2.46645e-06 3.45606e-08
0.0288155 -1.78347e-06 1.18499e-08
0.0288158 -1.28155e-06 1.36465e-09
0.028816 -9.16742e-07 -2.91329e-09
0.0288161 -6.53844e-07 -4.18227e-09
0.0288161 -4.65737e-07 -4.09684e-09
0.0288162 -3.32074e-07 -3.48194e-09
0.0288162 -2.37905e-07 -2.72949e-09
0.0288162 -1.72477e-07 -2.01226e-09
0.0288162 -1.2829e-07 -1.38394e-09
0.0288162 -1.00595e-07 -8.46856e-10
0.0288163 -8.70344e-08 -4.36954e-10
0.0288163 -8.68402e-08 -3.2574e-10
0.0288163 -9.95373e-08 -1.45268e-09
0.0288163 -1.22632e-07 -6.0825e-09
0.0288162 -1.53713e-07 -2.97357e-08
0.0288162 -1.86459e-07 -1.11089e-07
0.0288161 -2.01745e-07 -1.72362e-07
0.0196 -2.78416e-06 -2.60891e-06
0.0196009 -0.00574594 -0.00274235
0.0190777 -0.0128311 -0.00644102
0.0160339 -0.0157463 -0.00666546
0.0110484 -0.014701 -0.00669032
0.00183815 -0.00604261 -0.00498011
7.3586e-05 -6.7604e-05 -0.00125406
3.31426e-05 -3.31426e-05 -3.96193e-08
-3.37766e-05 3.51463e-05 0.000224323
0.00419613 0.00308928 0.000470696
0.00969552 0.00725284 0.000397668
0.0126016 0.00752536 6.28907e-05
0.0158392 0.00562058 -0.000289572
0.0189878 0.00362065 -0.000410672
0.0216927 0.00208187 -0.000380792
0.0238847 0.0010448 -0.000284354
0.025571 0.000439491 -0.000165681
0.0267875 0.000134075 -6.00733e-05
0.0276117 -4.64757e-06 8.78563e-06
0.0281452 -6.36283e-05 3.88657e-05
0.0284811 -8.49013e-05 4.28279e-05
0.0286892 -8.67384e-05 3.4983e-05
0.0288163 -7.84041e-05 2.46116e-05
0.0288929 -6.56754e-05 1.5796e-05
0.0289383 -5.21995e-05 9.51888e-06
0.0289649 -3.99678e-05 5.47058e-06
0.0289801 -2.97956e-05 3.0222e-06
0.0289886 -2.17936e-05 1.60868e-06
0.0289934 -1.57278e-05 8.2246e-07
0.0289959 -1.12444e-05 3.99536e-07
0.0289972 -7.98745e-06 1.79678e-07
0.0289979 -5.64932e-06 6.98972e-08
0.0289982 -3.98425e-06 1.80407e-08
0.0289983 -2.80489e-06 -4.32328e-09
0.0289984 -1.97255e-06 -1.22895e-08
0.0289984 -1.38655e-06 -1.36526e-08
0.0289984 -9.74686e-07 -1.23057e-08
0.0289983 -6.85631e-07 -1.01059e-08
0.0289983 -4.83107e-07 -7.87634e-09
0.0289983 -3.41591e-07 -5.93272e-09
0.0289983 -2.43212e-07 -4.35877e-09
0.0289983 -1.75568e-07 -3.15496e-09
0.0289983 -1.3019e-07 -2.31193e-09
0.0289983 -1.01281e-07 -1.90458e-09
0.0289983 -8.4551e-08 -2.18424e-09
0.0289982 -7.60876e-08 -3.45389e-09
0.0289982 -7.18831e-08 -6.69314e-09
0.0289982 -6.64745e-08 -1.35826e-08
0.0289981 -5.19826e-08 -3.98523e-08
0.0289981 -1.97376e-08 -1.18933e-07
0.0289979 1.88635e-09 -1.76327e-07
0.0196 -1.3281e-06 -3.59436e-06
0.0196 -0.00359438 -0.00310873
0.0188527 -0.00781004 -0.00647474
0.0176153 -0.00770255 -0.00607868
0.0133839 -0.00386462 -0.00559578
0.00930817 0.00285511 -0.00523433
0.00621859 0.00323416 -0.00295204
7.37167e-05 -6.14915e-05 -0.000604573
2.77148e-05 -2.77148e-05 -1.28511e-07
-3.31237e-05 3.44296e-05 7.57853e-05
0.00306549 0.00238486 0.000338365
0.00760226 0.00378907 0.000286944
0.0129758 0.00183494 -7.95562e-05
0.017624 0.000274302 -0.000251695
0.021184 -0.000634544 -0.000308576
0.023806 -0.0010684 -0.000304424
0.0256862 -0.00113411 -0.000241743
0.0269647 -0.000975083 -0.000145613
0.0277747 -0.000745253 -5.99242e-05
0.0282557 -0.000536977 -8.35678e-06
0.0285276 -0.000377362 1.23211e-05
0.0286756 -0.000262299 1.55317e-05
0.0287532 -0.00018092 1.21918e-05
0.0287923 -0.000123869 7.88787e-06
0.0288108 -8.42533e-05 4.53983e-06
0.0288187 -5.70369e-05 2.38914e-06
0.0288215 -3.85182e-05 1.15238e-06
0.0288218 -2.60055e-05 4.96427e-07
0.0288212 -1.75843e-05 1.73286e-07
0.0288203 -1.19228e-05 2.73425e-08
0.0288194 -8.11238e-06 -3.01133e-08
0.0288186 -5.54071e-06 -4.63737e-08
0.028818 -3.79873e-06 -4.52623e-08
0.0288176 -2.61389e-06 -3.80975e-08
0.0288172 -1.80467e-06 -2.9864e-08
0.0288169 -1.24985e-06 -2.24951e-08
0.0288167 -8.68161e-07 -1.65405e-08
0.0288166 -6.04885e-07 -1.19785e-08
0.0288165 -4.2298e-07 -8.59145e-09
0.0288164 -2.97268e-07 -6.13073e-09
0.0288164 -2.10565e-07 -4.38769e-09
0.0288163 -1.51046e-07 -3.23327e-09
0.0288163 -1.10382e-07 -2.63176e-09
0.0288163 -8.23887e-08 -2.65832e-09
0.0288163 -6.20286e-08 -3.50788e-09
0.0288162 -4.45534e-08 -5.24243e-09
0.0288162 -2.48362e-08 -8.62895e-09
0.0288162 4.37469e-09 -1.51066e-08
0.0288161 5.73493e-08 -3.79068e-08
0.0288161 1.48303e-07 -1.0988e-07
0.028816 2.04405e-07 -1.63235e-07
0.018 -8.60587e-07 -3.56387e-06
0.0180009 -0.0019322 -0.00303171
0.0183562 -0.00363993 -0.00612544
0.0184837 -0.00229515 -0.00531869
0.017556 0.00101717 -0.00429694
0.0173349 0.00732294 -0.00396277
0.0180523 0.0126533 -0.00284601
0.0111239 0.00693412 -0.00135721
7.52835e-05 -4.76994e-05 -0.000398179
-2.61554e-05 -5.53068e-05 5.54154e-07
7.84035e-06 -0.000474529 0.000755166
0.00866407 -0.00245167 0.00113318
0.0162943 -0.00426861 0.00057409
0.0214094 -0.00433308 0.000303393
0.0244964 -0.00378365 0.000117927
0.0262648 -0.00314342 -6.6843e-05
0.0272483 -0.00247214 -0.000184504
0.0277656 -0.00180389 -0.000194792
0.0280035 -0.00122842 -0.00014055
0.0280844 -0.000799576 -7.98159e-05
0.0280884 -0.000509164 -3.85683e-05
0.0280624 -0.000321717 -1.68569e-05
0.02803 -0.000203009 -7.10758e-06
0.028001 -0.000128319 -3.13138e-06
0.027978 -8.14197e-05 -1.55947e-06
0.0279611 -5.19644e-05 -9.00962e-07
0.027949 -3.34172e-05 -5.79177e-07
0.0279406 -2.16792e-05 -3.90612e-07
0.0279348 -1.4196e-05 -2.66067e-07
0.0279308 -9.38271e-06 -1.80074e-07
0.0279281 -6.25627e-06 -1.20579e-07
0.0279262 -4.20529e-06 -7.99588e-08
0.0279249 -2.84692e-06 -5.26558e-08
0.027924 -1.93935e-06 -3.45456e-08
0.0279234 -1.32822e-06 -2.2647e-08
0.027923 -9.1393e-07 -1.48744e-08
0.0279227 -6.3151e-07 -9.81054e-09
0.0279225 -4.38132e-07 -6.51369e-09
0.0279223 -3.05291e-07 -4.37006e-09
0.0279222 -2.13825e-07 -2.98937e-09
0.0279222 -1.50687e-07 -2.13914e-09
0.0279221 -1.06808e-07 -1.70541e-09
0.0279221 -7.56447e-08 -1.65368e-09
0.0279221 -5.21416e-08 -2.01471e-09
0.027922 -3.19131e-08 -2.90144e-09
0.027922 -1.04087e-08 -4.262e-09
0.027922 1.79985e-08 -6.68552e-09
0.027922 6.14432e-08 -1.1239e-08
0.0279219 1.38702e-07 -2.60591e-08
0.0279219 2.67679e-07 -8.56949e-08
0.0279219 3.46133e-07 -1.33423e-07
0.0148 -4.8389e-07 -3.15197e-06
0.0148015 -0.000977762 -0.00280354
0.0162773 -0.00145989 -0.00540128
0.0179598 0.000272942 -0.0043519
0.0194572 0.0034994 -0.00320609
0.0213357 0.00752497 -0.00293244
0.0251447 0.0129451 -0.0023748
0.0284049 0.0195855 -0.00141537
0.0232977 0.0114215 -0.000277214
0.0237194 1.61309e-10 0.000643715
0.0269146 -0.00665649 0.00157396
0.0306828 -0.0130991 0.00212155
0.0318025 -0.011238 0.0017032
0.0312642 -0.0080534 0.00130427
0.0300718 -0.00542536 0.000840122
0.0287807 -0.00360466 0.00032211
0.0276547 -0.00236678 -7.31811e-05
0.0267883 -0.00150549 -0.000234959
0.0261731 -0.000920798 -0.000222194
0.0257569 -0.000548293 -0.000149319
0.0254836 -0.000323953 -8.39089e-05
0.0253075 -0.000192602 -4.25264e-05
0.0251957 -0.000116021 -2.03117e-05
0.0251253 -7.09843e-05 -9.3966e-06
0.0250811 -4.41339e-05 -4.28463e-06
0.0250534 -2.78774e-05 -1.94599e-06
0.0250359 -1.78754e-05 -8.84206e-07
0.0250247 -1.16209e-05 -4.00906e-07
0.0250175 -7.6479e-06 -1.79209e-07
0.0250128 -5.08686e-06 -7.67657e-08
0.0250097 -3.41411e-06 -2.94438e-08
0.0250077 -2.3089e-06 -7.9809e-09
0.0250063 -1.57142e-06 1.23076e-09
0.0250054 -1.07521e-06 4.65392e-09
0.0250047 -7.39014e-07 5.41186e-09
0.0250043 -5.09925e-07 5.02536e-09
0.025004 -3.53101e-07 4.22748e-09
0.0250038 -2.45347e-07 3.3574e-09
0.0250036 -1.71068e-07 2.55606e-09
0.0250035 -1.19658e-07 1.86511e-09
0.0250035 -8.37882e-08 1.27567e-09
0.0250034 -5.82442e-08 7.50154e-10
0.0250034 -3.91155e-08 2.38921e-10
0.0250034 -2.31578e-08 -3.20241e-10
0.0250033 -7.25371e-09 -1.01911e-09
0.0250033 1.21647e-08 -1.79102e-09
0.0250033 4.01248e-08 -2.9119e-09
0.0250033 8.33805e-08 -4.99642e-09
0.0250034 1.57109e-07 -1.18658e-08
0.0250034 2.75449e-07 -5.73488e-08
0.0250036 3.46464e-07 -9.73134e-08
0.01 -9.25747e-07 -2.8422e-06
0.0100008 -0.000603025 -0.00228801
0.0113885 -0.000616054 -0.00415036
0.0134157 0.00069939 -0.00300204