# vtk DataFile Version 2.0
Tobias Weinzierl: CPU, Manycore and Cluster Computing
ASCII

DATASET STRUCTURED_POINTS
DIMENSIONS  51 11 6

ORIGIN 0 0 0 

SPACING 0.1 0.1 0.1 

POINT_DATA 3366

VECTORS velocity float
0 0 0
5.68438e-14 0 0
4.07447e-10 0 0
1.12372e-09 0 0
-3.21848e-09 0 0
3.66834e-09 0 0
5.1867e-09 0 0
4.84198e-09 0 0
4.7007e-09 0 0
4.72567e-09 0 0
4.35555e-09 0 0
3.63412e-09 0 0
2.76039e-09 0 0
1.46897e-09 0 0
-4.83383e-10 0 0
-2.63459e-09 0 0
-4.25701e-09 0 0
-5.12881e-09 0 0
-5.59752e-09 0 0
-6.11366e-09 0 0
-6.88672e-09 0 0
-7.86871e-09 0 0
-8.89799e-09 0 0
-9.82688e-09 0 0
-1.05745e-08 0 0
-1.11239e-08 0 0
-1.14975e-08 0 0
-1.17336e-08 0 0
-1.18712e-08 0 0
-1.19433e-08 0 0
-1.19744e-08 0 0
-1.19819e-08 0 0
-1.19771e-08 0 0
-1.19668e-08 0 0
-1.1955e-08 0 0
-1.19438e-08 0 0
-1.19342e-08 0 0
-1.19264e-08 0 0
-1.19203e-08 0 0
-1.19156e-08 0 0
-1.19122e-08 0 0
-1.19097e-08 0 0
-1.19079e-08 0 0
-1.19067e-08 0 0
-1.19058e-08 0 0
-1.19053e-08 0 0
-1.1905e-08 0 0
-1.19049e-08 0 0
-1.19049e-08 0 0
-1.19054e-08 0 0
0.00192907 0 0
0 3.86573e-07 0
-3.80163e-13 -6.62111e-10 0
5.84789e-10 -2.2345e-09 0
3.04625e-09 -7.00989e-10 0
-1.07532e-09 -3.76711e-09 0
1.09116e-08 -5.04079e-09 0
1.30204e-08 2.53835e-10 0
1.25209e-08 6.11328e-10 0
1.31701e-08 -6.65431e-10 0
1.41236e-08 -1.45806e-09 0
1.39735e-08 -1.81604e-09 0
1.25925e-08 -1.60743e-09 0
1.01026e-08 -1.2813e-10 0
6.42833e-09 2.20741e-09 0
1.90027e-09 3.79314e-09 0
-2.3661e-09 3.68907e-09 0
-5.44638e-09 2.48107e-09 0
-7.49115e-09 1.31311e-09 0
-9.3772e-09 7.91652e-10 0
-1.18153e-08 8.24156e-10 0
-1.49201e-08 1.04536e-09 0
-1.83501e-08 1.18286e-09 0
-2.16405e-08 1.1517e-09 0
-2.44445e-08 9.89163e-10 0
-2.66112e-08 7.68392e-10 0
-2.81513e-08 5.48864e-10 0
-2.91659e-08 3.63121e-10 0
-2.97848e-08 2.21688e-10 0
-3.01294e-08 1.22278e-10 0
-3.02968e-08 5.716e-11 0
-3.03577e-08 1.75177e-11 0
-3.03598e-08 -4.49351e-12 0
-3.03332e-08 -1.50574e-11 0
-3.02959e-08 -1.86795e-11 0
-3.02577e-08 -1.84406e-11 0
-3.02234e-08 -1.63244e-11 0
-3.01948e-08 -1.35268e-11 0
-3.0172e-08 -1.07103e-11 0
-3.01545e-08 -8.19786e-12 0
-3.01414e-08 -6.10876e-12 0
-3.01318e-08 -4.45043e-12 0
-3.01248e-08 -3.17569e-12 0
-3.01199e-08 -2.21685e-12 0
-3.01165e-08 -1.50361e-12 0
-3.01142e-08 -9.70794e-13 0
-3.01127e-08 -5.61154e-13 0
-3.01118e-08 -2.16416e-13 0
-3.01116e-08 1.37382e-13 0
-3.0112e-08 7.29934e-13 0
-3.01135e-08 2.21106e-12 0
0.00554581 -2.20781e-08 0
0 -2.01843e-08 0
-5.18805e-14 -7.74962e-10 0
1.42973e-09 -4.41147e-09 0
7.00775e-09 -8.01214e-09 0
1.03674e-08 -1.44104e-08 0
1.91904e-08 -1.12909e-08 0
1.56797e-08 -8.82799e-10 0
1.53051e-08 -8.5806e-10 0
1.68286e-08 -4.49274e-09 0
1.85544e-08 -8.48125e-09 0
1.68506e-08 -1.17343e-08 0
1.32542e-08 -1.2095e-08 0
9.60526e-09 -8.19579e-09 0
5.39966e-09 -2.10126e-09 0
6.78387e-10 3.15959e-09 0
-3.59027e-09 6.49309e-09 0
-6.64154e-09 8.28755e-09 0
-8.6671e-09 9.04357e-09 0
-1.04543e-08 9.04247e-09 0
-1.26734e-08 8.47875e-09 0
-1.55077e-08 7.51548e-09 0
-1.86991e-08 6.29978e-09 0
-2.18069e-08 4.98307e-09 0
-2.44604e-08 3.71291e-09 0
-2.64776e-08 2.60267e-09 0
-2.78559e-08 1.71142e-09 0
-2.87005e-08 1.04709e-09 0
-2.91533e-08 5.83852e-10 0
-2.93469e-08 2.80936e-10 0
-2.93856e-08 9.60691e-11 0
-2.93422e-08 -7.4165e-12 0
-2.92634e-08 -5.81457e-11 0
-2.91763e-08 -7.68531e-11 0
-2.90949e-08 -7.76528e-11 0
-2.90253e-08 -6.9605e-11 0
-2.8969e-08 -5.81678e-11 0
-2.89253e-08 -4.63775e-11 0
-2.88923e-08 -3.57329e-11 0
-2.88678e-08 -2.68147e-11 0
-2.88501e-08 -1.9698e-11 0
-2.88374e-08 -1.4209e-11 0
-2.88284e-08 -1.00771e-11 0
-2.88221e-08 -7.01699e-12 0
-2.88178e-08 -4.76687e-12 0
-2.88149e-08 -3.09865e-12 0
-2.88131e-08 -1.81244e-12 0
-2.88121e-08 -6.90446e-13 0
-2.88119e-08 6.00624e-13 0
-2.88125e-08 2.46005e-12 0
-2.88141e-08 5.27352e-12 0
0.00797416 -5.23487e-08 0
0 -6.4021e-07 0
1.75884e-12 -2.28334e-09 0
2.83845e-09 -8.12297e-09 0
9.78749e-09 -1.54918e-08 0
1.191e-08 -2.1605e-08 0
1.19471e-08 -1.1958e-08 0
7.84761e-09 -6.47074e-12 0
7.62625e-09 -1.40583e-09 0
5.9161e-09 -7.2747e-09 0
4.4317e-09 -1.53766e-08 0
2.69182e-09 -2.11454e-08 0
1.35643e-11 -2.30524e-08 0
-2.08535e-09 -1.97183e-08 0
-5.7205e-09 -1.17944e-08 0
-1.09035e-08 -1.61295e-09 0
-1.59998e-08 8.21867e-09 0
-1.93021e-08 1.50669e-08 0
-2.00981e-08 1.76967e-08 0
-1.88483e-08 1.68684e-08 0
-1.67135e-08 1.42549e-08 0
-1.47953e-08 1.11981e-08 0
-1.36203e-08 8.35219e-09 0
-1.3142e-08 5.92584e-09 0
-1.30494e-08 3.95914e-09 0
-1.30504e-08 2.4431e-09 0
-1.29869e-08 1.34182e-09 0
-1.28214e-08 5.95182e-10 0
-1.25807e-08 1.28648e-10 0
-1.2309e-08 -1.33311e-10 0
-1.20436e-08 -2.569e-10 0
-1.18075e-08 -2.94203e-10 0
-1.16106e-08 -2.82801e-10 0
-1.1454e-08 -2.47798e-10 0
-1.13338e-08 -2.04698e-10 0
-1.12441e-08 -1.62219e-10 0
-1.11785e-08 -1.24617e-10 0
-1.11314e-08 -9.34319e-11 0
-1.1098e-08 -6.86934e-11 0
-1.10746e-08 -4.96936e-11 0
-1.10583e-08 -3.5454e-11 0
-1.10471e-08 -2.49795e-11 0
-1.10395e-08 -1.73795e-11 0
-1.10343e-08 -1.19108e-11 0
-1.10308e-08 -7.97601e-12 0
-1.10285e-08 -5.09682e-12 0
-1.10271e-08 -2.865e-12 0
-1.10264e-08 -9.02013e-13 0
-1.10261e-08 1.13178e-12 0
-1.1026e-08 3.42158e-12 0
-1.10263e-08 5.84635e-12 0
0.00901 -5.72283e-08 0
0 -1.25442e-06 0
4.97745e-13 -4.46366e-09 0
1.03154e-09 -1.24437e-08 0
3.69851e-09 -1.64714e-08 0
2.80677e-09 -1.3381e-08 0
-1.12576e-12 -4.89273e-09 0
-2.37858e-11 -3.19713e-11 0
2.90248e-11 -2.99953e-11 0
-2.44302e-09 -5.22721e-09 0
-1.21384e-08 -1.7471e-08 0
-1.70871e-08 -2.8817e-08 0
-1.63408e-08 -3.3798e-08 0
-1.7044e-08 -2.97148e-08 0
-2.04466e-08 -1.72376e-08 0
-2.50171e-08 -1.35085e-09 0
-2.8996e-08 1.27048e-08 0
-3.09639e-08 2.08417e-08 0
-2.98986e-08 2.21352e-08 0
-2.57207e-08 1.87398e-08 0
-1.96042e-08 1.36757e-08 0
-1.32686e-08 8.9594e-09 0
-7.96602e-09 5.30467e-09 0
-4.09529e-09 2.69901e-09 0
-1.45923e-09 9.31345e-10 0
3.24818e-10 -1.9569e-10 0
1.57822e-09 -8.39668e-10 0
2.50034e-09 -1.13407e-09 0
3.19767e-09 -1.19432e-09 0
3.72693e-09 -1.1147e-09 0
4.1236e-09 -9.65455e-10 0
4.41504e-09 -7.93777e-10 0
4.62459e-09 -6.27825e-10 0
4.7722e-09 -4.81874e-10 0
4.87433e-09 -3.61112e-10 0
4.94391e-09 -2.65418e-10 0
4.99073e-09 -1.92002e-10 0
5.02193e-09 -1.37068e-10 0
5.04255e-09 -9.67681e-11 0
5.0561e-09 -6.76657e-11 0
5.06498e-09 -4.69117e-11 0
5.07077e-09 -3.22539e-11 0
5.07454e-09 -2.19699e-11 0
5.07698e-09 -1.47716e-11 0
5.07855e-09 -9.70388e-12 0
5.07954e-09 -6.05519e-12 0
5.08018e-09 -3.30011e-12 0
5.0807e-09 -1.08001e-12 0
5.08136e-09 7.89566e-13 0
5.08236e-09 2.35942e-12 0
5.08318e-09 3.66867e-12 0
0.00940139 -3.27796e-08 0
0 -1.13627e-06 0
-2.64551e-12 -4.69075e-09 0
-1.91811e-09 -1.05654e-08 0
-2.12591e-09 -1.27754e-08 0
-4.16397e-09 -1.2637e-08 0
-3.1904e-09 -5.7374e-09 0
-2.60131e-11 2.48256e-11 0
4.2012e-12 -4.2012e-12 0
2.82103e-11 -2.9839e-11 0
-7.41359e-09 -9.34283e-09 0
-2.33269e-08 -2.85843e-08 0
-2.67273e-08 -3.89758e-08 0
-2.89805e-08 -3.34255e-08 0
-3.10491e-08 -1.83697e-08 0
-3.19577e-08 -4.12742e-10 0
-3.18636e-08 1.45471e-08 0
-3.10705e-08 2.2215e-08 0
-2.88182e-08 2.19329e-08 0
-2.40832e-08 1.65334e-08 0
-1.71344e-08 9.77836e-09 0
-9.51621e-09 4.09718e-09 0
-2.81098e-09 2.20909e-10 0
2.21883e-09 -2.05884e-09 0
5.60256e-09 -3.18531e-09 0
7.73653e-09 -3.54557e-09 0
9.04408e-09 -3.42872e-09 0
9.84053e-09 -3.04691e-09 0
1.03266e-08 -2.5518e-09 0
1.06226e-08 -2.04366e-09 0
1.08005e-08 -1.58042e-09 0
1.09047e-08 -1.18858e-09 0
1.09634e-08 -8.74085e-10 0
1.09944e-08 -6.31264e-10 0
1.10093e-08 -4.49253e-10 0
1.10151e-08 -3.15926e-10 0
1.10162e-08 -2.20012e-10 0
1.10152e-08 -1.51992e-10 0
1.10132e-08 -1.04295e-10 0
1.10112e-08 -7.11469e-11 0
1.10093e-08 -4.82667e-11 0
1.10078e-08 -3.25518e-11 0
1.10066e-08 -2.17867e-11 0
1.10057e-08 -1.44059e-11 0
1.10051e-08 -9.31334e-12 0
1.10047e-08 -5.75863e-12 0
1.10047e-08 -3.25657e-12 0
1.10049e-08 -1.51813e-12 0
1.10057e-08 -3.82991e-13 0
1.10069e-08 1.82271e-13 0
1.10078e-08 3.29376e-13 0
0.00949761 6.86317e-09 0
0 -7.83331e-07 0
-1.50496e-12 -2.77219e-09 0
-1.97175e-09 -7.05765e-09 0
-1.77626e-09 -9.2869e-09 0
-5.62161e-09 -9.60215e-09 0
-7.86093e-09 -6.6142e-09 0
-3.61672e-09 -2.01311e-09 0
-2.47207e-11 2.49304e-11 0
3.28198e-12 -3.28198e-12 0
2.69094e-11 -2.95115e-11 0
-1.07807e-08 -1.65327e-08 0
-2.3214e-08 -3.52103e-08 0
-3.03807e-08 -3.1004e-08 0
-3.30472e-08 -1.56936e-08 0
-3.18217e-08 1.4119e-09 0
-2.78933e-08 1.45337e-08 0
-2.34841e-08 2.02974e-08 0
-1.95364e-08 1.85601e-08 0
-1.52192e-08 1.22126e-08 0
-9.88921e-09 4.9962e-09 0
-4.18162e-09 -6.75172e-10 0
7.34123e-10 -4.14152e-09 0
4.15438e-09 -5.74194e-09 0
6.07264e-09 -6.06978e-09 0
6.8763e-09 -5.64433e-09 0
7.01195e-09 -4.84604e-09 0
6.82092e-09 -3.93073e-09 0
6.51289e-09 -3.05373e-09 0
6.19698e-09 -2.29411e-09 0
5.92033e-09 -1.67872e-09 0
5.69689e-09 -1.20337e-09 0
5.525e-09 -8.48886e-10 0
5.39692e-09 -5.91398e-10 0
5.30359e-09 -4.08044e-10 0
5.23667e-09 -2.79422e-10 0
5.18926e-09 -1.90208e-10 0
5.15598e-09 -1.28855e-10 0
5.13279e-09 -8.69318e-11 0
5.11673e-09 -5.84228e-11 0
5.10567e-09 -3.91042e-11 0
5.09809e-09 -2.60435e-11 0
5.09294e-09 -1.72234e-11 0
5.08949e-09 -1.12688e-11 0
5.08724e-09 -7.25722e-12 0
5.08587e-09 -4.58293e-12 0
5.08518e-09 -2.85955e-12 0
5.08503e-09 -1.85776e-12 0
5.08538e-09 -1.47977e-12 0
5.08609e-09 -1.82728e-12 0
5.08658e-09 -2.90461e-12 0
0.00940137 4.37261e-08 0
0 -5.49025e-07 0
5.06403e-13 -1.82887e-09 0
-7.33671e-10 -4.88899e-09 0
-1.16057e-09 -7.02652e-09 0
-4.68821e-09 -6.97009e-09 0
-9.82619e-09 -3.7368e-09 0
-1.04177e-08 -4.09172e-10 0
-6.23809e-09 3.23851e-10 0
-2.75318e-11 2.23287e-11 0
2.70239e-11 1.78588e-11 0
3.7529e-12 -9.16814e-09 0
-1.414e-08 -2.16368e-08 0
-2.82183e-08 -1.92704e-08 0
-3.54611e-08 -6.0015e-09 0
-3.42095e-08 6.8253e-09 0
-2.61284e-08 1.39716e-08 0
-1.64106e-08 1.48585e-08 0
-9.42897e-09 1.09999e-08 0
-5.75862e-09 5.03329e-09 0
-3.85681e-09 -4.62393e-10 0
-2.64871e-09 -4.12429e-09 0
-2.04472e-09 -5.8649e-09 0
-2.21145e-09 -6.20844e-09 0
-3.0788e-09 -5.73615e-09 0
-4.36175e-09 -4.88194e-09 0
-5.75085e-09 -3.92347e-09 0
-7.03051e-09 -3.02017e-09 0
-8.09757e-09 -2.2488e-09 0
-8.93063e-09 -1.63205e-09 0
-9.55241e-09 -1.16152e-09 0
-1.00022e-08 -8.14576e-10 0
-1.03207e-08 -5.65032e-10 0
-1.05428e-08 -3.88734e-10 0
-1.06961e-08 -2.65779e-10 0
-1.08012e-08 -1.80819e-10 0
-1.08729e-08 -1.22508e-10 0
-1.09216e-08 -8.26877e-11 0
-1.09546e-08 -5.56023e-11 0
-1.09769e-08 -3.72387e-11 0
-1.0992e-08 -2.48233e-11 0
-1.10021e-08 -1.64526e-11 0
-1.10089e-08 -1.08292e-11 0
-1.10133e-08 -7.07615e-12 0
-1.10162e-08 -4.60714e-12 0
-1.10181e-08 -3.03883e-12 0
-1.10192e-08 -2.13568e-12 0
-1.10197e-08 -1.78573e-12 0
-1.10199e-08 -2.00753e-12 0
-1.10199e-08 -3.034e-12 0
-1.10203e-08 -5.03636e-12 0
0.00900998 6.1009e-08 0
0 -4.65497e-07 0
4.99635e-13 -9.5364e-10 0
5.77045e-11 -2.70884e-09 0
-1.21542e-09 -4.18199e-09 0
-6.04533e-09 -4.44409e-09 0
-1.27937e-08 -1.20477e-09 0
-1.54778e-08 2.50102e-09 0
-1.43716e-08 -1.8156e-09 0
-9.32737e-09 -3.50416e-09 0
-7.57002e-09 3.82254e-14 0
-6.84809e-09 -4.8456e-09 0
-1.83522e-08 -9.37526e-09 0
-3.40185e-08 -4.68658e-09 0
-4.10557e-08 4.16878e-09 0
-3.54555e-08 1.02301e-08 0
-2.1882e-08 1.05892e-08 0
-9.18866e-09 6.72959e-09 0
-3.32317e-09 1.48767e-09 0
-4.02975e-09 -2.70464e-09 0
-7.78064e-09 -4.74258e-09 0
-1.1771e-08 -4.93948e-09 0
-1.50582e-08 -4.219e-09 0
-1.77226e-08 -3.31326e-09 0
-1.99959e-08 -2.53848e-09 0
-2.19731e-08 -1.9439e-09 0
-2.36515e-08 -1.49051e-09 0
-2.50162e-08 -1.13697e-09 0
-2.60786e-08 -8.57795e-10 0
-2.6876e-08 -6.38311e-10 0
-2.74576e-08 -4.68322e-10 0
-2.78729e-08 -3.39083e-10 0
-2.81649e-08 -2.4259e-10 0
-2.83681e-08 -1.71708e-10 0
-2.85083e-08 -1.20373e-10 0
-2.86045e-08 -8.36464e-11 0
-2.86702e-08 -5.76524e-11 0
-2.8715e-08 -3.94281e-11 0
-2.87454e-08 -2.67595e-11 0
-2.87659e-08 -1.80217e-11 0
-2.87797e-08 -1.20403e-11 0
-2.8789e-08 -7.97828e-12 0
-2.87952e-08 -5.24732e-12 0
-2.87993e-08 -3.43981e-12 0
-2.88019e-08 -2.2808e-12 0
-2.88037e-08 -1.59615e-12 0
-2.88048e-08 -1.29232e-12 0
-2.88056e-08 -1.35209e-12 0
-2.88063e-08 -1.8353e-12 0
-2.88071e-08 -2.92107e-12 0
-2.88088e-08 -4.78994e-12 0
0.00797416 4.89858e-08 0
0 -4.79884e-07 0
1.50717e-12 -1.25833e-10 0
4.94652e-10 -5.53835e-10 0
-1.37132e-09 -1.10728e-09 0
-7.03934e-09 -1.30953e-09 0
-1.47192e-08 -9.29837e-10 0
-1.83057e-08 6.68325e-10 0
-1.72894e-08 -1.5227e-10 0
-2.0088e-08 -1.74311e-09 0
-1.85715e-08 -6.32285e-10 0
-1.65436e-08 6.36101e-10 0
-2.08501e-08 2.75455e-09 0
-2.62146e-08 4.75185e-09 0
-2.63627e-08 5.01005e-09 0
-1.91187e-08 3.86583e-09 0
-8.76625e-09 1.67799e-09 0
-2.00331e-09 -9.22942e-10 0
-2.09796e-09 -2.84303e-09 0
-7.20003e-09 -3.35762e-09 0
-1.35218e-08 -2.71161e-09 0
-1.8621e-08 -1.67612e-09 0
-2.19939e-08 -8.37077e-10 0
-2.41005e-08 -3.64719e-10 0
-2.54973e-08 -1.74939e-10 0
-2.65298e-08 -1.30312e-10 0
-2.73526e-08 -1.3404e-10 0
-2.8021e-08 -1.40323e-10 0
-2.85566e-08 -1.3578e-10 0
-2.89749e-08 -1.21313e-10 0
-2.9293e-08 -1.01671e-10 0
-2.95295e-08 -8.11121e-11 0
-2.9702e-08 -6.22901e-11 0
-2.98258e-08 -4.64232e-11 0
-2.99135e-08 -3.37744e-11 0
-2.9975e-08 -2.40888e-11 0
-3.00177e-08 -1.68934e-11 0
-3.00472e-08 -1.16732e-11 0
-3.00673e-08 -7.95787e-12 0
-3.0081e-08 -5.35598e-12 0
-3.00902e-08 -3.56013e-12 0
-3.00964e-08 -2.33854e-12 0
-3.01005e-08 -1.52236e-12 0
-3.01032e-08 -9.92683e-13 0
-3.01049e-08 -6.70281e-13 0
-3.01061e-08 -5.08788e-13 0
-3.0107e-08 -4.87767e-13 0
-3.01078e-08 -6.12935e-13 0
-3.01086e-08 -8.94771e-13 0
-3.01098e-08 -1.32526e-12 0
-3.01121e-08 -2.02064e-12 0
0.00554584 1.77435e-08 0
0 0 0
1.24936e-12 0 0
3.11439e-10 0 0
-6.62356e-10 0 0
-3.34554e-09 0 0
-7.08007e-09 0 0
-9.62945e-09 0 0
-9.15595e-09 0 0
-1.07633e-08 0 0
-1.10014e-08 0 0
-9.69174e-09 0 0
-8.09255e-09 0 0
-6.31846e-09 0 0
-4.48428e-09 0 0
-2.18975e-09 0 0
-1.2794e-10 0 0
3.02362e-10 0 0
-1.38035e-09 0 0
-4.2459e-09 0 0
-6.98073e-09 0 0
-8.88562e-09 0 0
-9.96195e-09 0 0
-1.05072e-08 0 0
-1.07977e-08 0 0
-1.09926e-08 0 0
-1.11565e-08 0 0
-1.13054e-08 0 0
-1.14381e-08 0 0
-1.15511e-08 0 0
-1.1643e-08 0 0
-1.17147e-08 0 0
-1.1769e-08 0 0
-1.18091e-08 0 0
-1.18381e-08 0 0
-1.18587e-08 0 0
-1.18732e-08 0 0
-1.18832e-08 0 0
-1.189e-08 0 0
-1.18947e-08 0 0
-1.18978e-08 0 0
-1.18999e-08 0 0
-1.19013e-08 0 0
-1.19022e-08 0 0
-1.19028e-08 0 0
-1.19032e-08 0 0
-1.19035e-08 0 0
-1.19038e-08 0 0
-1.19042e-08 0 0
-1.19048e-08 0 0
-1.19058e-08 0 0
0.00192909 0 0
0 0 5.36511e-07
-3.60409e-13 0 2.54957e-10
-1.79416e-10 0 1.11114e-09
2.57897e-09 0 4.32721e-09
-1.14803e-08 0 1.22278e-09
5.89555e-09 0 -3.36411e-09
1.12999e-08 0 -1.4272e-09
1.17745e-08 0 -1.25061e-10
1.16482e-08 0 7.82011e-10
1.22842e-08 0 1.80347e-09
1.40588e-08 0 2.90785e-09
1.68676e-08 0 3.20285e-09
1.95467e-08 0 2.29354e-09
2.00038e-08 0 1.03661e-09
1.67777e-08 0 3.10673e-10
1.07388e-08 0 8.48038e-11
4.12615e-09 0 1.34025e-11
-1.58326e-09 0 2.76536e-11
-6.35968e-09 0 1.93438e-10
-1.07888e-08 0 4.65285e-10
-1.52033e-08 0 7.09921e-10
-1.94951e-08 0 8.28638e-10
-2.33571e-08 0 8.06697e-10
-2.65396e-08 0 6.87581e-10
-2.89547e-08 0 5.2886e-10
-3.06567e-08 0 3.74329e-10
-3.17768e-08 0 2.46735e-10
-3.24645e-08 0 1.52207e-10
-3.28539e-08 0 8.75868e-11
-3.30503e-08 0 4.62391e-11
-3.31298e-08 0 2.13496e-11
-3.31434e-08 0 7.31346e-12
-3.31238e-08 0 3.5175e-14
-3.30904e-08 0 -3.26125e-12
-3.30544e-08 0 -4.35295e-12
-3.3021e-08 0 -4.32181e-12
-3.29927e-08 0 -3.79361e-12
-3.29699e-08 0 -3.109e-12
-3.29523e-08 0 -2.43827e-12
-3.29389e-08 0 -1.85478e-12
-3.29291e-08 0 -1.37988e-12
-3.2922e-08 0 -1.00917e-12
-3.29169e-08 0 -7.27662e-13
-3.29134e-08 0 -5.17646e-13
-3.29109e-08 0 -3.62145e-13
-3.29094e-08 0 -2.49231e-13
-3.29084e-08 0 -1.73579e-13
-3.29081e-08 0 -1.56655e-13
-3.29084e-08 0 -1.75339e-13
-3.29098e-08 0 2.47841e-13
0.00548265 0 -1.74904e-09
0.0036 -3.07759e-07 -6.25124e-08
0.0035998 -0.00138955 -2.2963e-05
0.00670761 -0.00393098 0.000108964
0.0136123 -0.00589047 -0.000512116
0.023513 -0.0144575 -0.00427865
0.0463495 -0.0133901 -0.00488213
0.049869 -0.00191772 -0.00164345
0.0496071 0.00264662 -0.00016248
0.0446188 0.00497234 0.000570583
0.0390127 0.0051395 0.000556807
0.0339104 0.00447172 0.000285364
0.0296207 0.00358796 8.10198e-06
0.0262144 0.0027139 -0.000187213
0.0236294 0.00194569 -0.00028355
0.0217137 0.00133334 -0.000296178
0.0202925 0.000890036 -0.00025223
0.0192245 0.000595357 -0.000181138
0.0184151 0.000409875 -0.000108571
0.0178046 0.000292673 -5.10342e-05
0.0173523 0.000213438 -1.39657e-05
0.0170263 0.000155072 5.21765e-06
0.0167991 0.000109982 1.22892e-05
0.0166467 7.52222e-05 1.27527e-05
0.0165487 4.92911e-05 1.04563e-05
0.0164885 3.07932e-05 7.56084e-06
0.0164535 1.82063e-05 5.02664e-06
0.0164345 1.00349e-05 3.13217e-06
0.0164252 4.97935e-06 1.84326e-06
0.0164215 2.01499e-06 1.02279e-06
0.0164209 3.90809e-07 5.2789e-07
0.0164216 -4.13156e-07 2.43966e-07
0.016423 -7.40336e-07 8.98309e-08
0.0164244 -8.08074e-07 1.20297e-08
0.0164258 -7.48064e-07 -2.28735e-08
0.0164269 -6.36202e-07 -3.49341e-08
0.0164278 -5.13455e-07 -3.57147e-08
0.0164285 -3.99831e-07 -3.15999e-08
0.016429 -3.03365e-07 -2.59279e-08
0.0164294 -2.25699e-07 -2.03091e-08
0.0164297 -1.65386e-07 -1.54139e-08
0.0164299 -1.19765e-07 -1.14289e-08
0.01643 -8.5952e-08 -8.31572e-09
0.0164301 -6.13167e-08 -5.95313e-09
0.0164302 -4.36657e-08 -4.19973e-09
0.0164302 -3.12889e-08 -2.92609e-09
0.0164303 -2.28985e-08 -1.96127e-09
0.0164303 -1.76074e-08 -9.9124e-10
0.0164303 -1.49803e-08 1.01254e-09
0.0164304 -1.71864e-08 4.71742e-09
0.0164304 -4.22188e-08 -4.78003e-10
0.0164305 -6.43764e-08 -7.91229e-09
0.01 -1.38173e-07 -1.45801e-06
0.0100007 -0.00298778 -0.000599835
0.0147858 -0.00996014 -0.00079369
0.0241759 -0.0177371 -0.00124168
0.038568 -0.0325549 -0.00334667
0.0592513 -0.0248641 -0.000819911
0.0564884 -0.0027393 0.00317672
0.0559242 0.00509008 0.00338749
0.0501413 0.0100686 0.00300746
0.0446688 0.0102164 0.00211624
0.0401699 0.00913791 0.00116621
0.0364631 0.00772311 0.000417356
0.033495 0.00624984 -0.000102828
0.0312203 0.00488551 -0.000404929
0.0294815 0.0037306 -0.000510155
0.0281286 0.0028064 -0.000470361
0.027068 0.00208521 -0.0003537
0.0262488 0.00152863 -0.000221593
0.0256353 0.00110297 -0.000112514
0.0251926 0.000780948 -3.98022e-05
0.0248856 0.000540546 -5.94381e-08
0.0246816 0.00036414 1.66788e-05
0.0245526 0.000237606 2.02914e-05
0.0244758 0.000149392 1.79025e-05
0.0244337 8.98907e-05 1.36756e-05
0.0244133 5.11919e-05 9.59448e-06
0.0244058 2.70042e-05 6.35731e-06
0.0244052 1.25511e-05 4.03937e-06
0.0244079 4.37682e-06 2.48196e-06
0.0244119 9.14111e-08 1.48064e-06
0.0244159 -1.89073e-06 8.58059e-07
0.0244195 -2.58112e-06 4.81795e-07
0.0244225 -2.59995e-06 2.60383e-07
0.0244249 -2.31096e-06 1.33666e-07
0.0244267 -1.91624e-06 6.34173e-08
0.024428 -1.51977e-06 2.60018e-08
0.024429 -1.16857e-06 7.15722e-09
0.0244298 -8.78363e-07 -1.52211e-09
0.0244303 -6.48993e-07 -4.86737e-09
0.0244307 -4.7323e-07 -5.57659e-09
0.0244309 -3.41596e-07 -5.10182e-09
0.0244311 -2.44767e-07 -4.19069e-09
0.0244312 -1.74634e-07 -3.21508e-09
0.0244313 -1.24622e-07 -2.33494e-09
0.0244314 -8.96921e-08 -1.60144e-09
0.0244315 -6.62251e-08 -8.78702e-10
0.0244315 -5.20974e-08 3.64488e-10
0.0244315 -4.9436e-08 3.01021e-09
0.0244316 -6.48278e-08 6.27821e-09
0.0244316 -1.1481e-07 -7.38379e-09
0.0244317 -1.51639e-07 -2.25178e-08
0.0148 -9.62274e-07 -1.7515e-06
0.0148024 -0.00529646 -0.00112695
0.0203893 -0.0164331 -0.00244727
0.0275637 -0.0288495 -0.00394057
0.0322187 -0.0462374 -0.0057711
0.0306843 -0.0285443 -0.0014204
0.026894 -1.23614e-05 0.00329823
0.0263338 0.00706191 0.00352299
0.0298349 0.0144118 0.00343767
0.0301817 0.0138387 0.00247205
0.0293799 0.0120627 0.00150316
0.0285502 0.010223 0.000661732
0.0279259 0.0083445 5.719e-05
0.027614 0.00658451 -0.000300414
0.027489 0.00508853 -0.000429328
0.0274501 0.00385674 -0.000398946
0.0274544 0.00285366 -0.00029055
0.0274866 0.0020549 -0.000168097
0.0275371 0.00144044 -6.79172e-05
0.0275963 0.000984057 -2.21342e-06
0.027657 0.000654512 3.17413e-05
0.0277152 0.000421847 4.29865e-05
0.0277687 0.000261266 4.1153e-05
0.0278166 0.0001535 3.36543e-05
0.0278582 8.37196e-05 2.50261e-05
0.0278929 4.05059e-05 1.74465e-05
0.027921 1.52028e-05 1.16053e-05
0.0279429 1.46351e-06 7.44631e-06
0.0279596 -5.16801e-06 4.63874e-06
0.027972 -7.67687e-06 2.8156e-06
0.0279809 -7.96885e-06 1.66736e-06
0.0279873 -7.20054e-06 9.62766e-07
0.0279918 -6.03407e-06 5.40639e-07
0.027995 -4.82085e-06 2.93663e-07
0.0279971 -3.72661e-06 1.52747e-07
0.0279986 -2.8123e-06 7.4606e-08
0.0279996 -2.08415e-06 3.2764e-08
0.0280003 -1.52306e-06 1.13878e-08
0.0280008 -1.10095e-06 1.21798e-09
0.0280011 -7.89105e-07 -3.034e-09
0.0280013 -5.61992e-07 -4.30774e-09
0.0280015 -3.98551e-07 -4.18705e-09
0.0280016 -2.82238e-07 -3.50734e-09
0.0280017 -2.00536e-07 -2.6661e-09
0.0280017 -1.44324e-07 -1.77931e-09
0.0280017 -1.07757e-07 -7.46744e-10
0.0280018 -8.81119e-08 9.86144e-10
0.0280018 -8.66382e-08 3.08949e-09
0.0280018 -1.07362e-07 7.24226e-10
0.0280019 -1.46811e-07 -2.21282e-08
0.0280019 -1.69832e-07 -4.16693e-08
0.018 -1.93917e-06 -1.70031e-06
0.018003 -0.00700284 -0.00187643
0.0207823 -0.0190114 -0.00492412
0.020738 -0.0250135 -0.00634019
0.0160979 -0.0270377 -0.0076274
-1.60799e-06 -0.0140425 -0.0043359
9.74184e-05 2.62292e-05 9.2544e-07
-3.32897e-05 3.46394e-05 0.000654978
0.00657151 0.00407958 0.00144183
0.0134303 0.00925635 0.00141143
0.016843 0.0100649 0.00100156
0.0186205 0.00909556 0.000461829
0.0203172 0.00754823 -2.60263e-05
0.0220098 0.00591246 -0.000295455
0.0235338 0.00450641 -0.000362806
0.024825 0.00333802 -0.000311611
0.0258895 0.00237913 -0.000214365
0.0267531 0.00162219 -0.000115112
0.0274401 0.00105801 -3.49738e-05
0.0279724 0.000660328 1.87748e-05
0.0283734 0.000391613 4.69721e-05
0.0286688 0.000215527 5.52675e-05
0.0288829 0.000103631 5.11611e-05
0.0290362 3.56569e-05 4.14082e-05
0.0291448 -2.70652e-06 3.06286e-05
0.0292208 -2.17525e-05 2.12197e-05
0.0292732 -2.88831e-05 1.39831e-05
0.0293088 -2.92517e-05 8.85079e-06
0.0293327 -2.62501e-05 5.41335e-06
0.0293484 -2.19557e-05 3.20884e-06
0.0293586 -1.75302e-05 1.84419e-06
0.0293652 -1.35434e-05 1.02524e-06
0.0293694 -1.02116e-05 5.47992e-07
0.029372 -7.55814e-06 2.78109e-07
0.0293737 -5.51461e-06 1.30518e-07
0.0293748 -3.97874e-06 5.30516e-08
0.0293754 -2.84541e-06 1.4617e-08
0.0293758 -2.0208e-06 -2.82101e-09
0.0293761 -1.4274e-06 -9.44102e-09
0.0293762 -1.00413e-06 -1.08174e-08
0.0293763 -7.04414e-07 -9.89204e-09
0.0293764 -4.93608e-07 -8.14392e-09
0.0293764 -3.46407e-07 -6.27409e-09
0.0293765 -2.44735e-07 -4.55624e-09
0.0293765 -1.7611e-07 -3.00393e-09
0.0293765 -1.32434e-07 -1.64089e-09
0.0293765 -1.08754e-07 -3.58307e-10
0.0293765 -1.00764e-07 -1.20541e-10
0.0293765 -1.05338e-07 -9.16893e-09
0.0293765 -1.08367e-07 -3.58805e-08
0.0293764 -1.06145e-07 -5.39751e-08
0.0196 -2.81499e-06 -2.56514e-06
0.019601 -0.00591353 -0.00274442
0.0190569 -0.0131957 -0.00648043
0.0159421 -0.016225 -0.00668842
0.0108871 -0.0152067 -0.00668965
0.00172459 -0.00626663 -0.00504389
7.25263e-05 -6.6592e-05 -0.00130418
3.33023e-05 -3.33023e-05 -4.15628e-08
-3.26846e-05 3.38949e-05 0.000260953
0.00390881 0.00275176 0.0005574
0.00894677 0.0064348 0.00048811
0.0118617 0.00671915 0.000137456
0.0151088 0.0052596 -0.00024576
0.0182616 0.00382756 -0.000408245
0.0209617 0.00272889 -0.000400781
0.0231475 0.00186198 -0.000318552
0.0248778 0.00116372 -0.000220755
0.0262297 0.000630408 -0.000131973
0.0272661 0.000263485 -5.95891e-05
0.0280381 4.06565e-05 -6.61327e-06
0.0285942 -7.73972e-05 2.57079e-05
0.0289822 -0.000129285 3.95176e-05
0.0292457 -0.000143203 4.01422e-05
0.0294207 -0.00013675 3.37479e-05
0.0295347 -0.000120357 2.51885e-05
0.0296073 -0.000100255 1.7266e-05
0.0296527 -8.01384e-05 1.10827e-05
0.0296804 -6.20253e-05 6.73716e-06
0.029697 -4.67933e-05 3.90011e-06
0.0297065 -3.45921e-05 2.15035e-06
0.0297119 -2.51653e-05 1.12191e-06
0.0297148 -1.80787e-05 5.44103e-07
0.0297163 -1.28614e-05 2.34538e-07
0.029717 -9.08107e-06 7.79222e-08
0.0297173 -6.37512e-06 4.8744e-09
0.0297174 -4.45603e-06 -2.46436e-08
0.0297174 -3.1045e-06 -3.28383e-08
0.0297173 -2.15773e-06 -3.15217e-08
0.0297173 -1.49721e-06 -2.66719e-08
0.0297172 -1.0379e-06 -2.11139e-08
0.0297172 -7.19427e-07 -1.60337e-08
0.0297171 -4.99303e-07 -1.18124e-08
0.0297171 -3.47852e-07 -8.48151e-09
0.0297171 -2.44533e-07 -5.94575e-09
0.029717 -1.75205e-07 -4.11166e-09
0.029717 -1.29724e-07 -3.0645e-09
0.029717 -1.00198e-07 -2.94738e-09
0.029717 -7.87314e-08 -4.29622e-09
0.029717 -5.74587e-08 -1.6131e-08
0.0297169 -2.1266e-08 -4.06631e-08
0.0297168 3.46806e-09 -5.4533e-08
0.0196 -1.35584e-06 -3.57901e-06
0.0195999 -0.00369111 -0.00312683
0.0187646 -0.0081034 -0.00652075
0.0175133 -0.00813421 -0.00605292
0.0131883 -0.00430355 -0.00554428
0.00909014 0.00257187 -0.00533214
0.0061472 0.00315485 -0.00311547
7.26981e-05 -6.04859e-05 -0.00067235
2.78013e-05 -2.78013e-05 -1.27198e-07
-3.21498e-05 3.32193e-05 9.49454e-05
0.00270855 0.00193471 0.000360852
0.00700828 0.00302314 0.000261972
0.0122784 0.00148821 -0.000162294
0.016914 0.000490885 -0.000348597
0.0205153 2.69869e-05 -0.000353748
0.023197 -0.000249518 -0.000286789
0.0251701 -0.000466153 -0.000211542
0.0266071 -0.000615876 -0.000147527
0.0276296 -0.000673071 -9.38371e-05
0.0283294 -0.00064452 -4.92448e-05
0.0287854 -0.000562519 -1.62611e-05
0.0290671 -0.000460947 3.42913e-06
0.0292318 -0.000361998 1.16763e-05
0.0293223 -0.0002759 1.25725e-05
0.0293683 -0.000205501 1.00973e-05
0.029389 -0.000150191 6.87273e-06
0.0293962 -0.00010802 4.13385e-06
0.0293966 -7.66573e-05 2.2159e-06
0.0293942 -5.3818e-05 1.03344e-06
0.029391 -3.74719e-05 3.77814e-07
0.0293877 -2.59333e-05 5.27786e-08
0.029385 -1.78731e-05 -8.4776e-08
0.0293828 -1.22854e-05 -1.25797e-07
0.0293811 -8.43168e-06 -1.22679e-07
0.0293798 -5.7827e-06 -1.03089e-07
0.0293788 -3.96529e-06 -8.02841e-08
0.0293782 -2.71957e-06 -5.97836e-08
0.0293777 -1.86599e-06 -4.32764e-08
0.0293773 -1.28112e-06 -3.07542e-08
0.0293771 -8.80382e-07 -2.15871e-08
0.0293769 -6.05878e-07 -1.50177e-08
0.0293768 -4.18017e-07 -1.03705e-08
0.0293767 -2.89682e-07 -7.14398e-09
0.0293766 -2.02115e-07 -5.00842e-09
0.0293766 -1.4199e-07 -3.80471e-09
0.0293766 -9.9241e-08 -3.51156e-09
0.0293765 -6.56324e-08 -4.14134e-09
0.0293765 -3.30765e-08 -5.72997e-09
0.0293765 8.87313e-09 -1.55792e-08
0.0293764 7.27144e-08 -3.41913e-08
0.0293763 1.11704e-07 -4.40005e-08
0.018 -8.63943e-07 -3.5712e-06
0.0180009 -0.00201138 -0.00304954
0.0183165 -0.00388388 -0.00616075
0.0183724 -0.00267676 -0.00528729
0.0173552 0.000621366 -0.00419623
0.0170774 0.00707361 -0.00396599
0.0178128 0.0125796 -0.00300193
0.0109406 0.00693074 -0.00149572
7.41732e-05 -4.67985e-05 -0.000435831
-2.52015e-05 -5.44989e-05 5.56383e-07
7.89215e-06 -0.000710562 0.000746277
0.00827685 -0.00286718 0.00108401
0.0155863 -0.00442077 0.000451098
0.0205674 -0.00407889 0.000137907
0.0237345 -0.00321467 1.90159e-05
0.025726 -0.00248703 -2.76916e-05
0.0269731 -0.0019894 -5.84711e-05
0.0277291 -0.00162866 -8.30035e-05
0.0281489 -0.00131926 -9.24854e-05
0.0283416 -0.00103285 -8.34747e-05
0.0283924 -0.000777382 -6.31148e-05
0.0283662 -0.000565845 -4.14479e-05
0.0283069 -0.000401933 -2.45631e-05
0.0282408 -0.000280748 -1.37039e-05
0.0281809 -0.000193824 -7.54229e-06
0.0281319 -0.000132693 -4.28106e-06
0.0280943 -9.02968e-05 -2.57451e-06
0.0280666 -6.12022e-05 -1.63948e-06
0.0280467 -4.13933e-05 -1.08366e-06
0.0280328 -2.79796e-05 -7.26544e-07
0.0280231 -1.89245e-05 -4.86086e-07
0.0280164 -1.28182e-05 -3.21717e-07
0.0280118 -8.69829e-06 -2.09946e-07
0.0280086 -5.91429e-06 -1.35051e-07
0.0280065 -4.02898e-06 -8.57433e-08
0.028005 -2.74929e-06 -5.38346e-08
0.028004 -1.87877e-06 -3.35001e-08
0.0280033 -1.28546e-06 -2.0708e-08
0.0280028 -8.80489e-07 -1.27438e-08
0.0280025 -6.03805e-07 -7.82498e-09
0.0280023 -4.14661e-07 -4.80641e-09
0.0280021 -2.85261e-07 -2.97623e-09
0.028002 -1.96436e-07 -1.93015e-09
0.028002 -1.34706e-07 -1.44499e-09
0.0280019 -9.02443e-08 -1.41419e-09
0.0280019 -5.54156e-08 -1.77402e-09
0.0280018 -2.35998e-08 -2.43757e-09
0.0280018 1.19033e-08 -3.30684e-09
0.0280018 6.14462e-08 -8.29552e-09
0.0280017 1.31643e-07 -2.006e-08
0.0280017 1.71856e-07 -2.73119e-08
0.0148 -4.8492e-07 -3.16387e-06
0.0148015 -0.00103683 -0.00282907
0.0162307 -0.00164795 -0.0054256
0.0177954 -3.23716e-05 -0.00429159
0.0191209 0.00317324 -0.00306988
0.020861 0.00735426 -0.00284829
0.0246766 0.0129794 -0.00241179
0.0279694 0.0195132 -0.00151528
0.0229982 0.011294 -0.000343599
0.0234498 3.59502e-11 0.000624925
0.0265942 -0.00670634 0.00155888
0.0300173 -0.013099 0.00210922
0.0308479 -0.0110324 0.00163955
0.0302809 -0.00771485 0.00114673
0.0292888 -0.00509231 0.000702679
0.0283016 -0.00337854 0.000352899
0.0274507 -0.00230639 0.000107882
0.0267496 -0.00160403 -4.11238e-05
0.0261806 -0.00110952 -0.000108931
0.025725 -0.000750635 -0.000118388
0.0253682 -0.000495984 -9.70511e-05
0.0250964 -0.000323198 -6.74908e-05
0.0248953 -0.000210342 -4.19837e-05
0.0247503 -0.000137992 -2.41439e-05
0.0246483 -9.15967e-05 -1.31312e-05
0.0245779 -6.14913e-05 -6.85854e-06
0.0245299 -4.16544e-05 -3.46952e-06
0.0244976 -2.84014e-05 -1.70132e-06
0.0244759 -1.94524e-05 -8.01179e-07
0.0244614 -1.33634e-05 -3.52571e-07
0.0244517 -9.19815e-06 -1.34641e-07
0.0244452 -6.33824e-06 -3.29897e-08
0.0244408 -4.36975e-06 1.09243e-08
0.0244378 -3.01274e-06 2.68471e-08
0.0244358 -2.07653e-06 2.97843e-08
0.0244345 -1.43049e-06 2.72097e-08
0.0244336 -9.84808e-07 2.27536e-08
0.0244329 -6.7753e-07 1.80938e-08
0.0244325 -4.65854e-07 1.39287e-08
0.0244322 -3.20156e-07 1.04783e-08
0.024432 -2.19875e-07 7.74189e-09
0.0244318 -1.50662e-07 5.62569e-09
0.0244317 -1.02381e-07 3.99983e-09
0.0244317 -6.77077e-08 2.75097e-09
0.0244316 -4.10902e-08 1.78878e-09
0.0244316 -1.79751e-08 1.0732e-09
0.0244316 5.89626e-09 7.03306e-10
0.0244316 3.45558e-08 6.71374e-10
0.0244316 7.34606e-08 -2.47652e-10
0.0244316 1.23248e-07 -7.781e-09
0.0244317 1.50137e-07 -1.43545e-08
0.01 -9.26486e-07 -2.86624e-06
0.0100008 -0.000635288 -0.00230384
0.0113224 -0.000713789 -0.0041435
0.0131882 0.00055165 -0.00291109
0.0156276 0.00252138 -0.00181531
0.0195335 0.00556825 -0.0018253
0.0254549 0.0083654 -0.00237159
0.0345659 0.0101211 -0.00209635