# vtk DataFile Version 2.0
Tobias Weinzierl: CPU, Manycore and Cluster Computing
ASCII

DATASET STRUCTURED_POINTS
DIMENSIONS  51 11 6

ORIGIN 0 0 0 

SPACING 0.1 0.1 0.1 

POINT_DATA 3366

VECTORS velocity float
0 0 0
-9.71159e-11 0 0
-1.57421e-07 0 0
-2.87271e-07 0 0
-2.90212e-07 0 0
-7.30914e-08 0 0
-7.56376e-09 0 0
-2.36623e-08 0 0
-8.3651e-08 0 0
-1.52734e-07 0 0
-1.90855e-07 0 0
-1.99027e-07 0 0
-1.94193e-07 0 0
-1.87913e-07 0 0
-1.8439e-07 0 0
-1.83829e-07 0 0
-1.84997e-07 0 0
-1.86735e-07 0 0
-1.88385e-07 0 0
-1.897e-07 0 0
-1.90653e-07 0 0
-1.91306e-07 0 0
-1.91738e-07 0 0
-1.92022e-07 0 0
-1.92209e-07 0 0
-1.92338e-07 0 0
-1.9243e-07 0 0
-1.92502e-07 0 0
-1.92561e-07 0 0
-1.92612e-07 0 0
-1.92659e-07 0 0
-1.92703e-07 0 0
-1.92743e-07 0 0
-1.92782e-07 0 0
-1.92818e-07 0 0
-1.92852e-07 0 0
-1.92883e-07 0 0
-1.92913e-07 0 0
-1.9294e-07 0 0
-1.92965e-07 0 0
-1.92987e-07 0 0
-1.93006e-07 0 0
-1.93024e-07 0 0
-1.93039e-07 0 0
-1.93052e-07 0 0
-1.93063e-07 0 0
-1.93074e-07 0 0
-1.93085e-07 0 0
-1.931e-07 0 0
-1.93125e-07 0 0
0.00284633 0 0
0 3.6273e-07 0
-1.49387e-10 8.39411e-08 0
-2.98185e-07 1.42079e-07 0
-5.61955e-07 9.52355e-08 0
-5.32634e-07 5.13021e-08 0
-1.65542e-07 6.20954e-08 0
-5.60997e-08 1.08288e-07 0
-5.93516e-08 1.12249e-07 0
-1.088e-07 1.01114e-07 0
-2.1067e-07 7.99165e-08 0
-2.80359e-07 4.28785e-08 0
-3.04539e-07 1.44809e-08 0
-3.09648e-07 1.28357e-09 0
-3.13175e-07 -1.84862e-09 0
-3.2029e-07 -6.25039e-10 0
-3.30089e-07 1.25667e-09 0
-3.40054e-07 2.28276e-09 0
-3.48501e-07 2.4154e-09 0
-3.54895e-07 2.05892e-09 0
-3.59388e-07 1.55275e-09 0
-3.62391e-07 1.07844e-09 0
-3.64332e-07 7.03157e-10 0
-3.65562e-07 4.33962e-10 0
-3.66338e-07 2.53569e-10 0
-3.66833e-07 1.39026e-10 0
-3.6716e-07 6.97145e-11 0
-3.67386e-07 2.97788e-11 0
-3.67555e-07 8.06172e-12 0
-3.67689e-07 -2.82571e-12 0
-3.67802e-07 -7.55461e-12 0
-3.67903e-07 -8.96343e-12 0
-3.67994e-07 -8.71332e-12 0
-3.68079e-07 -7.73775e-12 0
-3.68158e-07 -6.53545e-12 0
-3.68232e-07 -5.35402e-12 0
-3.68302e-07 -4.30126e-12 0
-3.68366e-07 -3.41056e-12 0
-3.68426e-07 -2.67793e-12 0
-3.6848e-07 -2.08173e-12 0
-3.6853e-07 -1.59178e-12 0
-3.68574e-07 -1.17148e-12 0
-3.68614e-07 -7.74145e-13 0
-3.68649e-07 -3.32543e-13 0
-3.68679e-07 2.63287e-13 0
-3.68704e-07 1.20949e-12 0
-3.68726e-07 2.8595e-12 0
-3.68747e-07 5.8508e-12 0
-3.68767e-07 1.14468e-11 0
-3.68792e-07 2.24621e-11 0
-3.68833e-07 4.4457e-11 0
0.00751766 -2.42888e-07 0
0 3.62075e-08 0
-6.41482e-11 1.0139e-07 0
-2.11215e-07 1.2224e-07 0
-4.49337e-07 -7.0085e-09 0
-3.21713e-07 -4.77408e-09 0
-7.97119e-08 9.48374e-08 0
-1.15289e-07 1.35992e-07 0
-1.43229e-07 5.85143e-08 0
-1.37644e-07 -2.06054e-09 0
-1.68619e-07 1.80946e-08 0
-2.07458e-07 4.14781e-08 0
-2.19305e-07 6.25422e-08 0
-2.24502e-07 6.87024e-08 0
-2.30698e-07 5.92643e-08 0
-2.41314e-07 4.53012e-08 0
-2.54878e-07 3.29243e-08 0
-2.67988e-07 2.31532e-08 0
-2.78577e-07 1.5779e-08 0
-2.86214e-07 1.04284e-08 0
-2.91333e-07 6.69265e-09 0
-2.94603e-07 4.17629e-09 0
-2.96629e-07 2.5359e-09 0
-2.97866e-07 1.49806e-09 0
-2.98622e-07 8.59363e-10 0
-2.99095e-07 4.76518e-10 0
-2.99404e-07 2.52962e-10 0
-2.9962e-07 1.26006e-10 0
-2.99782e-07 5.62067e-11 0
-2.99914e-07 1.94096e-11 0
-3.00028e-07 1.17337e-12 0
-3.0013e-07 -6.9436e-12 0
-3.00223e-07 -9.76502e-12 0
-3.0031e-07 -9.97963e-12 0
-3.0039e-07 -9.04146e-12 0
-3.00466e-07 -7.70525e-12 0
-3.00536e-07 -6.33897e-12 0
-3.00602e-07 -5.10262e-12 0
-3.00662e-07 -4.04827e-12 0
-3.00717e-07 -3.17408e-12 0
-3.00767e-07 -2.45124e-12 0
-3.00812e-07 -1.83453e-12 0
-3.00852e-07 -1.26112e-12 0
-3.00887e-07 -6.38598e-13 0
-3.00916e-07 1.80454e-13 0
-3.00941e-07 1.45385e-12 0
-3.00962e-07 3.67123e-12 0
-3.0098e-07 7.72316e-12 0
-3.00995e-07 1.50113e-11 0
-3.01011e-07 2.72568e-11 0
-3.01035e-07 4.7852e-11 0
0.00973093 -3.31636e-07 0
0 -4.39496e-07 0
-2.47396e-11 4.63659e-08 0
-1.25295e-07 -2.56471e-08 0
-3.58202e-07 -2.24666e-07 0
-2.32739e-07 -2.21224e-07 0
1.27524e-08 -6.86707e-08 0
-6.66645e-08 -5.01579e-11 0
-1.07552e-07 -9.17837e-08 0
-2.59192e-07 -1.96713e-07 0
-2.79689e-07 -1.53833e-07 0
-2.89654e-07 -3.91709e-08 0
-2.83297e-07 5.86129e-08 0
-2.67355e-07 1.00913e-07 0
-2.4523e-07 9.34921e-08 0
-2.29416e-07 7.1668e-08 0
-2.23656e-07 5.13081e-08 0
-2.24075e-07 3.51612e-08 0
-2.26547e-07 2.31652e-08 0
-2.28974e-07 1.47288e-08 0
-2.30733e-07 9.07331e-09 0
-2.31845e-07 5.43099e-09 0
-2.32501e-07 3.16286e-09 0
-2.32884e-07 1.79098e-09 0
-2.33117e-07 9.82706e-10 0
-2.33276e-07 5.18292e-10 0
-2.334e-07 2.58296e-10 0
-2.33508e-07 1.17003e-10 0
-2.33609e-07 4.30974e-11 0
-2.33707e-07 6.54103e-12 0
-2.33801e-07 -9.89079e-12 0
-2.33893e-07 -1.58776e-11 0
-2.33981e-07 -1.67396e-11 0
-2.34065e-07 -1.53224e-11 0
-2.34145e-07 -1.3092e-11 0
-2.3422e-07 -1.07612e-11 0
-2.34291e-07 -8.64242e-12 0
-2.34356e-07 -6.84312e-12 0
-2.34417e-07 -5.37168e-12 0
-2.34472e-07 -4.19232e-12 0
-2.34523e-07 -3.25159e-12 0
-2.34568e-07 -2.4881e-12 0
-2.34607e-07 -1.83131e-12 0
-2.34642e-07 -1.18959e-12 0
-2.34671e-07 -4.2678e-13 0
-2.34696e-07 6.57554e-13 0
-2.34716e-07 2.34011e-12 0
-2.34731e-07 5.07237e-12 0
-2.34742e-07 9.74869e-12 0
-2.34753e-07 1.81058e-11 0
-2.34769e-07 3.22037e-11 0
0.010179 -2.60953e-07 0
0 -8.48539e-07 0
-7.35858e-11 -2.40364e-08 0
-1.28516e-07 -1.26679e-07 0
-3.78881e-07 -2.26441e-07 0
-3.55052e-07 -1.73857e-07 0
-4.8373e-11 -5.01884e-08 0
1.28099e-09 9.0637e-10 0
-1.03437e-09 1.00082e-09 0
-1.46709e-07 -1.24583e-07 0
-3.14845e-07 -2.04452e-07 0
-3.24067e-07 -8.3525e-08 0
-3.34325e-07 3.8524e-08 0
-3.32421e-07 8.58865e-08 0
-3.02414e-07 7.72131e-08 0
-2.67506e-07 5.82877e-08 0
-2.43376e-07 4.24149e-08 0
-2.30094e-07 2.94117e-08 0
-2.23281e-07 1.91874e-08 0
-2.19676e-07 1.18268e-08 0
-2.17622e-07 6.94673e-09 0
-2.16384e-07 3.91173e-09 0
-2.15627e-07 2.11435e-09 0
-2.15178e-07 1.09114e-09 0
-2.14933e-07 5.28709e-10 0
-2.14822e-07 2.30388e-10 0
-2.14797e-07 7.879e-11 0
-2.14824e-07 6.37144e-12 0
-2.14883e-07 -2.4641e-11 0
-2.14959e-07 -3.48595e-11 0
-2.15043e-07 -3.52632e-11 0
-2.15131e-07 -3.15376e-11 0
-2.15217e-07 -2.65139e-11 0
-2.15301e-07 -2.15152e-11 0
-2.15381e-07 -1.70884e-11 0
-2.15457e-07 -1.33956e-11 0
-2.15528e-07 -1.04209e-11 0
-2.15594e-07 -8.07686e-12 0
-2.15656e-07 -6.25619e-12 0
-2.15711e-07 -4.85589e-12 0
-2.15762e-07 -3.78571e-12 0
-2.15807e-07 -2.96892e-12 0
-2.15847e-07 -2.33915e-12 0
-2.15882e-07 -1.837e-12 0
-2.15911e-07 -1.4026e-12 0
-2.15935e-07 -9.39513e-13 0
-2.15955e-07 -2.40385e-13 0
-2.15969e-07 1.10226e-12 0
-2.1598e-07 3.74336e-12 0
-2.15989e-07 8.49151e-12 0
-2.16004e-07 1.58772e-11 0
0.0102458 -1.3626e-07 0
0 -7.58776e-07 0
-1.19403e-10 -5.31922e-08 0
-1.41227e-07 -1.33081e-07 0
-3.89092e-07 -1.83547e-07 0
-4.33343e-07 -1.92629e-07 0
-1.43324e-07 -8.90133e-08 0
1.2018e-09 -1.20917e-09 0
1.74214e-10 -1.74214e-10 0
-1.06396e-09 1.00439e-09 0
-1.45851e-07 -8.54978e-08 0
-2.43658e-07 -8.39417e-08 0
-3.01535e-07 5.93285e-08 0
-3.64493e-07 1.02869e-07 0
-3.58077e-07 7.00147e-08 0
-3.1227e-07 3.94352e-08 0
-2.7062e-07 2.33624e-08 0
-2.44474e-07 1.39765e-08 0
-2.29884e-07 7.76382e-09 0
-2.21845e-07 3.84381e-09 0
-2.17334e-07 1.6222e-09 0
-2.14774e-07 4.97072e-10 0
-2.1333e-07 -5.76189e-12 0
-2.1254e-07 -1.91278e-10 0
-2.12134e-07 -2.30981e-10 0
-2.11952e-07 -2.12205e-10 0
-2.11899e-07 -1.75618e-10 0
-2.1192e-07 -1.38256e-10 0
-2.11979e-07 -1.06094e-10 0
-2.12059e-07 -8.03587e-11 0
-2.12147e-07 -6.04897e-11 0
-2.12238e-07 -4.5426e-11 0
-2.12328e-07 -3.41086e-11 0
-2.12415e-07 -2.56417e-11 0
-2.12497e-07 -1.93179e-11 0
-2.12574e-07 -1.45964e-11 0
-2.12646e-07 -1.10702e-11 0
-2.12713e-07 -8.43609e-12 0
-2.12775e-07 -6.47008e-12 0
-2.12831e-07 -5.0082e-12 0
-2.12882e-07 -3.93242e-12 0
-2.12928e-07 -3.16056e-12 0
-2.12968e-07 -2.63853e-12 0
-2.13003e-07 -2.33058e-12 0
-2.13032e-07 -2.20644e-12 0
-2.13057e-07 -2.23066e-12 0
-2.13076e-07 -2.34878e-12 0
-2.13091e-07 -2.45298e-12 0
-2.13102e-07 -2.31595e-12 0
-2.1311e-07 -1.66231e-12 0
-2.13125e-07 -5.20978e-13 0
0.0102529 6.17771e-10 0
0 -5.38793e-07 0
-1.30105e-10 -6.25692e-08 0
-1.3635e-07 -1.42319e-07 0
-3.79913e-07 -1.37041e-07 0
-4.51106e-07 -1.02274e-07 0
-3.17615e-07 -8.77361e-08 0
-1.05954e-07 -4.27454e-08 0
1.21576e-09 -1.20228e-09 0
1.37694e-10 -1.37694e-10 0
-1.11865e-09 1.00891e-09 0
-9.1304e-08 4.11262e-08 0
-2.01099e-07 1.53262e-07 0
-3.70234e-07 1.73517e-07 0
-4.19389e-07 7.5697e-08 0
-3.60973e-07 1.29148e-08 0
-2.93948e-07 -5.4734e-09 0
-2.53067e-07 -8.11438e-09 0
-2.32675e-07 -7.31754e-09 0
-2.23005e-07 -5.83837e-09 0
-2.18408e-07 -4.31192e-09 0
-2.16213e-07 -3.00485e-09 0
-2.15184e-07 -2.01098e-09 0
-2.14731e-07 -1.31259e-09 0
-2.14567e-07 -8.46146e-10 0
-2.14548e-07 -5.44088e-10 0
-2.146e-07 -3.51697e-10 0
-2.14686e-07 -2.29872e-10 0
-2.14787e-07 -1.52542e-10 0
-2.14892e-07 -1.03015e-10 0
-2.14997e-07 -7.0853e-11 0
-2.15098e-07 -4.96092e-11 0
-2.15194e-07 -3.53134e-11 0
-2.15284e-07 -2.55117e-11 0
-2.15369e-07 -1.86723e-11 0
-2.15448e-07 -1.38247e-11 0
-2.15522e-07 -1.03433e-11 0
-2.1559e-07 -7.81759e-12 0
-2.15652e-07 -5.97448e-12 0
-2.15709e-07 -4.63097e-12 0
-2.1576e-07 -3.66565e-12 0
-2.15806e-07 -3.00109e-12 0
-2.15846e-07 -2.59408e-12 0
-2.15881e-07 -2.43293e-12 0
-2.15911e-07 -2.54197e-12 0
-2.15936e-07 -2.99442e-12 0
-2.15956e-07 -3.93681e-12 0
-2.15972e-07 -5.61061e-12 0
-2.15983e-07 -8.27316e-12 0
-2.15992e-07 -1.20215e-11 0
-2.16008e-07 -1.71463e-11 0
0.0102458 1.37116e-07 0
0 -3.87202e-07 0
-1.44158e-10 -6.90128e-08 0
-1.44486e-07 -1.39575e-07 0
-3.69642e-07 -1.11352e-07 0
-4.34946e-07 -5.39259e-08 0
-3.43588e-07 -3.81839e-08 0
-2.37466e-07 -9.3326e-08 0
-1.3758e-07 -6.8306e-08 0
1.19552e-09 -1.2087e-09 0
-1.11801e-09 -1.29683e-09 0
2.28851e-11 8.88794e-08 0
-7.27181e-08 2.81149e-07 0
-2.52663e-07 2.8159e-07 0
-3.78141e-07 8.72873e-08 0
-3.62136e-07 -2.41082e-08 0
-3.01707e-07 -3.94764e-08 0
-2.60242e-07 -2.90499e-08 0
-2.41184e-07 -1.8902e-08 0
-2.34159e-07 -1.19291e-08 0
-2.32111e-07 -7.35726e-09 0
-2.31826e-07 -4.44728e-09 0
-2.32062e-07 -2.65467e-09 0
-2.32394e-07 -1.57854e-09 0
-2.32696e-07 -9.4234e-10 0
-2.32947e-07 -5.68389e-10 0
-2.33154e-07 -3.48207e-10 0
-2.33328e-07 -2.17572e-10 0
-2.33479e-07 -1.39086e-10 0
-2.33613e-07 -9.11291e-11 0
-2.33733e-07 -6.12186e-11 0
-2.33843e-07 -4.21243e-11 0
-2.33945e-07 -2.96296e-11 0
-2.34039e-07 -2.12485e-11 0
-2.34125e-07 -1.54943e-11 0
-2.34206e-07 -1.14604e-11 0
-2.3428e-07 -8.58262e-12 0
-2.34348e-07 -6.50197e-12 0
-2.34411e-07 -4.98577e-12 0
-2.34468e-07 -3.88175e-12 0
-2.34519e-07 -3.09148e-12 0
-2.34565e-07 -2.55616e-12 0
-2.34606e-07 -2.25165e-12 0
-2.34641e-07 -2.1928e-12 0
-2.34672e-07 -2.44998e-12 0
-2.34697e-07 -3.1835e-12 0
-2.34718e-07 -4.70854e-12 0
-2.34735e-07 -7.60782e-12 0
-2.34748e-07 -1.27795e-11 0
-2.3476e-07 -2.1099e-11 0
-2.34777e-07 -3.37709e-11 0
0.010179 2.59954e-07 0
0 -3.52433e-07 0
-1.58898e-10 -6.57889e-08 0
-1.73502e-07 -1.28495e-07 0
-3.80329e-07 -9.29111e-08 0
-4.41539e-07 -3.79186e-08 0
-3.76196e-07 -1.40169e-08 0
-2.79655e-07 -4.82921e-08 0
-2.52551e-07 -1.53799e-07 0
-1.71334e-07 -1.11816e-07 0
-2.70226e-07 -2.58878e-11 0
-3.63316e-07 9.20997e-08 0
-2.45117e-07 2.81375e-07 0
-1.39898e-07 2.9773e-07 0
-2.28267e-07 1.12262e-07 0
-3.02999e-07 -2.24269e-08 0
-3.0689e-07 -4.71098e-08 0
-2.96077e-07 -3.28833e-08 0
-2.91863e-07 -1.83338e-08 0
-2.92404e-07 -9.6658e-09 0
-2.94262e-07 -5.10652e-09 0
-2.95983e-07 -2.76155e-09 0
-2.97243e-07 -1.54034e-09 0
-2.98094e-07 -8.87493e-10 0
-2.98662e-07 -5.27608e-10 0
-2.99049e-07 -3.23119e-10 0
-2.99325e-07 -2.03629e-10 0
-2.99535e-07 -1.31962e-10 0
-2.99704e-07 -8.78687e-11 0
-2.99847e-07 -6.00289e-11 0
-2.99972e-07 -4.19785e-11 0
-3.00084e-07 -2.996e-11 0
-3.00187e-07 -2.17515e-11 0
-3.00281e-07 -1.60141e-11 0
-3.00368e-07 -1.19237e-11 0
-3.00449e-07 -8.9599e-12 0
-3.00523e-07 -6.7855e-12 0
-3.00592e-07 -5.1767e-12 0
-3.00654e-07 -3.98203e-12 0
-3.00712e-07 -3.09847e-12 0
-3.00763e-07 -2.45763e-12 0
-3.00809e-07 -2.01922e-12 0
-3.0085e-07 -1.77094e-12 0
-3.00885e-07 -1.73699e-12 0
-3.00916e-07 -2.00071e-12 0
-3.00942e-07 -2.75066e-12 0
-3.00964e-07 -4.36756e-12 0
-3.00982e-07 -7.61831e-12 0
-3.00998e-07 -1.40485e-11 0
-3.01015e-07 -2.6254e-11 0
-3.01039e-07 -4.84221e-11 0
0.00973087 3.25571e-07 0
0 -3.80063e-07 0
-1.75394e-10 -4.04107e-08 0
-1.98559e-07 -7.81567e-08 0
-3.79134e-07 -5.47236e-08 0
-4.3846e-07 -2.76408e-08 0
-4.25005e-07 -3.76435e-08 0
-3.69577e-07 -7.43986e-08 0
-3.34621e-07 -1.03282e-07 0
-3.83642e-07 2.43825e-08 0
-3.96151e-07 2.07552e-07 0
-4.08554e-07 1.41204e-07 0
-2.95697e-07 -6.29867e-08 0
-2.08917e-07 -1.37453e-07 0
-2.91564e-07 -7.29291e-08 0
-3.75117e-07 1.56981e-09 0
-3.86772e-07 2.9495e-08 0
-3.75423e-07 2.51132e-08 0
-3.67487e-07 1.41514e-08 0
-3.64685e-07 6.52381e-09 0
-3.64377e-07 2.62266e-09 0
-3.64878e-07 9.07576e-10 0
-3.655e-07 2.28023e-10 0
-3.66038e-07 -1.29451e-11 0
-3.66458e-07 -8.23108e-11 0
-3.66783e-07 -8.99412e-11 0
-3.67038e-07 -7.83786e-11 0
-3.67245e-07 -6.30651e-11 0
-3.67418e-07 -4.90368e-11 0
-3.67568e-07 -3.75337e-11 0
-3.67701e-07 -2.85161e-11 0
-3.6782e-07 -2.15871e-11 0
-3.67928e-07 -1.6313e-11 0
-3.68027e-07 -1.23169e-11 0
-3.68118e-07 -9.29582e-12 0
-3.68201e-07 -7.01532e-12 0
-3.68278e-07 -5.29616e-12 0
-3.68348e-07 -4.00254e-12 0
-3.68412e-07 -3.03244e-12 0
-3.6847e-07 -2.31045e-12 0
-3.68522e-07 -1.78282e-12 0
-3.68569e-07 -1.41505e-12 0
-3.6861e-07 -1.19296e-12 0
-3.68646e-07 -1.12907e-12 0
-3.68676e-07 -1.27904e-12 0
-3.68703e-07 -1.77848e-12 0
-3.68726e-07 -2.91719e-12 0
-3.68746e-07 -5.3115e-12 0
-3.68765e-07 -1.04356e-11 0
-3.68789e-07 -2.19306e-11 0
-3.68828e-07 -4.5611e-11 0
0.00751766 2.31559e-07 0
0 0 0
-8.92285e-11 0 0
-1.00749e-07 0 0
-1.82294e-07 0 0
-2.12499e-07 0 0
-2.18043e-07 0 0
-2.21424e-07 0 0
-2.1967e-07 0 0
-2.12302e-07 0 0
-1.25937e-07 0 0
-4.52025e-08 0 0
-5.89126e-08 0 0
-1.4183e-07 0 0
-2.17507e-07 0 0
-2.42046e-07 0 0
-2.29923e-07 0 0
-2.12044e-07 0 0
-2.00474e-07 0 0
-1.94875e-07 0 0
-1.92617e-07 0 0
-1.91876e-07 0 0
-1.91738e-07 0 0
-1.91809e-07 0 0
-1.91937e-07 0 0
-1.92068e-07 0 0
-1.92187e-07 0 0
-1.92291e-07 0 0
-1.92382e-07 0 0
-1.92462e-07 0 0
-1.92533e-07 0 0
-1.92596e-07 0 0
-1.92653e-07 0 0
-1.92705e-07 0 0
-1.92752e-07 0 0
-1.92796e-07 0 0
-1.92835e-07 0 0
-1.92871e-07 0 0
-1.92903e-07 0 0
-1.92933e-07 0 0
-1.92959e-07 0 0
-1.92983e-07 0 0
-1.93003e-07 0 0
-1.93021e-07 0 0
-1.93037e-07 0 0
-1.9305e-07 0 0
-1.93062e-07 0 0
-1.93072e-07 0 0
-1.93083e-07 0 0
-1.93097e-07 0 0
-1.93121e-07 0 0
0.00284636 0 0
0 0 4.06372e-07
-1.15514e-10 0 7.32741e-08
-3.12483e-07 0 1.44889e-07
-6.43634e-07 0 3.73501e-08
-7.92524e-07 0 -2.65686e-07
-1.2841e-07 0 -3.44946e-07
1.10914e-07 0 -1.57918e-07
1.37785e-07 0 -3.63602e-08
5.294e-08 0 2.77612e-08
-7.53426e-08 0 2.70935e-08
-1.74065e-07 0 3.22285e-09
-2.34076e-07 0 -1.13323e-08
-2.70684e-07 0 -1.25843e-08
-2.94914e-07 0 -8.13722e-09
-3.12823e-07 0 -3.63872e-09
-3.2754e-07 0 -8.26561e-10
-3.39713e-07 0 4.49907e-10
-3.49241e-07 0 8.04424e-10
-3.56238e-07 0 7.43675e-10
-3.61112e-07 0 5.57662e-10
-3.64373e-07 0 3.74543e-10
-3.66494e-07 0 2.34457e-10
-3.67851e-07 0 1.3953e-10
-3.68714e-07 0 7.97834e-11
-3.69268e-07 0 4.40591e-11
-3.69634e-07 0 2.3524e-11
-3.69886e-07 0 1.21066e-11
-3.70072e-07 0 5.95285e-12
-3.70217e-07 0 2.74135e-12
-3.70337e-07 0 1.12687e-12
-3.70442e-07 0 3.53963e-13
-3.70537e-07 0 9.98102e-15
-3.70623e-07 0 -1.24322e-13
-3.70704e-07 0 -1.61961e-13
-3.70779e-07 0 -1.59085e-13
-3.70848e-07 0 -1.42241e-13
-3.70913e-07 0 -1.2306e-13
-3.70973e-07 0 -1.05986e-13
-3.71028e-07 0 -9.22161e-14
-3.71078e-07 0 -8.16015e-14
-3.71122e-07 0 -7.33787e-14
-3.71162e-07 0 -6.59053e-14
-3.71197e-07 0 -5.46383e-14
-3.71227e-07 0 -2.48363e-14
-3.71253e-07 0 6.86701e-14
-3.71276e-07 0 3.40992e-13
-3.71296e-07 0 1.08464e-12
-3.71318e-07 0 3.19144e-12
-3.71344e-07 0 9.31665e-12
-3.71386e-07 0 2.48454e-11
0.00751106 0 -1.37727e-07
0.0036 9.69789e-08 1.52177e-07
0.00359965 -0.00174766 -0.000401154
0.00774993 -0.00525884 -0.00150466
0.0161322 -0.00863931 -0.0031334
0.0279315 -0.0129229 -0.00464141
0.0465674 -0.00885205 -0.00323792
0.0487247 -0.000193531 -0.000504928
0.0480579 0.00332571 0.00058
0.0427292 0.00504168 0.000679702
0.0371328 0.00474969 0.000161405
0.0321976 0.00382328 -0.000238752
0.0282001 0.00282313 -0.000347148
0.0252664 0.00194948 -0.000279641
0.0232899 0.00128205 -0.000170701
0.0220254 0.000819622 -8.61603e-05
0.0212402 0.00051439 -3.69648e-05
0.0207638 0.000317095 -1.31639e-05
0.0204812 0.000191816 -3.30526e-06
0.020317 0.000113861 7.94101e-08
0.0202238 6.63607e-05 8.63368e-07
0.020172 3.79918e-05 7.81756e-07
0.0201441 2.13643e-05 5.13721e-07
0.0201294 1.17909e-05 2.79331e-07
0.0201221 6.37459e-06 1.22903e-07
0.0201186 3.36476e-06 3.31374e-08
0.0201172 1.7243e-06 -1.17772e-08
0.0201167 8.49743e-07 -3.01832e-08
0.0201167 3.95819e-07 -3.44763e-08
0.0201168 1.68252e-07 -3.21155e-08
0.020117 5.95947e-08 -2.72167e-08
0.0201172 1.15228e-08 -2.18609e-08
0.0201173 -6.94181e-09 -1.69803e-08
0.0201175 -1.18201e-08 -1.2902e-08
0.0201175 -1.11101e-08 -9.65968e-09
0.0201176 -8.6075e-09 -7.16206e-09
0.0201176 -5.97348e-09 -5.27911e-09
0.0201177 -3.8319e-09 -3.88234e-09
0.0201177 -2.33782e-09 -2.86159e-09
0.0201177 -1.46483e-09 -2.13075e-09
0.0201177 -1.148e-09 -1.62921e-09
0.0201177 -1.35917e-09 -1.32335e-09
0.0201177 -2.16005e-09 -1.21078e-09
0.0201177 -3.7664e-09 -1.32948e-09
0.0201178 -6.65737e-09 -1.77235e-09
0.0201178 -1.18116e-08 -2.73256e-09
0.0201178 -2.12802e-08 -4.66552e-09
0.0201178 -3.88081e-08 -7.96238e-09
0.0201179 -7.21974e-08 -1.34004e-08
0.0201181 -1.65436e-07 -5.30413e-08
0.0201184 -4.41502e-07 -2.41971e-07
0.0201189 -6.46418e-07 -3.94738e-07
0.01 8.34031e-08 -6.30423e-07
0.0100009 -0.00375012 -0.000896065
0.015175 -0.0114897 -0.00246884
0.0242293 -0.0186719 -0.00404913
0.0367171 -0.0280686 -0.00438884
0.055706 -0.0188078 -0.00118329
0.0544382 -0.000943727 0.0016992
0.0549178 0.00597438 0.00207266
0.0492066 0.0108479 0.00169727
0.0431787 0.0106278 0.000596689
0.0380563 0.0091343 -0.000250622
0.0338666 0.00712824 -0.000515087
0.0308669 0.00504983 -0.000441302
0.0289625 0.00332059 -0.000276859
0.0278137 0.00208758 -0.00014158
0.027139 0.00127646 -6.11207e-05
0.0267528 0.000763378 -2.16912e-05
0.026538 0.000447178 -5.13134e-06
0.0264224 0.000256634 6.63661e-07
0.0263625 0.00014419 2.04216e-06
0.026333 7.9156e-05 1.89351e-06
0.0263196 4.2292e-05 1.38084e-06
0.0263143 2.18331e-05 9.02188e-07
0.0263129 1.07446e-05 5.52371e-07
0.0263132 4.90421e-06 3.23389e-07
0.0263141 1.94165e-06 1.82823e-07
0.0263151 5.18999e-07 1.00196e-07
0.026316 -1.04485e-07 5.32005e-08
0.0263168 -3.30244e-07 2.72086e-08
0.0263174 -3.70331e-07 1.32144e-08
0.0263178 -3.33097e-07 5.89818e-09
0.0263181 -2.71346e-07 2.21134e-09
0.0263184 -2.08921e-07 4.48893e-10
0.0263185 -1.55117e-07 -3.22421e-10
0.0263187 -1.12308e-07 -6.02757e-10
0.0263187 -7.98709e-08 -6.54216e-10
0.0263188 -5.61267e-08 -6.10865e-10
0.0263188 -3.92417e-08 -5.39994e-10
0.0263189 -2.7609e-08 -4.76273e-10
0.0263189 -1.99836e-08 -4.41608e-10
0.0263189 -1.55209e-08 -4.58268e-10
0.0263189 -1.38056e-08 -5.60013e-10
0.0263189 -1.49382e-08 -8.05258e-10
0.0263189 -1.97596e-08 -1.29037e-09
0.0263189 -3.02954e-08 -2.14632e-09
0.026319 -5.10205e-08 -3.67961e-09
0.026319 -9.40943e-08 -6.79397e-09
0.0263191 -1.8667e-07 -1.43076e-08
0.0263192 -3.58861e-07 -7.3323e-08
0.0263194 -6.53044e-07 -3.49789e-07
0.0263196 -8.38281e-07 -5.72693e-07
0.0148 -6.95067e-07 -8.38457e-07
0.014802 -0.00574047 -0.00140308
0.0194887 -0.0166845 -0.00382093
0.0254013 -0.0266017 -0.00558499
0.0296283 -0.0403431 -0.00490855
0.0281779 -0.0246994 -0.000781233
0.0260646 -8.03622e-06 0.00176658
0.0263857 0.00786411 0.00190157
0.0312465 0.0163909 0.00177893
0.0312043 0.0159335 0.000868448
0.0296956 0.0133994 7.06116e-05
0.0283937 0.0102932 -0.000291054
0.0276246 0.00705876 -0.000311116
0.0273611 0.00445533 -0.000207371
0.0273141 0.00270153 -0.000100427
0.0273403 0.00159892 -3.35776e-05
0.0273882 0.000925273 -2.57015e-06
0.0274378 0.000522942 7.82904e-06
0.0274808 0.000288173 9.08884e-06
0.0275147 0.000154355 7.30172e-06
0.0275397 7.98625e-05 5.06698e-06
0.0275574 3.94237e-05 3.24406e-06
0.0275697 1.80974e-05 1.97272e-06
0.027578 7.25735e-06 1.15688e-06
0.0275836 2.02969e-06 6.59882e-07
0.0275873 -2.82659e-07 3.67776e-07
0.0275897 -1.14007e-06 2.00634e-07
0.0275914 -1.31381e-06 1.07048e-07
0.0275925 -1.19852e-06 5.56454e-08
0.0275932 -9.87346e-07 2.79422e-08
0.0275937 -7.68381e-07 1.33204e-08
0.027594 -5.76798e-07 5.79951e-09
0.0275942 -4.22409e-07 2.06603e-09
0.0275944 -3.03869e-07 3.11443e-10
0.0275945 -2.15709e-07 -4.36587e-10
0.0275945 -1.51636e-07 -6.92296e-10
0.0275946 -1.05917e-07 -7.2258e-10
0.0275946 -7.38533e-08 -6.63313e-10
0.0275946 -5.18331e-08 -5.8336e-10
0.0275946 -3.72298e-08 -5.20418e-10
0.0275946 -2.82792e-08 -5.02571e-10
0.0275946 -2.40069e-08 -5.63176e-10
0.0275947 -2.42639e-08 -7.52349e-10
0.0275947 -3.00068e-08 -1.15786e-09
0.0275947 -4.41769e-08 -2.00511e-09
0.0275947 -7.2855e-08 -4.01943e-09
0.0275947 -1.23899e-07 -9.25614e-09
0.0275947 -2.06326e-07 -2.36329e-08
0.0275947 -3.34677e-07 -9.96593e-08
0.0275947 -5.27415e-07 -4.09326e-07
0.0275946 -6.42173e-07 -6.5361e-07
0.018 -1.53349e-06 -1.09322e-06
0.0180019 -0.00658364 -0.00219918
0.0198719 -0.0173349 -0.00593607
0.0197798 -0.0222392 -0.00721148
0.0159749 -0.0238667 -0.00617168
-7.97901e-07 -0.0123852 -0.00269791
7.90597e-05 2.70215e-05 4.12705e-07
-3.09508e-05 3.27234e-05 0.000357177
0.00771406 0.00549725 0.00071044
0.0161485 0.0120544 0.000577131
0.0194242 0.01206 0.000249609
0.0209983 0.00938109 -6.84397e-05
0.0227178 0.00623337 -0.000191224
0.0243436 0.00372376 -0.000149057
0.0255759 0.00215105 -6.60968e-05
0.0264085 0.00121534 -8.9306e-06
0.0269423 0.000665684 1.53979e-05
0.0272759 0.00035028 1.99771e-05
0.0274809 0.000175317 1.66419e-05
0.0276051 8.18874e-05 1.16789e-05
0.0276795 3.40685e-05 7.46388e-06
0.0277236 1.08554e-05 4.49512e-06
0.0277496 4.38675e-07 2.59662e-06
0.0277649 -3.59735e-06 1.45231e-06
0.0277738 -4.62822e-06 7.89837e-07
0.027779 -4.36996e-06 4.17718e-07
0.0277821 -3.65797e-06 2.13878e-07
0.0277839 -2.87355e-06 1.04838e-07
0.027785 -2.17162e-06 4.79991e-08
0.0277856 -1.59942e-06 1.93169e-08
0.027786 -1.15672e-06 5.5013e-09
0.0277862 -8.25329e-07 -6.60875e-10
0.0277863 -5.82796e-07 -3.0145e-09
0.0277864 -4.08172e-07 -3.56794e-09
0.0277865 -2.84013e-07 -3.34363e-09
0.0277865 -1.96647e-07 -2.84368e-09
0.0277865 -1.35757e-07 -2.3015e-09
0.0277865 -9.37663e-08 -1.81627e-09
0.0277865 -6.52345e-08 -1.42434e-09
0.0277865 -4.63606e-08 -1.13787e-09
0.0277865 -3.4607e-08 -9.67703e-10
0.0277865 -2.84639e-08 -9.42508e-10
0.0277865 -2.73634e-08 -1.13674e-09
0.0277865 -3.16628e-08 -1.72345e-09
0.0277865 -4.23832e-08 -3.13748e-09
0.0277865 -6.08778e-08 -6.58387e-09
0.0277865 -8.92105e-08 -1.43911e-08
0.0277864 -1.30336e-07 -3.19606e-08
0.0277864 -1.91219e-07 -1.13689e-07
0.0277863 -2.79832e-07 -4.32711e-07
0.0277862 -3.31746e-07 -6.82286e-07
0.0196 -1.87435e-06 -1.88352e-06
0.0196007 -0.00508201 -0.00295086
0.0190572 -0.0115479 -0.00723173
0.016417 -0.0136859 -0.00760557
0.0119588 -0.0119622 -0.00607956
0.0026588 -0.00474412 -0.00343594
6.01751e-05 -5.55374e-05 -0.000679258
2.45866e-05 -2.45866e-05 -3.97938e-08
-3.00064e-05 3.18951e-05 8.52023e-05
0.00547171 0.00408937 0.000183895
0.0120086 0.00852787 0.000147457
0.0148403 0.00706735 -5.13453e-05
0.0183992 0.00381305 -0.000229579
0.0217324 0.00167001 -0.000212533
0.0241647 0.00066922 -0.000112629
0.0257023 0.000238017 -2.93988e-05
0.0266119 5.16467e-05 9.92699e-06
0.0271358 -2.42213e-05 1.95394e-05
0.0274335 -4.82338e-05 1.69547e-05
0.027601 -4.93047e-05 1.17035e-05
0.0276944 -4.18763e-05 7.22012e-06
0.027746 -3.26312e-05 4.16117e-06
0.0277743 -2.42487e-05 2.28552e-06
0.0277897 -1.75174e-05 1.20578e-06
0.027798 -1.24343e-05 6.10514e-07
0.0278025 -8.72746e-06 2.93487e-07
0.0278048 -6.08051e-06 1.30144e-07
0.027806 -4.21494e-06 4.91806e-08
0.0278066 -2.91108e-06 1.1184e-08
0.0278069 -2.00486e-06 -5.06393e-09
0.027807 -1.37743e-06 -1.07281e-08
0.027807 -9.44277e-07 -1.1545e-08
0.027807 -6.45968e-07 -1.03766e-08
0.027807 -4.4098e-07 -8.59176e-09
0.027807 -3.00452e-07 -6.80115e-09
0.027807 -2.04384e-07 -5.24263e-09
0.027807 -1.38956e-07 -3.97967e-09
0.027807 -9.46519e-08 -3.00193e-09
0.027807 -6.4942e-08 -2.27574e-09
0.027807 -4.53832e-08 -1.77056e-09
0.0278069 -3.29919e-08 -1.47674e-09
0.0278069 -2.57996e-08 -1.42542e-09
0.0278069 -2.24895e-08 -1.72272e-09
0.0278069 -2.20663e-08 -2.60723e-09
0.0278069 -2.35961e-08 -4.54444e-09
0.0278069 -2.587e-08 -8.60679e-09
0.0278069 -2.69954e-08 -1.69546e-08
0.0278068 -2.40166e-08 -3.46935e-08
0.0278067 -1.57114e-08 -1.16935e-07
0.0278066 -5.04368e-09 -4.3765e-07
0.0278065 2.82951e-10 -6.88335e-07
0.0196 -9.61983e-07 -2.55548e-06
0.0196002 -0.00296579 -0.00325385
0.0190704 -0.00616452 -0.00727466
0.017933 -0.00566936 -0.00722239
0.0146823 -0.00210175 -0.00545375
0.0109024 0.00384429 -0.00355815
0.00675926 0.00347637 -0.00160224
6.02168e-05 -5.0858e-05 -0.000298937
2.08515e-05 -2.08515e-05 -9.8938e-08
-2.88591e-05 3.11538e-05 2.24758e-05
0.00408035 0.00266426 0.000309442
0.00881471 0.00304076 0.000308994
0.0148607 -0.000533762 -0.0001472
0.0201977 -0.00193124 -0.000339091
0.0237683 -0.00175903 -0.000258324
0.0257485 -0.00121321 -0.000116553
0.0267613 -0.0007694 -3.11069e-05
0.027272 -0.000478649 4.94462e-07
0.0275305 -0.000296812 7.13903e-06
0.0276613 -0.0001839 6.117e-06
0.0277272 -0.000113989 3.89802e-06
0.0277599 -7.08311e-05 2.17465e-06
0.0277758 -4.42216e-05 1.10871e-06
0.0277832 -2.77895e-05 5.17149e-07
0.0277865 -1.75981e-05 2.11868e-07
0.0277877 -1.12358e-05 6.45555e-08
0.027788 -7.23206e-06 -6.49508e-10
0.0277879 -4.69051e-06 -2.53647e-08
0.0277877 -3.06278e-06 -3.13101e-08
0.0277875 -2.01144e-06 -2.93527e-08
0.0277872 -1.32712e-06 -2.46838e-08
0.0277871 -8.78674e-07 -1.96269e-08
0.0277869 -5.83163e-07 -1.51066e-08
0.0277868 -3.8759e-07 -1.13972e-08
0.0277867 -2.57773e-07 -8.4926e-09
0.0277867 -1.71476e-07 -6.28293e-09
0.0277866 -1.14124e-07 -4.636e-09
0.0277866 -7.61003e-08 -3.43156e-09
0.0277866 -5.10208e-08 -2.57521e-09
0.0277866 -3.46109e-08 -2.00489e-09
0.0277865 -2.3949e-08 -1.69786e-09
0.0277865 -1.69251e-08 -1.68303e-09
0.0277865 -1.18149e-08 -2.06104e-09
0.0277865 -6.87264e-09 -3.0401e-09
0.0277865 1.3817e-10 -5.04093e-09
0.0277865 1.25602e-08 -9.09242e-09
0.0277864 3.58301e-08 -1.72663e-08
0.0277864 7.91708e-08 -3.41148e-08
0.0277864 1.54823e-07 -1.13694e-07
0.0277863 2.67207e-07 -4.3093e-07
0.0277862 3.32099e-07 -6.80054e-07
0.018 -5.88686e-07 -2.51461e-06
0.0180008 -0.00126653 -0.00320297
0.0185953 -0.00196756 -0.00690047
0.0192752 -0.000393445 -0.00646083
0.0190455 0.00235866 -0.00462466
0.0190177 0.00778718 -0.00300919
0.0193899 0.0128439 -0.00162492
0.0119514 0.00710721 -0.000734615
6.16335e-05 -4.00825e-05 -0.000254904
-2.3395e-05 -4.58417e-05 3.74263e-07
6.24076e-06 -0.00040124 0.000896482
0.00949516 -0.0037838 0.00126892
0.0173006 -0.00743673 0.000309622
0.0224846 -0.0070446 -0.000260549
0.0254229 -0.0047454 -0.000335491
0.0267983 -0.00269212 -0.000200823
0.0273523 -0.0014525 -8.58564e-05
0.0275531 -0.000791116 -3.04735e-05
0.0276167 -0.000439811 -9.68287e-06
0.0276305 -0.000248447 -2.87264e-06
0.0276279 -0.000142064 -8.47585e-07
0.0276212 -8.21344e-05 -3.00952e-07
0.0276145 -4.80218e-05 -1.66427e-07
0.0276091 -2.84057e-05 -1.29593e-07
0.027605 -1.70028e-05 -1.09175e-07
0.027602 -1.02976e-05 -8.95924e-08
0.0275998 -6.30746e-06 -7.05984e-08
0.0275983 -3.90416e-06 -5.38244e-08
0.0275972 -2.4394e-06 -4.0094e-08
0.0275964 -1.53655e-06 -2.94152e-08
0.0275959 -9.74229e-07 -2.13804e-08
0.0275955 -6.20751e-07 -1.5461e-08
0.0275953 -3.96808e-07 -1.11565e-08
0.0275951 -2.54046e-07 -8.05087e-09
0.027595 -1.62636e-07 -5.8209e-09
0.0275949 -1.03966e-07 -4.22539e-09
0.0275948 -6.62996e-08 -3.08949e-09
0.0275948 -4.21582e-08 -2.2904e-09
0.0275947 -2.67125e-08 -1.74687e-09
0.0275947 -1.67713e-08 -1.41358e-09
0.0275947 -1.01149e-08 -1.28102e-09
0.0275947 -5.01392e-09 -1.38248e-09
0.0275947 1.81164e-10 -1.81219e-09
0.0275946 7.47818e-09 -2.75839e-09
0.0275946 1.98251e-08 -4.59505e-09
0.0275946 4.19643e-08 -8.26818e-09
0.0275946 8.18971e-08 -1.5714e-08
0.0275946 1.54699e-07 -3.0597e-08
0.0275946 2.88954e-07 -1.02807e-07
0.0275946 5.08833e-07 -4.05873e-07
0.0275945 6.41617e-07 -6.467e-07
0.0148 -3.81183e-07 -2.17377e-06
0.0148012 -0.000353031 -0.00301513
0.0167805 8.4954e-05 -0.00621058
0.0194154 0.00191002 -0.00542974
0.0217655 0.00445444 -0.00369241
0.0238443 0.0075537 -0.00252804
0.0271616 0.0126542 -0.00164294
0.0301864 0.0201719 -0.000895203
0.0244703 0.0120893 -0.00013286
0.0251646 -9.63639e-10 0.000503386
0.0295054 -0.00719112 0.00169375
0.0344235 -0.0147169 0.00245315
0.0343605 -0.0135421 0.00143131
0.0318428 -0.00985959 0.000209395
0.0295095 -0.00588257 -0.00036042
0.0280669 -0.00303252 -0.000340916
0.0272807 -0.00147619 -0.000183485
0.0268588 -0.000725456 -7.93236e-05
0.0266283 -0.000368539 -3.12176e-05
0.0264995 -0.000193449 -1.18009e-05
0.0264261 -0.000104256 -4.38711e-06
0.0263836 -5.73562e-05 -1.61952e-06
0.0263586 -3.2075e-05 -5.93169e-07
0.0263436 -1.8179e-05 -2.11742e-07
0.0263345 -1.04194e-05 -6.93224e-08
0.0263289 -6.02884e-06 -1.63501e-08
0.0263253 -3.51582e-06 2.61477e-09
0.0263231 -2.06277e-06 8.46735e-09
0.0263217 -1.21506e-06 9.28935e-09
0.0263208 -7.16686e-07 8.29696e-09
0.0263201 -4.21889e-07 6.7937e-09
0.0263197 -2.46776e-07 5.29984e-09
0.0263195 -1.42576e-07 4.00406e-09
0.0263193 -8.06624e-08 2.95244e-09
0.0263192 -4.40839e-08 2.13109e-09
0.0263191 -2.27174e-08 1.50416e-09
0.026319 -1.04695e-08 1.03047e-09
0.026319 -3.63624e-09 6.69791e-10
0.026319 7.52259e-11 3.83627e-10
0.026319 2.14963e-09 1.32316e-10
0.0263189 3.66172e-09 -1.3139e-10
0.0263189 5.57946e-09 -4.73275e-10
0.0263189 9.05599e-09 -9.96395e-10
0.0263189 1.57952e-08 -1.87211e-09
0.0263189 2.86248e-08 -3.41402e-09
0.0263189 5.24936e-08 -6.39323e-09
0.0263189 9.61316e-08 -1.24413e-08
0.026319 1.76975e-07 -2.44559e-08
0.026319 3.39516e-07 -8.36714e-08
0.0263192 6.42463e-07 -3.48619e-07
0.0263193 8.35619e-07 -5.62368e-07
0.01 -7.20168e-07 -1.95191e-06
0.0100005 -0.000196728 -0.0025542
0.0123129 0.000289179 -0.00489993