# vtk DataFile Version 2.0
Tobias Weinzierl: CPU, Manycore and Cluster Computing
ASCII

DATASET STRUCTURED_POINTS
DIMENSIONS  51 11 6

ORIGIN 0 0 0 

SPACING 0.1 0.1 0.1 

POINT_DATA 3366

VECTORS velocity float
0 0 0
-9.65978e-11 0 0
-1.31081e-07 0 0
-2.58504e-07 0 0
-2.79163e-07 0 0
-7.52884e-08 0 0
-5.91956e-09 0 0
-7.95631e-09 0 0
-5.54613e-08 0 0
-1.2119e-07 0 0
-1.63433e-07 0 0
-1.7617e-07 0 0
-1.7334e-07 0 0
-1.67169e-07 0 0
-1.63066e-07 0 0
-1.61921e-07 0 0
-1.62705e-07 0 0
-1.64238e-07 0 0
-1.6579e-07 0 0
-1.67058e-07 0 0
-1.67984e-07 0 0
-1.68618e-07 0 0
-1.69034e-07 0 0
-1.69302e-07 0 0
-1.69476e-07 0 0
-1.69592e-07 0 0
-1.69674e-07 0 0
-1.69737e-07 0 0
-1.69789e-07 0 0
-1.69836e-07 0 0
-1.69879e-07 0 0
-1.69919e-07 0 0
-1.69958e-07 0 0
-1.69994e-07 0 0
-1.70028e-07 0 0
-1.7006e-07 0 0
-1.7009e-07 0 0
-1.70117e-07 0 0
-1.70141e-07 0 0
-1.70164e-07 0 0
-1.70184e-07 0 0
-1.70202e-07 0 0
-1.70217e-07 0 0
-1.70231e-07 0 0
-1.70243e-07 0 0
-1.70254e-07 0 0
-1.70264e-07 0 0
-1.70275e-07 0 0
-1.70288e-07 0 0
-1.7031e-07 0 0
0.00275226 0 0
0 3.56948e-07 0
-1.552e-10 6.70642e-08 0
-2.44435e-07 1.19351e-07 0
-5.01177e-07 8.82005e-08 0
-5.08051e-07 5.24875e-08 0
-1.6712e-07 6.28837e-08 0
-5.95727e-08 1.01667e-07 0
-4.65706e-08 1.01941e-07 0
-7.76025e-08 9.37546e-08 0
-1.69278e-07 7.98917e-08 0
-2.4329e-07 4.77023e-08 0
-2.73541e-07 1.86502e-08 0
-2.79781e-07 2.8802e-09 0
-2.814e-07 -2.00894e-09 0
-2.86224e-07 -1.39089e-09 0
-2.94439e-07 5.30646e-10 0
-3.03576e-07 1.77961e-09 0
-3.11674e-07 2.10567e-09 0
-3.1795e-07 1.87086e-09 0
-3.22412e-07 1.43167e-09 0
-3.25405e-07 9.92835e-10 0
-3.27334e-07 6.37312e-10 0
-3.28545e-07 3.80724e-10 0
-3.29296e-07 2.09798e-10 0
-3.29766e-07 1.03189e-10 0
-3.30067e-07 4.07858e-11 0
-3.30272e-07 6.83257e-12 0
-3.30422e-07 -9.82351e-12 0
-3.30541e-07 -1.65445e-11 0
-3.30643e-07 -1.79293e-11 0
-3.30735e-07 -1.67116e-11 0
-3.3082e-07 -1.44346e-11 0
-3.30899e-07 -1.19167e-11 0
-3.30974e-07 -9.55407e-12 0
-3.31043e-07 -7.50819e-12 0
-3.31108e-07 -5.81719e-12 0
-3.31168e-07 -4.45973e-12 0
-3.31223e-07 -3.38967e-12 0
-3.31273e-07 -2.55358e-12 0
-3.31318e-07 -1.89806e-12 0
-3.31358e-07 -1.37089e-12 0
-3.31394e-07 -9.1728e-13 0
-3.31425e-07 -4.71003e-13 0
-3.31452e-07 6.38081e-14 0
-3.31476e-07 8.49005e-13 0
-3.31497e-07 2.17336e-12 0
-3.31517e-07 4.56265e-12 0
-3.31537e-07 9.10546e-12 0
-3.31561e-07 1.83744e-11 0
-3.31599e-07 3.74577e-11 0
0.00733638 -2.14531e-07 0
0 3.00828e-08 0
-8.74489e-11 7.94903e-08 0
-1.6093e-07 9.27835e-08 0
-3.87928e-07 -2.44464e-08 0
-3.02549e-07 -2.48276e-08 0
-7.24142e-08 8.53462e-08 0
-1.08777e-07 1.39548e-07 0
-1.28285e-07 6.64876e-08 0
-1.17315e-07 8.32501e-10 0
-1.44092e-07 1.16476e-08 0
-1.88064e-07 3.23746e-08 0
-2.05553e-07 5.38092e-08 0
-2.1033e-07 6.26828e-08 0
-2.13059e-07 5.61122e-08 0
-2.20148e-07 4.38226e-08 0
-2.31403e-07 3.22602e-08 0
-2.43391e-07 2.28773e-08 0
-2.53565e-07 1.56689e-08 0
-2.61103e-07 1.03709e-08 0
-2.66224e-07 6.63898e-09 0
-2.69507e-07 4.11197e-09 0
-2.71532e-07 2.46204e-09 0
-2.72753e-07 1.42087e-09 0
-2.73484e-07 7.85114e-10 0
-2.73929e-07 4.09581e-10 0
-2.74211e-07 1.95568e-10 0
-2.74403e-07 7.8665e-11 0
-2.74546e-07 1.83155e-11 0
-2.74662e-07 -1.02149e-11 0
-2.74763e-07 -2.1565e-11 0
-2.74856e-07 -2.41418e-11 0
-2.74942e-07 -2.26169e-11 0
-2.75023e-07 -1.94845e-11 0
-2.75099e-07 -1.60044e-11 0
-2.75169e-07 -1.27585e-11 0
-2.75235e-07 -9.97055e-12 0
-2.75296e-07 -7.68458e-12 0
-2.75351e-07 -5.86191e-12 0
-2.75402e-07 -4.43088e-12 0
-2.75447e-07 -3.31011e-12 0
-2.75488e-07 -2.4161e-12 0
-2.75524e-07 -1.66023e-12 0
-2.75555e-07 -9.36466e-13 0
-2.75582e-07 -9.76795e-14 0
-2.75606e-07 1.09356e-12 0
-2.75626e-07 3.07785e-12 0
-2.75643e-07 6.66634e-12 0
-2.75659e-07 1.31343e-11 0
-2.75676e-07 2.39371e-11 0
-2.757e-07 4.18545e-11 0
0.00958214 -3.01954e-07 0
0 -4.44758e-07 0
-5.874e-11 3.17565e-08 0
-8.0006e-08 -3.87945e-08 0
-2.95405e-07 -2.23802e-07 0
-2.13839e-07 -2.36539e-07 0
1.94311e-08 -8.33218e-08 0
-5.51401e-08 -3.25493e-11 0
-8.96829e-08 -7.52396e-08 0
-2.19383e-07 -1.70229e-07 0
-2.44003e-07 -1.46109e-07 0
-2.63305e-07 -4.98958e-08 0
-2.65417e-07 4.20332e-08 0
-2.52799e-07 8.84839e-08 0
-2.30522e-07 8.70126e-08 0
-2.12449e-07 6.86132e-08 0
-2.04381e-07 4.99383e-08 0
-2.03376e-07 3.46145e-08 0
-2.05185e-07 2.29628e-08 0
-2.07347e-07 1.46255e-08 0
-2.08998e-07 8.97145e-09 0
-2.10048e-07 5.30781e-09 0
-2.10653e-07 3.02512e-09 0
-2.10986e-07 1.65212e-09 0
-2.11174e-07 8.53805e-10 0
-2.11293e-07 4.05786e-10 0
-2.11384e-07 1.64506e-10 0
-2.11467e-07 4.14679e-11 0
-2.11549e-07 -1.61688e-11 0
-2.11632e-07 -3.90461e-11 0
-2.11716e-07 -4.44271e-11 0
-2.118e-07 -4.17346e-11 0
-2.11882e-07 -3.59157e-11 0
-2.11962e-07 -2.94299e-11 0
-2.12038e-07 -2.33947e-11 0
-2.12109e-07 -1.82306e-11 0
-2.12175e-07 -1.4016e-11 0
-2.12237e-07 -1.06756e-11 0
-2.12293e-07 -8.07776e-12 0
-2.12344e-07 -6.08039e-12 0
-2.12389e-07 -4.55011e-12 0
-2.1243e-07 -3.36628e-12 0
-2.12466e-07 -2.41583e-12 0
-2.12497e-07 -1.57914e-12 0
-2.12524e-07 -7.04841e-13 0
-2.12547e-07 4.11859e-13 0
-2.12566e-07 2.03415e-12 0
-2.12582e-07 4.55442e-12 0
-2.12594e-07 8.73642e-12 0
-2.12605e-07 1.60505e-11 0
-2.12622e-07 2.82945e-11 0
0.0100643 -2.40956e-07 0
0 -8.58443e-07 0
-1.06963e-10 -3.03875e-08 0
-8.4982e-08 -1.28667e-07 0
-3.12919e-07 -2.17813e-07 0
-3.22602e-07 -1.72617e-07 0
-1.65221e-11 -5.31434e-08 0
6.50327e-11 4.68189e-12 0
-9.25245e-11 3.48403e-11 0
-1.24222e-07 -1.108e-07 0
-2.79737e-07 -1.88598e-07 0
-2.96342e-07 -8.74328e-08 0
-3.09145e-07 2.62961e-08 0
-3.10296e-07 7.65014e-08 0
-2.83897e-07 7.21656e-08 0
-2.49358e-07 5.49955e-08 0
-2.238e-07 4.02163e-08 0
-2.0922e-07 2.81203e-08 0
-2.0167e-07 1.84442e-08 0
-1.97692e-07 1.13311e-08 0
-1.9543e-07 6.5482e-09 0
-1.94053e-07 3.56069e-09 0
-1.93191e-07 1.80365e-09 0
-1.92661e-07 8.24118e-10 0
-1.92355e-07 3.07203e-10 0
-1.92198e-07 5.23652e-11 0
-1.9214e-07 -6.06368e-11 0
-1.92145e-07 -1.00639e-10 0
-1.92188e-07 -1.05507e-10 0
-1.92254e-07 -9.52552e-11 0
-1.92331e-07 -7.99736e-11 0
-1.92413e-07 -6.4414e-11 0
-1.92496e-07 -5.05589e-11 0
-1.92577e-07 -3.90192e-11 0
-1.92655e-07 -2.97728e-11 0
-1.92728e-07 -2.25423e-11 0
-1.92796e-07 -1.69791e-11 0
-1.92858e-07 -1.27467e-11 0
-1.92915e-07 -9.55315e-12 0
-1.92966e-07 -7.15813e-12 0
-1.93013e-07 -5.36964e-12 0
-1.93054e-07 -4.03537e-12 0
-1.9309e-07 -3.03299e-12 0
-1.93122e-07 -2.2626e-12 0
-1.93149e-07 -1.63937e-12 0
-1.93171e-07 -1.06217e-12 0
-1.9319e-07 -3.43084e-13 0
-1.93204e-07 8.82986e-13 0
-1.93216e-07 3.20561e-12 0
-1.93226e-07 7.36736e-12 0
-1.93242e-07 1.38607e-11 0
0.0101412 -1.26372e-07 0
0 -7.67624e-07 0
-1.48597e-10 -5.30255e-08 0
-1.01092e-07 -1.28889e-07 0
-3.23488e-07 -1.76518e-07 0
-3.93079e-07 -1.88022e-07 0
-1.34258e-07 -8.73954e-08 0
9.98533e-11 -9.13112e-11 0
-2.93776e-12 2.93776e-12 0
-1.29419e-10 5.60999e-11 0
-1.31751e-07 -8.04507e-08 0
-2.2765e-07 -8.7138e-08 0
-2.71971e-07 4.39734e-08 0
-3.31057e-07 9.45543e-08 0
-3.33153e-07 6.83377e-08 0
-2.92563e-07 3.8089e-08 0
-2.50974e-07 2.16745e-08 0
-2.23596e-07 1.25557e-08 0
-2.08107e-07 6.66337e-09 0
-1.99574e-07 2.94039e-09 0
-1.94785e-07 8.53057e-10 0
-1.92051e-07 -1.49972e-10 0
-1.90494e-07 -5.33122e-10 0
-1.8963e-07 -6.07484e-10 0
-1.89175e-07 -5.50912e-10 0
-1.88963e-07 -4.53285e-10 0
-1.88892e-07 -3.54679e-10 0
-1.88902e-07 -2.69904e-10 0
-1.88955e-07 -2.02205e-10 0
-1.89032e-07 -1.50195e-10 0
-1.89119e-07 -1.11077e-10 0
-1.8921e-07 -8.19947e-11 0
-1.89299e-07 -6.05017e-11 0
-1.89385e-07 -4.46606e-11 0
-1.89466e-07 -3.29954e-11 0
-1.89542e-07 -2.44047e-11 0
-1.89612e-07 -1.80759e-11 0
-1.89676e-07 -1.34129e-11 0
-1.89734e-07 -9.97971e-12 0
-1.89786e-07 -7.45814e-12 0
-1.89833e-07 -5.61726e-12 0
-1.89874e-07 -4.29167e-12 0
-1.89911e-07 -3.36581e-12 0
-1.89943e-07 -2.7591e-12 0
-1.8997e-07 -2.4092e-12 0
-1.89993e-07 -2.25933e-12 0
-1.90012e-07 -2.24759e-12 0
-1.90027e-07 -2.27841e-12 0
-1.90038e-07 -2.14683e-12 0
-1.90048e-07 -1.55504e-12 0
-1.90063e-07 -4.63257e-13 0
0.0101499 7.01511e-10 0
0 -5.44187e-07 0
-1.51802e-10 -5.79486e-08 0
-9.92994e-08 -1.33181e-07 0
-3.16095e-07 -1.31743e-07 0
-4.09547e-07 -9.99801e-08 0
-2.97933e-07 -7.86723e-08 0
-9.47283e-08 -3.52078e-08 0
8.95758e-11 -9.27381e-11 0
-3.80159e-11 3.80159e-11 0
-1.82729e-10 7.68614e-11 0
-8.64201e-08 2.20806e-08 0
-1.64686e-07 1.22407e-07 0
-3.14801e-07 1.64436e-07 0
-3.80704e-07 8.17069e-08 0
-3.39161e-07 1.67848e-08 0
-2.75736e-07 -5.40023e-09 0
-2.33323e-07 -9.35746e-09 0
-2.11352e-07 -8.76032e-09 0
-2.00839e-07 -7.17969e-09 0
-1.95859e-07 -5.45514e-09 0
-1.935e-07 -3.92018e-09 0
-1.92406e-07 -2.71066e-09 0
-1.91934e-07 -1.83091e-09 0
-1.91771e-07 -1.22268e-09 0
-1.91759e-07 -8.14577e-10 0
-1.91821e-07 -5.4488e-10 0
-1.91918e-07 -3.67502e-10 0
-1.92027e-07 -2.50545e-10 0
-1.9214e-07 -1.72845e-10 0
-1.92251e-07 -1.2067e-10 0
-1.92356e-07 -8.5198e-11 0
-1.92455e-07 -6.07672e-11 0
-1.92548e-07 -4.37282e-11 0
-1.92634e-07 -3.1706e-11 0
-1.92712e-07 -2.31372e-11 0
-1.92784e-07 -1.69787e-11 0
-1.9285e-07 -1.25248e-11 0
-1.92909e-07 -9.29244e-12 0
-1.92962e-07 -6.94799e-12 0
-1.9301e-07 -5.2608e-12 0
-1.93052e-07 -4.07306e-12 0
-1.93089e-07 -3.28095e-12 0
-1.93121e-07 -2.82524e-12 0
-1.93148e-07 -2.69059e-12 0
-1.93172e-07 -2.91429e-12 0
-1.93191e-07 -3.6083e-12 0
-1.93207e-07 -4.98464e-12 0
-1.93219e-07 -7.28037e-12 0
-1.93229e-07 -1.05581e-11 0
-1.93245e-07 -1.49659e-11 0
0.0101412 1.2732e-07 0
0 -3.89904e-07 0
-1.58086e-10 -6.10975e-08 0
-1.08963e-07 -1.26869e-07 0
-3.11235e-07 -1.05881e-07 0
-3.94345e-07 -5.21107e-08 0
-3.2157e-07 -3.19382e-08 0
-2.15535e-07 -7.62924e-08 0
-1.20094e-07 -5.63747e-08 0
4.6507e-11 -1.38831e-10 0
-2.13186e-10 -1.23611e-10 0
-6.31145e-11 5.77269e-08 0
-4.7678e-08 2.2813e-07 0
-1.89832e-07 2.68147e-07 0
-3.23289e-07 1.0568e-07 0
-3.32883e-07 -1.11374e-08 0
-2.82596e-07 -3.68487e-08 0
-2.41011e-07 -3.02872e-08 0
-2.20173e-07 -2.08194e-08 0
-2.12095e-07 -1.36616e-08 0
-2.09656e-07 -8.72352e-09 0
-2.09301e-07 -5.45626e-09 0
-2.09585e-07 -3.37327e-09 0
-2.09991e-07 -2.08128e-09 0
-2.10363e-07 -1.29185e-09 0
-2.10671e-07 -8.11427e-10 0
-2.10921e-07 -5.17752e-10 0
-2.11127e-07 -3.36353e-10 0
-2.11302e-07 -2.22665e-10 0
-2.11453e-07 -1.50177e-10 0
-2.11586e-07 -1.03086e-10 0
-2.11706e-07 -7.19009e-11 0
-2.11814e-07 -5.08582e-11 0
-2.11912e-07 -3.64069e-11 0
-2.12001e-07 -2.63236e-11 0
-2.12082e-07 -1.91912e-11 0
-2.12156e-07 -1.40896e-11 0
-2.12222e-07 -1.04099e-11 0
-2.12282e-07 -7.74318e-12 0
-2.12336e-07 -5.81089e-12 0
-2.12384e-07 -4.4233e-12 0
-2.12426e-07 -3.45403e-12 0
-2.12463e-07 -2.8271e-12 0
-2.12496e-07 -2.51461e-12 0
-2.12524e-07 -2.54678e-12 0
-2.12548e-07 -3.03847e-12 0
-2.12568e-07 -4.24404e-12 0
-2.12584e-07 -6.66482e-12 0
-2.12598e-07 -1.11178e-11 0
-2.12611e-07 -1.84383e-11 0
-2.12629e-07 -2.95744e-11 0
0.0100642 2.39728e-07 0
0 -3.52765e-07 0
-1.63607e-10 -5.62024e-08 0
-1.37537e-07 -1.13775e-07 0
-3.27207e-07 -8.7475e-08 0
-4.01507e-07 -3.67505e-08 0
-3.49792e-07 -9.47524e-09 0
-2.57541e-07 -3.83059e-08 0
-2.23536e-07 -1.32578e-07 0
-1.42386e-07 -9.69126e-08 0
-2.25525e-07 -2.79442e-11 0
-3.31038e-07 6.97172e-08 0
-2.40663e-07 2.29239e-07 0
-1.15315e-07 2.7017e-07 0
-1.83239e-07 1.27604e-07 0
-2.69995e-07 -3.0312e-09 0
-2.83348e-07 -3.99809e-08 0
-2.72564e-07 -3.27266e-08 0
-2.66649e-07 -1.99055e-08 0
-2.66349e-07 -1.11606e-08 0
-2.68055e-07 -6.20057e-09 0
-2.69896e-07 -3.50871e-09 0
-2.71334e-07 -2.0437e-09 0
-2.72345e-07 -1.22868e-09 0
-2.73037e-07 -7.61536e-10 0
-2.73515e-07 -4.85271e-10 0
-2.73857e-07 -3.16995e-10 0
-2.74114e-07 -2.11718e-10 0
-2.74317e-07 -1.44237e-10 0
-2.74484e-07 -1.00007e-10 0
-2.74626e-07 -7.04134e-11 0
-2.74752e-07 -5.02325e-11 0
-2.74863e-07 -3.62319e-11 0
-2.74963e-07 -2.63701e-11 0
-2.75054e-07 -1.93326e-11 0
-2.75136e-07 -1.42564e-11 0
-2.7521e-07 -1.05644e-11 0
-2.75277e-07 -7.86375e-12 0
-2.75338e-07 -5.88303e-12 0
-2.75392e-07 -4.43335e-12 0
-2.7544e-07 -3.38391e-12 0
-2.75482e-07 -2.64802e-12 0
-2.7552e-07 -2.17726e-12 0
-2.75553e-07 -1.96465e-12 0
-2.75581e-07 -2.06109e-12 0
-2.75605e-07 -2.6125e-12 0
-2.75626e-07 -3.93087e-12 0
-2.75644e-07 -6.66247e-12 0
-2.75661e-07 -1.21709e-11 0
-2.75677e-07 -2.28455e-11 0
-2.75701e-07 -4.22382e-11 0
0.00958207 2.95018e-07 0
0 -3.78676e-07 0
-1.71866e-10 -3.36331e-08 0
-1.62042e-07 -6.77395e-08 0
-3.28981e-07 -5.02857e-08 0
-3.94463e-07 -2.52954e-08 0
-3.86137e-07 -3.20897e-08 0
-3.33076e-07 -6.57848e-08 0
-3.001e-07 -1.00409e-07 0
-3.39694e-07 3.20464e-09 0
-3.48718e-07 1.8332e-07 0
-3.7122e-07 1.59074e-07 0
-2.71782e-07 -2.32344e-08 0
-1.70642e-07 -1.2202e-07 0
-2.35268e-07 -8.38045e-08 0
-3.27847e-07 -1.36508e-08 0
-3.4916e-07 2.16366e-08 0
-3.39175e-07 2.30524e-08 0
-3.30289e-07 1.40333e-08 0
-3.26864e-07 6.65114e-09 0
-3.26412e-07 2.63762e-09 0
-3.26995e-07 8.32144e-10 0
-3.2776e-07 1.23528e-10 0
-3.28433e-07 -1.11721e-10 0
-3.28964e-07 -1.63128e-10 0
-3.29371e-07 -1.51674e-10 0
-3.29686e-07 -1.23904e-10 0
-3.29937e-07 -9.6035e-11 0
-3.30143e-07 -7.26995e-11 0
-3.30316e-07 -5.44456e-11 0
-3.30466e-07 -4.05873e-11 0
-3.30597e-07 -3.02058e-11 0
-3.30714e-07 -2.24722e-11 0
-3.30818e-07 -1.67232e-11 0
-3.30912e-07 -1.24511e-11 0
-3.30997e-07 -9.27523e-12 0
-3.31073e-07 -6.91377e-12 0
-3.31142e-07 -5.15852e-12 0
-3.31203e-07 -3.85615e-12 0
-3.31258e-07 -2.8945e-12 0
-3.31307e-07 -2.19301e-12 0
-3.3135e-07 -1.697e-12 0
-3.31388e-07 -1.37591e-12 0
-3.31421e-07 -1.22695e-12 0
-3.3145e-07 -1.28754e-12 0
-3.31474e-07 -1.66554e-12 0
-3.31496e-07 -2.60084e-12 0
-3.31516e-07 -4.60718e-12 0
-3.31535e-07 -8.92989e-12 0
-3.31558e-07 -1.86081e-11 0
-3.31594e-07 -3.85973e-11 0
0.00733638 2.02204e-07 0
0 0 0
-8.60713e-11 0 0
-8.27085e-08 0 0
-1.57634e-07 0 0
-1.88408e-07 0 0
-1.9421e-07 0 0
-1.96323e-07 0 0
-1.9667e-07 0 0
-1.97341e-07 0 0
-1.23236e-07 0 0
-4.02328e-08 0 0
-3.4174e-08 0 0
-1.00028e-07 0 0
-1.75564e-07 0 0
-2.10238e-07 0 0
-2.05342e-07 0 0
-1.89531e-07 0 0
-1.77954e-07 0 0
-1.72057e-07 0 0
-1.69637e-07 0 0
-1.6886e-07 0 0
-1.68745e-07 0 0
-1.68856e-07 0 0
-1.69023e-07 0 0
-1.69186e-07 0 0
-1.6933e-07 0 0
-1.69452e-07 0 0
-1.69556e-07 0 0
-1.69646e-07 0 0
-1.69724e-07 0 0
-1.69792e-07 0 0
-1.69853e-07 0 0
-1.69907e-07 0 0
-1.69956e-07 0 0
-1.7e-07 0 0
-1.70039e-07 0 0
-1.70073e-07 0 0
-1.70105e-07 0 0
-1.70133e-07 0 0
-1.70157e-07 0 0
-1.70179e-07 0 0
-1.70198e-07 0 0
-1.70215e-07 0 0
-1.70229e-07 0 0
-1.70242e-07 0 0
-1.70253e-07 0 0
-1.70263e-07 0 0
-1.70274e-07 0 0
-1.70287e-07 0 0
-1.70309e-07 0 0
0.00275229 0 0
0 0 4.10301e-07
-1.24307e-10 0 6.3816e-08
-2.53142e-07 0 1.38855e-07
-5.71469e-07 0 5.96777e-08
-7.68045e-07 0 -2.35912e-07
-1.54405e-07 0 -3.36339e-07
8.77613e-08 0 -1.69208e-07
1.41752e-07 0 -5.26003e-08
8.25859e-08 0 1.92885e-08
-3.48479e-08 0 2.7897e-08
-1.36064e-07 0 7.09789e-09
-2.00536e-07 0 -8.92384e-09
-2.38615e-07 0 -1.20647e-08
-2.62152e-07 0 -8.44825e-09
-2.78672e-07 0 -4.03879e-09
-2.92186e-07 0 -1.07036e-09
-3.03617e-07 0 3.63188e-10
-3.12777e-07 0 8.10094e-10
-3.19618e-07 0 7.86001e-10
-3.24427e-07 0 6.05276e-10
-3.27654e-07 0 4.14601e-10
-3.29747e-07 0 2.6407e-10
-3.31073e-07 0 1.59913e-10
-3.31904e-07 0 9.32358e-11
-3.32428e-07 0 5.27283e-11
-3.32766e-07 0 2.90508e-11
-3.32994e-07 0 1.56293e-11
-3.33159e-07 0 8.21859e-12
-3.33288e-07 0 4.2241e-12
-3.33396e-07 0 2.12136e-12
-3.33491e-07 0 1.04147e-12
-3.33579e-07 0 5.0168e-13
-3.33659e-07 0 2.39904e-13
-3.33735e-07 0 1.17149e-13
-3.33805e-07 0 6.15135e-14
-3.3387e-07 0 3.68716e-14
-3.3393e-07 0 2.57365e-14
-3.33985e-07 0 2.00873e-14
-3.34035e-07 0 1.6575e-14
-3.3408e-07 0 1.41156e-14
-3.3412e-07 0 1.28342e-14
-3.34156e-07 0 1.395e-14
-3.34187e-07 0 2.08759e-14
-3.34215e-07 0 4.40152e-14
-3.34239e-07 0 1.15791e-13
-3.3426e-07 0 3.19728e-13
-3.3428e-07 0 8.7245e-13
-3.34301e-07 0 2.50527e-12
-3.34326e-07 0 7.58692e-12
-3.34365e-07 0 2.11349e-11
0.00732838 0 -1.20496e-07
0.0036 5.70771e-08 1.31921e-07
0.00359971 -0.0016232 -0.000306179
0.00752348 -0.0050039 -0.00128129
0.0156753 -0.00846454 -0.00299352
0.0274261 -0.0131885 -0.00482627
0.046525 -0.0092636 -0.00352988
0.0488369 -0.000306747 -0.00063801
0.048194 0.00334874 0.000565267
0.0428816 0.00513704 0.000752226
0.0372684 0.00486336 0.000242595
0.0323038 0.00391211 -0.000206033
0.0282548 0.00288185 -0.000360715
0.0252495 0.00198693 -0.000310203
0.0232024 0.00130657 -0.000196848
0.0218807 0.000837138 -0.000101959
0.0210532 0.000528021 -4.45491e-05
0.0205469 0.000327804 -1.60796e-05
0.020244 0.000199879 -4.06877e-06
0.0200665 0.000119611 1.26409e-07
0.0199648 7.02618e-05 1.12461e-06
0.0199079 4.05284e-05 1.03676e-06
0.0198768 2.29537e-05 7.03984e-07
0.0198603 1.27537e-05 4.05329e-07
0.0198519 6.93859e-06 2.0076e-07
0.0198478 3.68343e-06 7.90646e-08
0.0198461 1.89669e-06 1.44024e-08
0.0198454 9.3758e-07 -1.56622e-08
0.0198453 4.36425e-07 -2.66057e-08
0.0198454 1.8356e-07 -2.79356e-08
0.0198456 6.21206e-08 -2.50371e-08
0.0198458 8.18254e-09 -2.07421e-08
0.0198459 -1.24798e-08 -1.64126e-08
0.0198461 -1.77187e-08 -1.2615e-08
0.0198462 -1.65334e-08 -9.513e-09
0.0198462 -1.32459e-08 -7.08461e-09
0.0198463 -9.77809e-09 -5.23571e-09
0.0198463 -6.87068e-09 -3.85601e-09
0.0198464 -4.71989e-09 -2.84429e-09
0.0198464 -3.30195e-09 -2.11866e-09
0.0198464 -2.535e-09 -1.62033e-09
0.0198464 -2.36202e-09 -1.31614e-09
0.0198464 -2.8037e-09 -1.20278e-09
0.0198464 -4.01482e-09 -1.31462e-09
0.0198464 -6.37334e-09 -1.73132e-09
0.0198464 -1.06696e-08 -2.59875e-09
0.0198465 -1.86037e-08 -4.24837e-09
0.0198465 -3.32754e-08 -6.7647e-09
0.0198466 -6.1035e-08 -9.83323e-09
0.0198467 -1.42451e-07 -4.2166e-08
0.019847 -3.93575e-07 -2.11434e-07
0.0198475 -5.81597e-07 -3.50041e-07
0.01 4.77359e-08 -6.99471e-07
0.0100009 -0.00358456 -0.000779367
0.0151208 -0.0112074 -0.00216262
0.0241508 -0.0186245 -0.00381565
0.0368117 -0.0285477 -0.00442119
0.0559205 -0.0193303 -0.0012161
0.0545151 -0.00107303 0.00178545
0.0549311 0.00592174 0.00218072
0.0493027 0.0108106 0.00185605
0.0434016 0.0106538 0.000755132
0.0383533 0.0092226 -0.0001736
0.0341558 0.00727295 -0.000522706
0.0310815 0.0052132 -0.000485442
0.0290912 0.00346274 -0.000318696
0.0278722 0.00219454 -0.00016809
0.0271461 0.00135173 -7.43668e-05
0.0267246 0.000814402 -2.71031e-05
0.0264869 0.00048075 -6.80037e-06
0.0263569 0.000278132 4.9055e-07
0.0262884 0.000157611 2.33292e-06
0.026254 8.7338e-05 2.24285e-06
0.0262377 4.71666e-05 1.66258e-06
0.0262309 2.46714e-05 1.09832e-06
0.0262286 1.23581e-05 6.7867e-07
0.0262285 5.79702e-06 4.00882e-07
0.0262292 2.41972e-06 2.28837e-07
0.0262301 7.63868e-07 1.26884e-07
0.026231 1.26765e-08 6.84124e-08
0.0262318 -2.80759e-07 3.57666e-08
0.0262324 -3.55123e-07 1.79822e-08
0.0262328 -3.34062e-07 8.53576e-09
0.0262332 -2.78986e-07 3.66362e-09
0.0262334 -2.18483e-07 1.2464e-09
0.0262336 -1.64394e-07 1.1506e-10
0.0262337 -1.20412e-07 -3.62839e-10
0.0262338 -8.65697e-08 -5.22771e-10
0.0262339 -6.14846e-08 -5.39129e-10
0.0262339 -4.34371e-08 -5.01187e-10
0.0262339 -3.08428e-08 -4.55487e-10
0.026234 -2.24345e-08 -4.30217e-10
0.026234 -1.73222e-08 -4.50651e-10
0.026234 -1.50252e-08 -5.50834e-10
0.026234 -1.55495e-08 -7.85394e-10
0.026234 -1.95898e-08 -1.23659e-09
0.026234 -2.8919e-08 -1.9789e-09
0.0262341 -4.74938e-08 -3.14024e-09
0.0262341 -8.65058e-08 -5.20753e-09
0.0262342 -1.71771e-07 -9.63973e-09
0.0262343 -3.32085e-07 -5.94225e-08
0.0262345 -6.06693e-07 -3.09917e-07
0.0262347 -7.79577e-07 -5.13759e-07
0.0148 -7.03186e-07 -9.22983e-07
0.014802 -0.00562967 -0.00128772
0.0195822 -0.0165705 -0.00352533
0.0255381 -0.0268396 -0.00541234
0.0298299 -0.0409278 -0.00500564
0.0283611 -0.025043 -0.000792191
0.0260828 -8.11158e-06 0.00189955
0.0263382 0.00776437 0.00202818
0.0311102 0.0161916 0.00192641
0.031164 0.0158079 0.000999452
0.0297266 0.0134306 0.00014171
0.0284482 0.010466 -0.000286283
0.0276693 0.00728869 -0.000338758
0.0274001 0.00465829 -0.000237199
0.0273529 0.00285286 -0.000119574
0.0273782 0.00170447 -4.21599e-05
0.0274239 0.000995963 -4.80542e-06
0.0274716 0.00056856 8.36255e-06
0.0275137 0.000316615 1.04044e-05
0.0275474 0.000171549 8.56045e-06
0.0275728 8.99725e-05 6.02248e-06
0.027591 4.52151e-05 3.89323e-06
0.0276037 2.13287e-05 2.38559e-06
0.0276123 9.00855e-06 1.40818e-06
0.0276182 2.94539e-06 8.0808e-07
0.0276221 1.72933e-07 4.53106e-07
0.0276247 -9.30791e-07 2.48827e-07
0.0276264 -1.23171e-06 1.33821e-07
0.0276276 -1.17877e-06 7.0294e-08
0.0276283 -9.9563e-07 3.58353e-08
0.0276289 -7.87204e-07 1.75019e-08
0.0276292 -5.97713e-07 7.9693e-09
0.0276294 -4.41709e-07 3.16091e-09
0.0276296 -3.20234e-07 8.41346e-10
0.0276297 -2.28955e-07 -1.97554e-10
0.0276298 -1.62061e-07 -5.98771e-10
0.0276298 -1.1398e-07 -6.98666e-10
0.0276299 -8.0023e-08 -6.70092e-10
0.0276299 -5.65221e-08 -6.01242e-10
0.0276299 -4.07739e-08 -5.39588e-10
0.0276299 -3.09309e-08 -5.17667e-10
0.0276299 -2.59308e-08 -5.69569e-10
0.0276299 -2.55212e-08 -7.40363e-10
0.0276299 -3.05092e-08 -1.09667e-09
0.0276299 -4.36283e-08 -1.79777e-09
0.02763 -7.07477e-08 -3.39469e-09
0.02763 -1.19432e-07 -7.54267e-09
0.02763 -1.97935e-07 -1.87789e-08
0.02763 -3.1909e-07 -8.53046e-08
0.02763 -4.99403e-07 -3.66586e-07
0.02763 -6.06439e-07 -5.89618e-07
0.018 -1.53404e-06 -1.15379e-06
0.0180019 -0.00657738 -0.00209516
0.0199593 -0.0174011 -0.00570245
0.0198086 -0.0224685 -0.0071123
0.0159334 -0.0242 -0.00637434
-8.43439e-07 -0.0125617 -0.00287018
7.84013e-05 2.6286e-05 4.42168e-07
-3.03594e-05 3.20485e-05 0.000384489
0.00759669 0.00537241 0.00077031
0.0159205 0.0118801 0.000633769
0.0192379 0.0120572 0.000283922
0.0208251 0.00953394 -6.34655e-05
0.0225541 0.00643564 -0.000208623
0.024222 0.0038888 -0.000171337
0.0255098 0.00226824 -8.11575e-05
0.0263878 0.00129709 -1.47374e-05
0.0269529 0.000721078 1.54927e-05
0.0273069 0.000385881 2.2376e-05
0.0275252 0.000196943 1.92844e-05
0.0276582 9.43811e-05 1.3789e-05
0.0277382 4.09703e-05 8.92436e-06
0.027786 1.45051e-05 5.42635e-06
0.0278142 2.27475e-06 3.15961e-06
0.0278308 -2.73517e-06 1.78015e-06
0.0278406 -4.26879e-06 9.75417e-07
0.0278463 -4.25761e-06 5.2036e-07
0.0278496 -3.65844e-06 2.69471e-07
0.0278516 -2.91889e-06 1.34315e-07
0.0278528 -2.22914e-06 6.3251e-08
0.0278535 -1.65462e-06 2.69614e-08
0.0278539 -1.20416e-06 9.15862e-09
0.0278541 -8.63838e-07 9.57753e-10
0.0278543 -6.13026e-07 -2.40348e-09
0.0278544 -4.31418e-07 -3.42968e-09
0.0278544 -3.01657e-07 -3.40781e-09
0.0278545 -2.09935e-07 -2.97868e-09
0.0278545 -1.45723e-07 -2.44689e-09
0.0278545 -1.01235e-07 -1.94707e-09
0.0278545 -7.08453e-08 -1.5325e-09
0.0278545 -5.06015e-08 -1.22271e-09
0.0278545 -3.78444e-08 -1.03088e-09
0.0278545 -3.09662e-08 -9.8463e-10
0.0278545 -2.9322e-08 -1.15364e-09
0.0278545 -3.32172e-08 -1.69539e-09
0.0278545 -4.36076e-08 -2.99068e-09
0.0278545 -6.16628e-08 -6.10763e-09
0.0278545 -8.90342e-08 -1.30243e-08
0.0278544 -1.27979e-07 -2.76899e-08
0.0278544 -1.84668e-07 -1.00025e-07
0.0278543 -2.66816e-07 -3.89642e-07
0.0278542 -3.14957e-07 -6.16943e-07
0.0196 -1.89473e-06 -1.93025e-06
0.0196006 -0.0051278 -0.00287041
0.0190695 -0.0116442 -0.00703945
0.0163491 -0.0138919 -0.00749772
0.0118118 -0.0122554 -0.00623216
0.00256164 -0.00488176 -0.0036373
5.95759e-05 -5.49473e-05 -0.000731956
2.45879e-05 -2.45879e-05 -3.86215e-08
-2.94628e-05 3.12559e-05 9.63075e-05
0.00534387 0.0040185 0.000204426
0.0118302 0.0085034 0.000163538
0.0146307 0.00722636 -4.80034e-05
0.0181318 0.00400575 -0.00024501
0.0214868 0.00178861 -0.000238785
0.0240031 0.000727454 -0.000135541
0.0256235 0.000269478 -4.0995e-05
0.0265916 7.03052e-05 7.48786e-06
0.0271526 -1.38884e-05 2.12313e-05
0.0274731 -4.33974e-05 1.95021e-05
0.0276545 -4.76257e-05 1.38214e-05
0.0277562 -4.17357e-05 8.66589e-06
0.0278126 -3.30982e-05 5.05361e-06
0.0278438 -2.48642e-05 2.80362e-06
0.0278607 -1.80891e-05 1.49412e-06
0.0278699 -1.29013e-05 7.65804e-07
0.0278749 -9.08576e-06 3.74693e-07
0.0278775 -6.34628e-06 1.71299e-07
0.0278788 -4.40848e-06 6.92248e-08
0.0278795 -3.05068e-06 2.03834e-08
0.0278798 -2.10512e-06 -1.26759e-09
0.02788 -1.44937e-06 -9.51123e-09
0.02788 -9.95967e-07 -1.14778e-08
0.02788 -6.83195e-07 -1.07577e-08
0.02788 -4.6788e-07 -9.09333e-09
0.02788 -3.19965e-07 -7.28212e-09
0.02788 -2.18602e-07 -5.6521e-09
0.02788 -1.49375e-07 -4.30791e-09
0.02788 -1.02342e-07 -3.25619e-09
0.02788 -7.06796e-08 -2.46875e-09
0.02788 -4.97373e-08 -1.91559e-09
0.02788 -3.6392e-08 -1.58583e-09
0.02788 -2.85856e-08 -1.50903e-09
0.02788 -2.49456e-08 -1.78987e-09
0.02788 -2.44313e-08 -2.6617e-09
0.0278799 -2.60597e-08 -4.5495e-09
0.0278799 -2.85599e-08 -8.38344e-09
0.0278799 -2.99303e-08 -1.59403e-08
0.0278798 -2.69339e-08 -3.07853e-08
0.0278798 -1.79378e-08 -1.03529e-07
0.0278797 -5.86005e-09 -3.94489e-07
0.0278796 3.12408e-10 -6.22623e-07
0.0196 -9.63568e-07 -2.60123e-06
0.0196002 -0.00303074 -0.00318624
0.0190571 -0.0063223 -0.00709091
0.0178671 -0.00585225 -0.00709522
0.0145034 -0.00225741 -0.00554725
0.010723 0.00374175 -0.00376039
0.00669298 0.00343944 -0.00172002
5.96134e-05 -5.02811e-05 -0.000319046
2.08183e-05 -2.08183e-05 -9.93018e-08
-2.83824e-05 3.05432e-05 2.55573e-05
0.00400885 0.00274133 0.000321897
0.00868036 0.00328689 0.000335503
0.0145651 -0.000281047 -0.000125634
0.019856 -0.0018537 -0.000349642
0.0235329 -0.00179469 -0.000289597
0.0256396 -0.00126615 -0.000141141
0.0267352 -0.00080817 -4.1779e-05
0.0272909 -0.000503859 -1.88707e-06
0.027573 -0.000313218 7.66107e-06
0.0277162 -0.000194623 7.11705e-06
0.0277885 -0.000120927 4.67694e-06
0.0278246 -7.52533e-05 2.66006e-06
0.0278421 -4.70061e-05 1.38026e-06
0.0278504 -2.95311e-05 6.58659e-07
0.0278541 -1.86862e-05 2.81207e-07
0.0278555 -1.19182e-05 9.61728e-08
0.0278559 -7.66335e-06 1.22215e-08
0.0278559 -4.96605e-06 -2.13103e-08
0.0278557 -3.24113e-06 -3.10899e-08
0.0278555 -2.12855e-06 -3.05736e-08
0.0278552 -1.40518e-06 -2.62604e-08
0.0278551 -9.315e-07 -2.1111e-08
0.0278549 -6.1944e-07 -1.63481e-08
0.0278548 -4.1285e-07 -1.2376e-08
0.0278547 -2.75592e-07 -9.2386e-09
0.0278547 -1.84203e-07 -6.84025e-09
0.0278546 -1.23328e-07 -5.04757e-09
0.0278546 -8.28475e-08 -3.73395e-09
0.0278546 -5.60549e-08 -2.79782e-09
0.0278545 -3.84655e-08 -2.17109e-09
0.0278545 -2.70244e-08 -1.82706e-09
0.0278545 -1.95417e-08 -1.79301e-09
0.0278545 -1.4255e-08 -2.16885e-09
0.0278545 -9.42218e-09 -3.1544e-09
0.0278545 -2.86021e-09 -5.122e-09
0.0278545 8.64728e-09 -8.95313e-09
0.0278544 3.03048e-08 -1.63503e-08
0.0278544 7.11305e-08 -3.03158e-08
0.0278544 1.43573e-07 -1.00274e-07
0.0278543 2.52341e-07 -3.87688e-07
0.0278542 3.15328e-07 -6.14314e-07
0.018 -5.91793e-07 -2.55477e-06
0.0180008 -0.00134945 -0.0031365
0.0185684 -0.00215 -0.00673057
0.0191658 -0.000559683 -0.00633232
0.0188669 0.00226587 -0.00466236
0.0188491 0.00775738 -0.00314627
0.0192546 0.0127994 -0.00173031
0.0118666 0.00706641 -0.000778671
6.10108e-05 -3.95514e-05 -0.000267825
-2.29768e-05 -4.53147e-05 3.78217e-07
6.19586e-06 -0.000299569 0.000901829
0.00948311 -0.00341253 0.0013232
0.0172163 -0.00703392 0.000402308
0.0223186 -0.00696523 -0.000215651
0.0252897 -0.00489513 -0.000352095
0.0267444 -0.0028538 -0.000232111
0.0273528 -0.001555 -0.00010579
0.0275786 -0.000847884 -3.93034e-05
0.0276514 -0.000471126 -1.29553e-05
0.0276677 -0.000266069 -3.98324e-06
0.0276654 -0.0001521 -1.21399e-06
0.0276582 -8.78819e-05 -4.27348e-07
0.027651 -5.13281e-05 -2.1779e-07
0.0276452 -3.032e-05 -1.56835e-07
0.0276408 -1.81213e-05 -1.27232e-07
0.0276376 -1.09588e-05 -1.02793e-07
0.0276353 -6.70385e-06 -8.04155e-08
0.0276337 -4.1457e-06 -6.10407e-08
0.0276325 -2.58929e-06 -4.53102e-08
0.0276318 -1.63141e-06 -3.31328e-08
0.0276312 -1.03553e-06 -2.40045e-08
0.0276308 -6.61202e-07 -1.73031e-08
0.0276305 -4.24063e-07 -1.24472e-08
0.0276304 -2.7278e-07 -8.95614e-09
0.0276302 -1.75756e-07 -6.45784e-09
0.0276301 -1.13316e-07 -4.6759e-09
0.0276301 -7.30765e-08 -3.41061e-09
0.02763 -4.71589e-08 -2.52195e-09
0.02763 -3.04834e-08 -1.91705e-09
0.02763 -1.97025e-08 -1.54316e-09
0.02763 -1.25021e-08 -1.38631e-09
0.0276299 -7.10534e-09 -1.47716e-09
0.0276299 -1.85898e-09 -1.90707e-09
0.0276299 5.19329e-09 -2.85363e-09
0.0276299 1.68638e-08 -4.64014e-09
0.0276299 3.76162e-08 -8.06542e-09
0.0276299 7.48946e-08 -1.47312e-08
0.0276299 1.42878e-07 -2.68401e-08
0.0276299 2.6968e-07 -8.94192e-08
0.0276299 4.79073e-07 -3.62983e-07
0.0276298 6.05739e-07 -5.81739e-07
0.0148 -3.75118e-07 -2.20811e-06
0.0148012 -0.000441977 -0.00294854
0.016709 -0.000100096 -0.00605654
0.0192298 0.00176728 -0.00531913
0.0215229 0.00440699 -0.00370155
0.0236243 0.00756885 -0.00260894
0.0269995 0.0126613 -0.00171678
0.030031 0.0200898 -0.000933416
0.0243499 0.0120161 -0.000134921
0.0249371 -8.20476e-11 0.000500726
0.029106 -0.00712239 0.00164977
0.0340798 -0.0144312 0.00249321
0.0343692 -0.0131682 0.00162526
0.0320491 -0.009731 0.000386061
0.0296816 -0.00600532 -0.000319453
0.028144 -0.00319571 -0.000376091
0.0272872 -0.00158135 -0.000220501
0.026824 -0.000779494 -0.000100035
0.0265708 -0.000394819 -4.06048e-05
0.0264296 -0.000206367 -1.57122e-05
0.0263495 -0.000110806 -5.96719e-06
0.0263033 -6.07941e-05 -2.25625e-06
0.0262762 -3.39395e-05 -8.54492e-07
0.0262601 -1.92202e-05 -3.23019e-07
0.0262504 -1.10162e-05 -1.19273e-07
0.0262444 -6.37911e-06 -4.02179e-08
0.0262407 -3.7262e-06 -9.53633e-09
0.0262383 -2.19211e-06 1.92038e-09
0.0262368 -1.29652e-06 5.59329e-09
0.0262359 -7.69276e-07 6.13038e-09
0.0262352 -4.56702e-07 5.48275e-09
0.0262348 -2.70389e-07 4.48297e-09
0.0262346 -1.58963e-07 3.47967e-09
0.0262344 -9.22727e-08 2.60513e-09
0.0262343 -5.24617e-08 1.89339e-09
0.0262342 -2.8861e-08 1.33584e-09
0.0262341 -1.50419e-08 9.07016e-10
0.0262341 -7.09088e-09 5.75823e-10
0.0262341 -2.58244e-09 3.09071e-10
0.026234 5.14649e-11 7.0158e-11
0.026234 1.93426e-09 -1.86358e-10
0.026234 4.05307e-09 -5.24612e-10
0.026234 7.54611e-09 -1.04418e-09
0.026234 1.40491e-08 -1.90434e-09
0.026234 2.62251e-08 -3.36986e-09
0.026234 4.86877e-08 -6.0717e-09
0.026234 8.94691e-08 -1.13419e-08
0.0262341 1.6444e-07 -2.08841e-08
0.0262341 3.15687e-07 -7.12531e-08
0.0262343 5.9731e-07 -3.09089e-07
0.0262344 7.76467e-07 -5.02657e-07
0.01 -7.15541e-07 -1.9761e-06
0.0100006 -0.000258644 -0.00249181
0.0121697 0.000172928 -0.00477771
0.015376 0.00145124 -0.00375913
0.0189296 0.00306485 -0.00240197