# vtk DataFile Version 2.0
Tobias Weinzierl: CPU, Manycore and Cluster Computing
ASCII

DATASET STRUCTURED_POINTS
DIMENSIONS  51 11 6

ORIGIN 0 0 0 

SPACING 0.1 0.1 0.1 

POINT_DATA 3366

VECTORS velocity float
0 0 0
6.22535e-10 0 0
-1.27697e-07 0 0
-2.53736e-07 0 0
-2.74217e-07 0 0
-6.99609e-08 0 0
4.16974e-10 0 0
-5.91734e-10 0 0
-4.75702e-08 0 0
-1.13274e-07 0 0
-1.55781e-07 0 0
-1.68626e-07 0 0
-1.6557e-07 0 0
-1.58916e-07 0 0
-1.54202e-07 0 0
-1.52398e-07 0 0
-1.52519e-07 0 0
-1.53398e-07 0 0
-1.54313e-07 0 0
-1.54962e-07 0 0
-1.55288e-07 0 0
-1.5534e-07 0 0
-1.55193e-07 0 0
-1.54919e-07 0 0
-1.54569e-07 0 0
-1.54182e-07 0 0
-1.5378e-07 0 0
-1.5338e-07 0 0
-1.52989e-07 0 0
-1.52612e-07 0 0
-1.52251e-07 0 0
-1.51908e-07 0 0
-1.51584e-07 0 0
-1.51277e-07 0 0
-1.50988e-07 0 0
-1.50717e-07 0 0
-1.50464e-07 0 0
-1.50227e-07 0 0
-1.50008e-07 0 0
-1.49805e-07 0 0
-1.49619e-07 0 0
-1.4945e-07 0 0
-1.49297e-07 0 0
-1.49161e-07 0 0
-1.49041e-07 0 0
-1.48939e-07 0 0
-1.48855e-07 0 0
-1.48789e-07 0 0
-1.48745e-07 0 0
-1.48727e-07 0 0
0.00274653 0 0
0 3.56151e-07 0
1.26615e-09 6.55208e-08 0
-2.37723e-07 1.17005e-07 0
-4.91565e-07 8.65583e-08 0
-4.97995e-07 5.11528e-08 0
-1.55773e-07 6.19415e-08 0
-4.64623e-08 1.01448e-07 0
-3.23431e-08 1.02654e-07 0
-6.33245e-08 9.5066e-08 0
-1.54966e-07 8.14055e-08 0
-2.29273e-07 4.91195e-08 0
-2.59504e-07 1.96587e-08 0
-2.6506e-07 3.43022e-09 0
-2.65534e-07 -1.78087e-09 0
-2.69025e-07 -1.33354e-09 0
-2.75872e-07 5.16043e-10 0
-2.83665e-07 1.74157e-09 0
-2.90454e-07 2.06364e-09 0
-2.95457e-07 1.83172e-09 0
-2.98683e-07 1.39763e-09 0
-3.00477e-07 9.64345e-10 0
-3.01245e-07 6.1412e-10 0
-3.01332e-07 3.6226e-10 0
-3.00999e-07 1.95375e-10 0
-3.00422e-07 9.21097e-11 0
-2.99718e-07 3.24027e-11 0
-2.98956e-07 5.74402e-13 0
-2.98179e-07 -1.44395e-11 0
-2.97411e-07 -1.9914e-11 0
-2.96666e-07 -2.03688e-11 0
-2.95951e-07 -1.84683e-11 0
-2.9527e-07 -1.56978e-11 0
-2.94623e-07 -1.2829e-11 0
-2.94012e-07 -1.02206e-11 0
-2.93436e-07 -8.00521e-12 0
-2.92895e-07 -6.19869e-12 0
-2.92389e-07 -4.76314e-12 0
-2.91916e-07 -3.64022e-12 0
-2.91478e-07 -2.76775e-12 0
-2.91073e-07 -2.08633e-12 0
-2.90701e-07 -1.53989e-12 0
-2.90363e-07 -1.07162e-12 0
-2.90057e-07 -6.14925e-13 0
-2.89785e-07 -7.55339e-14 0
-2.89546e-07 7.03944e-13 0
-2.89341e-07 2.00269e-12 0
-2.89172e-07 4.32577e-12 0
-2.89039e-07 8.71304e-12 0
-2.88948e-07 1.76066e-11 0
-2.88907e-07 3.56738e-11 0
0.00732522 -2.12837e-07 0
0 2.89539e-08 0
1.26757e-09 7.72318e-08 0
-1.54829e-07 8.92485e-08 0
-3.78877e-07 -2.78957e-08 0
-2.93279e-07 -2.93999e-08 0
-5.90782e-08 8.1938e-08 0
-9.24848e-08 1.39926e-07 0
-1.12007e-07 7.04198e-08 0
-1.04028e-07 5.46935e-09 0
-1.31569e-07 1.47072e-08 0
-1.75818e-07 3.41024e-08 0
-1.93079e-07 5.46425e-08 0
-1.96902e-07 6.30601e-08 0
-1.98252e-07 5.62842e-08 0
-2.03834e-07 4.38785e-08 0
-2.13613e-07 3.2248e-08 0
-2.24199e-07 2.28314e-08 0
-2.33039e-07 1.561e-08 0
-2.39295e-07 1.03103e-08 0
-2.43177e-07 6.58264e-09 0
-2.45261e-07 4.06261e-09 0
-2.46126e-07 2.42053e-09 0
-2.46224e-07 1.38706e-09 0
-2.45872e-07 7.58276e-10 0
-2.45272e-07 3.88745e-10 0
-2.44548e-07 1.79704e-10 0
-2.43774e-07 6.67972e-11 0
-2.42991e-07 9.57792e-12 0
-2.42221e-07 -1.65543e-11 0
-2.41476e-07 -2.61035e-11 0
-2.40762e-07 -2.7353e-11 0
-2.40082e-07 -2.48676e-11 0
-2.39437e-07 -2.10524e-11 0
-2.38827e-07 -1.70959e-11 0
-2.38253e-07 -1.3524e-11 0
-2.37713e-07 -1.0517e-11 0
-2.37208e-07 -8.08648e-12 0
-2.36736e-07 -6.16975e-12 0
-2.36299e-07 -4.6778e-12 0
-2.35894e-07 -3.51716e-12 0
-2.35523e-07 -2.59641e-12 0
-2.35185e-07 -1.82229e-12 0
-2.34879e-07 -1.08695e-12 0
-2.34607e-07 -2.44229e-13 0
-2.34367e-07 9.38872e-13 0
-2.34162e-07 2.89333e-12 0
-2.3399e-07 6.41299e-12 0
-2.33854e-07 1.27433e-11 0
-2.33755e-07 2.32932e-11 0
-2.33702e-07 4.08193e-11 0
0.00957287 -3.0016e-07 0
0 -4.45965e-07 0
1.16749e-09 2.9741e-08 0
-7.48656e-08 -4.17693e-08 0
-2.87664e-07 -2.27083e-07 0
-2.07359e-07 -2.43936e-07 0
2.6666e-08 -9.08069e-08 0
-4.55872e-08 -1.98993e-10 0
-8.01787e-08 -6.66808e-08 0
-2.07503e-07 -1.59723e-07 0
-2.32704e-07 -1.4017e-07 0
-2.52045e-07 -4.72594e-08 0
-2.5363e-07 4.28224e-08 0
-2.39913e-07 8.8601e-08 0
-2.1622e-07 8.69819e-08 0
-1.96575e-07 6.85271e-08 0
-1.86946e-07 4.98265e-08 0
-1.8447e-07 3.44993e-08 0
-1.849e-07 2.28538e-08 0
-1.85757e-07 1.45264e-08 0
-1.86156e-07 8.88409e-09 0
-1.86001e-07 5.23315e-09 0
-1.85442e-07 2.96318e-09 0
-1.84652e-07 1.60213e-09 0
-1.83757e-07 8.14435e-10 0
-1.82832e-07 3.75451e-10 0
-1.81919e-07 1.41584e-10 0
-1.81036e-07 2.44505e-11 0
-1.80193e-07 -2.85996e-11 0
-1.7939e-07 -4.79902e-11 0
-1.78629e-07 -5.07714e-11 0
-1.77907e-07 -4.61749e-11 0
-1.77224e-07 -3.89861e-11 0
-1.76578e-07 -3.1532e-11 0
-1.75969e-07 -2.48248e-11 0
-1.75395e-07 -1.92035e-11 0
-1.74856e-07 -1.4684e-11 0
-1.74351e-07 -1.11447e-11 0
-1.7388e-07 -8.41943e-12 0
-1.73443e-07 -6.34149e-12 0
-1.73039e-07 -4.76024e-12 0
-1.72667e-07 -3.54352e-12 0
-1.72329e-07 -2.5712e-12 0
-1.72024e-07 -1.72013e-12 0
-1.71751e-07 -8.38399e-13 0
-1.71511e-07 2.76599e-13 0
-1.71305e-07 1.88259e-12 0
-1.71131e-07 4.36143e-12 0
-1.70991e-07 8.46148e-12 0
-1.70887e-07 1.56389e-11 0
-1.70826e-07 2.77155e-11 0
0.0100571 -2.39744e-07 0
0 -8.59862e-07 0
9.86143e-10 -3.17527e-08 0
-8.05527e-08 -1.30639e-07 0
-3.06396e-07 -2.19785e-07 0
-3.18446e-07 -1.76323e-07 0
-1.47752e-09 -5.87524e-08 0
2.04955e-08 1.41691e-08 0
-1.46829e-08 1.97909e-08 0
-1.1915e-07 -1.03683e-07 0
-2.71311e-07 -1.81543e-07 0
-2.87056e-07 -8.41898e-08 0
-2.98177e-07 2.72234e-08 0
-2.97623e-07 7.65896e-08 0
-2.69695e-07 7.20301e-08 0
-2.3357e-07 5.47446e-08 0
-2.06414e-07 3.9941e-08 0
-1.90324e-07 2.78782e-08 0
-1.81369e-07 1.82453e-08 0
-1.76068e-07 1.11684e-08 0
-1.72546e-07 6.41498e-09 0
-1.69959e-07 3.45249e-09 0
-1.67932e-07 1.71721e-09 0
-1.6628e-07 7.56374e-10 0
-1.64891e-07 2.55135e-10 0
-1.63693e-07 1.30623e-11 0
-1.62632e-07 -8.98181e-11 0
-1.61673e-07 -1.21979e-10 0
-1.60793e-07 -1.20892e-10 0
-1.59974e-07 -1.06196e-10 0
-1.59206e-07 -8.76502e-11 0
-1.58483e-07 -6.97295e-11 0
-1.57801e-07 -5.41926e-11 0
-1.57157e-07 -4.1474e-11 0
-1.5655e-07 -3.14155e-11 0
-1.55978e-07 -2.36362e-11 0
-1.5544e-07 -1.77097e-11 0
-1.54937e-07 -1.32423e-11 0
-1.54467e-07 -9.89974e-12 0
-1.5403e-07 -7.41198e-12 0
-1.53627e-07 -5.56597e-12 0
-1.53256e-07 -4.19531e-12 0
-1.52918e-07 -3.16864e-12 0
-1.52613e-07 -2.3809e-12 0
-1.5234e-07 -1.74516e-12 0
-1.521e-07 -1.16111e-12 0
-1.51893e-07 -4.44438e-13 0
-1.51719e-07 7.6429e-13 0
-1.51578e-07 3.04901e-12 0
-1.51473e-07 7.15307e-12 0
-1.5141e-07 1.35864e-11 0
0.0101347 -1.25773e-07 0
0 -7.68767e-07 0
8.93911e-10 -5.36491e-08 0
-9.70933e-08 -1.29763e-07 0
-3.17388e-07 -1.77107e-07 0
-3.88673e-07 -1.88027e-07 0
-1.33682e-07 -8.70495e-08 0
2.0886e-08 -1.993e-08 0
5.23916e-09 -5.23916e-09 0
-1.26275e-08 1.67328e-08 0
-1.28403e-07 -7.59789e-08 0
-2.2167e-07 -8.44427e-08 0
-2.62083e-07 4.38293e-08 0
-3.18255e-07 9.39883e-08 0
-3.18739e-07 6.79452e-08 0
-2.76726e-07 3.76837e-08 0
-2.33583e-07 2.12684e-08 0
-2.04678e-07 1.22091e-08 0
-1.87765e-07 6.3849e-09 0
-1.77902e-07 2.71775e-09 0
-1.7185e-07 6.75368e-10 0
-1.67909e-07 -2.90149e-10 0
-1.65191e-07 -6.4179e-10 0
-1.63207e-07 -6.90194e-10 0
-1.61675e-07 -6.12812e-10 0
-1.60425e-07 -4.98929e-10 0
-1.59355e-07 -3.87896e-10 0
-1.58403e-07 -2.93788e-10 0
-1.57535e-07 -2.1918e-10 0
-1.56729e-07 -1.62119e-10 0
-1.55973e-07 -1.19353e-10 0
-1.55259e-07 -8.76666e-11 0
-1.54584e-07 -6.43384e-11 0
-1.53945e-07 -4.7222e-11 0
-1.53342e-07 -3.46848e-11 0
-1.52773e-07 -2.55088e-11 0
-1.52237e-07 -1.87953e-11 0
-1.51735e-07 -1.38852e-11 0
-1.51267e-07 -1.02971e-11 0
-1.50831e-07 -7.68031e-12 0
-1.50428e-07 -5.78143e-12 0
-1.50058e-07 -4.41972e-12 0
-1.4972e-07 -3.46965e-12 0
-1.49415e-07 -2.84455e-12 0
-1.49143e-07 -2.47863e-12 0
-1.48903e-07 -2.31355e-12 0
-1.48696e-07 -2.28728e-12 0
-1.48522e-07 -2.30553e-12 0
-1.48382e-07 -2.16545e-12 0
-1.48276e-07 -1.56853e-12 0
-1.48213e-07 -4.71017e-13 0
0.0101435 7.07501e-10 0
0 -5.44891e-07 0
9.32056e-10 -5.79714e-08 0
-9.53696e-08 -1.33158e-07 0
-3.09755e-07 -1.31585e-07 0
-4.03889e-07 -9.92016e-08 0
-2.92971e-07 -7.60157e-08 0
-9.0501e-08 -3.31543e-08 0
2.16867e-08 -1.81689e-08 0
5.53293e-09 -5.53293e-09 0
-1.15793e-08 1.36721e-08 0
-8.42505e-08 2.14198e-08 0
-1.55289e-07 1.19244e-07 0
-3.00775e-07 1.62511e-07 0
-3.65268e-07 8.10982e-08 0
-3.23015e-07 1.6372e-08 0
-2.58317e-07 -5.86022e-09 0
-2.14397e-07 -9.77597e-09 0
-1.90979e-07 -9.102e-09 0
-1.79126e-07 -7.45028e-09 0
-1.72888e-07 -5.66598e-09 0
-1.69329e-07 -4.08139e-09 0
-1.67084e-07 -2.83158e-09 0
-1.65502e-07 -1.92014e-09 0
-1.64268e-07 -1.28767e-09 0
-1.63224e-07 -8.61413e-10 0
-1.62291e-07 -5.78331e-10 0
-1.6143e-07 -3.91189e-10 0
-1.6062e-07 -2.6717e-10 0
-1.59851e-07 -1.84401e-10 0
-1.59119e-07 -1.28615e-10 0
-1.58422e-07 -9.0593e-11 0
-1.57757e-07 -6.43809e-11 0
-1.57126e-07 -4.61127e-11 0
-1.56527e-07 -3.32554e-11 0
-1.55961e-07 -2.41294e-11 0
-1.55428e-07 -1.7607e-11 0
-1.54928e-07 -1.29212e-11 0
-1.54461e-07 -9.54512e-12 0
-1.54026e-07 -7.11379e-12 0
-1.53623e-07 -5.37486e-12 0
-1.53254e-07 -4.15569e-12 0
-1.52916e-07 -3.34256e-12 0
-1.52612e-07 -2.86962e-12 0
-1.5234e-07 -2.71688e-12 0
-1.52101e-07 -2.91775e-12 0
-1.51894e-07 -3.58036e-12 0
-1.51721e-07 -4.91305e-12 0
-1.51581e-07 -7.15123e-12 0
-1.51476e-07 -1.03613e-11 0
-1.51413e-07 -1.4703e-11 0
0.0101347 1.26729e-07 0
0 -3.9026e-07 0
1.00947e-09 -6.0694e-08 0
-1.04867e-07 -1.26253e-07 0
-3.04703e-07 -1.05314e-07 0
-3.87759e-07 -5.11068e-08 0
-3.14886e-07 -2.96062e-08 0
-2.07119e-07 -7.19338e-08 0
-1.12269e-07 -5.35348e-08 0
2.16054e-08 -1.47268e-08 0
-1.03505e-08 -1.66306e-08 0
3.61987e-09 5.07181e-08 0
-3.7666e-08 2.19709e-07 0
-1.74618e-07 2.64304e-07 0
-3.06302e-07 1.05134e-07 0
-3.1586e-07 -1.12302e-08 0
-2.64869e-07 -3.72304e-08 0
-2.21971e-07 -3.07325e-08 0
-1.9973e-07 -2.11962e-08 0
-1.90326e-07 -1.39527e-08 0
-1.86645e-07 -8.94087e-09 0
-1.85108e-07 -5.61517e-09 0
-1.84255e-07 -3.48784e-09 0
-1.83562e-07 -2.16315e-09 0
-1.82873e-07 -1.35003e-09 0
-1.82155e-07 -8.52585e-10 0
-1.81415e-07 -5.46746e-10 0
-1.80667e-07 -3.56671e-10 0
-1.79924e-07 -2.36806e-10 0
-1.79196e-07 -1.59933e-10 0
-1.78488e-07 -1.09744e-10 0
-1.77805e-07 -7.63848e-11 0
-1.7715e-07 -5.38306e-11 0
-1.76524e-07 -3.83409e-11 0
-1.75929e-07 -2.75553e-11 0
-1.75366e-07 -1.99568e-11 0
-1.74835e-07 -1.45528e-11 0
-1.74336e-07 -1.06826e-11 0
-1.73869e-07 -7.89955e-12 0
-1.73435e-07 -5.89871e-12 0
-1.73033e-07 -4.47186e-12 0
-1.72663e-07 -3.47993e-12 0
-1.72326e-07 -2.83825e-12 0
-1.72022e-07 -2.51272e-12 0
-1.7175e-07 -2.5284e-12 0
-1.71512e-07 -2.99453e-12 0
-1.71306e-07 -4.15765e-12 0
-1.71134e-07 -6.50811e-12 0
-1.70996e-07 -1.08514e-11 0
-1.70893e-07 -1.80229e-11 0
-1.70832e-07 -2.89959e-11 0
0.0100571 2.38503e-07 0
0 -3.52857e-07 0
1.08524e-09 -5.55957e-08 0
-1.33146e-07 -1.12864e-07 0
-3.20524e-07 -8.68195e-08 0
-3.94232e-07 -3.58937e-08 0
-3.41792e-07 -7.71518e-09 0
-2.47794e-07 -3.52474e-08 0
-2.10799e-07 -1.27523e-07 0
-1.29235e-07 -9.36512e-08 0
-2.12793e-07 1.57247e-10 0
-3.15634e-07 6.42378e-08 0
-2.278e-07 2.19748e-07 0
-1.00723e-07 2.65135e-07 0
-1.66066e-07 1.26662e-07 0
-2.52258e-07 -2.77407e-09 0
-2.6507e-07 -4.00249e-08 0
-2.53104e-07 -3.30178e-08 0
-2.4585e-07 -2.02095e-08 0
-2.4427e-07 -1.13987e-08 0
-2.44766e-07 -6.3716e-09 0
-2.45449e-07 -3.62862e-09 0
-2.45767e-07 -2.12752e-09 0
-2.45691e-07 -1.28744e-09 0
-2.45328e-07 -8.0285e-10 0
-2.44785e-07 -5.14338e-10 0
-2.4414e-07 -3.37404e-10 0
-2.43445e-07 -2.25979e-10 0
-2.42732e-07 -1.54127e-10 0
-2.42021e-07 -1.06796e-10 0
-2.41323e-07 -7.50115e-11 0
-2.40647e-07 -5.32941e-11 0
-2.39995e-07 -3.82269e-11 0
-2.39372e-07 -2.76345e-11 0
-2.38779e-07 -2.01049e-11 0
-2.38217e-07 -1.47046e-11 0
-2.37687e-07 -1.08049e-11 0
-2.37188e-07 -7.97575e-12 0
-2.36722e-07 -5.9191e-12 0
-2.36288e-07 -4.42716e-12 0
-2.35887e-07 -3.35592e-12 0
-2.35517e-07 -2.60955e-12 0
-2.35181e-07 -2.13325e-12 0
-2.34876e-07 -1.91525e-12 0
-2.34605e-07 -2.00182e-12 0
-2.34367e-07 -2.53282e-12 0
-2.34162e-07 -3.80993e-12 0
-2.33991e-07 -6.46033e-12 0
-2.33855e-07 -1.18148e-11 0
-2.33757e-07 -2.22198e-11 0
-2.33702e-07 -4.12039e-11 0
0.0095728 2.93172e-07 0
0 -3.78607e-07 0
1.13123e-09 -3.31887e-08 0
-1.57434e-07 -6.70665e-08 0
-3.222e-07 -4.981e-08 0
-3.86561e-07 -2.47121e-08 0
-3.76808e-07 -3.09619e-08 0
-3.2171e-07 -6.40331e-08 0
-2.86078e-07 -9.86589e-08 0
-3.2153e-07 2.86037e-09 0
-3.2894e-07 1.81412e-07 0
-3.50633e-07 1.58071e-07 0
-2.55096e-07 -2.32952e-08 0
-1.53802e-07 -1.22476e-07 0
-2.1673e-07 -8.5253e-08 0
-3.08909e-07 -1.51233e-08 0
-3.2985e-07 2.0782e-08 0
-3.18854e-07 2.26987e-08 0
-3.08727e-07 1.38921e-08 0
-3.04063e-07 6.57566e-09 0
-3.02418e-07 2.58315e-09 0
-3.01847e-07 7.89014e-10 0
-3.01495e-07 8.98037e-11 0
-3.01083e-07 -1.37261e-10 0
-3.00561e-07 -1.81942e-10 0
-2.99948e-07 -1.65246e-10 0
-2.99277e-07 -1.33533e-10 0
-2.98577e-07 -1.02764e-10 0
-2.97867e-07 -7.73294e-11 0
-2.97162e-07 -5.75722e-11 0
-2.96472e-07 -4.26491e-11 0
-2.95801e-07 -3.15219e-11 0
-2.95155e-07 -2.32736e-11 0
-2.94536e-07 -1.71755e-11 0
-2.93947e-07 -1.26722e-11 0
-2.93387e-07 -9.34794e-12 0
-2.92858e-07 -6.89542e-12 0
-2.92361e-07 -5.08794e-12 0
-2.91896e-07 -3.75889e-12 0
-2.91463e-07 -2.78671e-12 0
-2.91062e-07 -2.08427e-12 0
-2.90693e-07 -1.59229e-12 0
-2.90357e-07 -1.27698e-12 0
-2.90053e-07 -1.13293e-12 0
-2.89782e-07 -1.19478e-12 0
-2.89544e-07 -1.56604e-12 0
-2.8934e-07 -2.47802e-12 0
-2.89171e-07 -4.4247e-12 0
-2.89038e-07 -8.60005e-12 0
-2.88945e-07 -1.78933e-11 0
-2.88902e-07 -3.68175e-11 0
0.00732522 2.00455e-07 0
0 0 0
5.74714e-10 0 0
-8.03882e-08 0 0
-1.54232e-07 0 0
-1.84283e-07 0 0
-1.89204e-07 0 0
-1.90125e-07 0 0
-1.89235e-07 0 0
-1.88931e-07 0 0
-1.14836e-07 0 0
-3.14624e-08 0 0
-2.50076e-08 0 0
-9.00539e-08 0 0
-1.65328e-07 0 0
-2.00217e-07 0 0
-1.95308e-07 0 0
-1.79095e-07 0 0
-1.66941e-07 0 0
-1.60433e-07 0 0
-1.57413e-07 0 0
-1.56056e-07 0 0
-1.5538e-07 0 0
-1.54947e-07 0 0
-1.54587e-07 0 0
-1.5424e-07 0 0
-1.5389e-07 0 0
-1.53536e-07 0 0
-1.53183e-07 0 0
-1.52833e-07 0 0
-1.52491e-07 0 0
-1.52159e-07 0 0
-1.51838e-07 0 0
-1.51531e-07 0 0
-1.51237e-07 0 0
-1.50958e-07 0 0
-1.50695e-07 0 0
-1.50447e-07 0 0
-1.50215e-07 0 0
-1.49999e-07 0 0
-1.49798e-07 0 0
-1.49614e-07 0 0
-1.49446e-07 0 0
-1.49294e-07 0 0
-1.49159e-07 0 0
-1.4904e-07 0 0
-1.48938e-07 0 0
-1.48854e-07 0 0
-1.48788e-07 0 0
-1.48744e-07 0 0
-1.48726e-07 0 0
0.00274656 0 0
0 0 4.10501e-07
1.31796e-09 0 6.32203e-08
-2.46001e-07 0 1.3839e-07
-5.60973e-07 0 6.09909e-08
-7.57793e-07 0 -2.33901e-07
-1.44947e-07 0 -3.35546e-07
9.8872e-08 0 -1.69776e-07
1.54827e-07 0 -5.36091e-08
9.67325e-08 0 1.869e-08
-2.0404e-08 0 2.78946e-08
-1.21784e-07 0 7.33607e-09
-1.86167e-07 0 -8.75595e-09
-2.23624e-07 0 -1.20191e-08
-2.46135e-07 0 -8.46346e-09
-2.61415e-07 0 -4.06431e-09
-2.73609e-07 0 -1.08738e-09
-2.83716e-07 0 3.56198e-10
-2.91574e-07 0 8.09395e-10
-2.97144e-07 0 7.8799e-10
-3.00717e-07 0 6.0782e-10
-3.02744e-07 0 4.16776e-10
-3.03674e-07 0 2.65633e-10
-3.03876e-07 0 1.60915e-10
-3.03623e-07 0 9.38107e-11
-3.031e-07 0 5.30104e-11
-3.02431e-07 0 2.9144e-11
-3.01692e-07 0 1.56061e-11
-3.0093e-07 0 8.12651e-12
-3.00171e-07 0 4.09334e-12
-2.99432e-07 0 1.97053e-12
-2.98721e-07 0 8.81954e-13
-2.98042e-07 0 3.40376e-13
-2.97396e-07 0 8.10204e-14
-2.96786e-07 0 -3.67379e-14
-2.9621e-07 0 -8.57843e-14
-2.9567e-07 0 -1.02841e-13
-2.95164e-07 0 -1.05762e-13
-2.94692e-07 0 -1.02798e-13
-2.94253e-07 0 -9.74438e-14
-2.93848e-07 0 -9.0877e-14
-2.93477e-07 0 -8.30387e-14
-2.93138e-07 0 -7.27832e-14
-2.92833e-07 0 -5.6885e-14
-2.9256e-07 0 -2.55518e-14
-2.92322e-07 0 5.17707e-14
-2.92117e-07 0 2.53186e-13
-2.91948e-07 0 7.79404e-13
-2.91817e-07 0 2.31525e-12
-2.91726e-07 0 7.09154e-12
-2.91686e-07 0 1.9691e-11
0.00731712 0 -1.19457e-07
0.0036 5.37343e-08 1.30578e-07
0.0035997 -0.00161604 -0.000300619
0.00751043 -0.00498844 -0.00126746
0.0156479 -0.00845268 -0.00298369
0.0273945 -0.0132043 -0.00483671
0.0465218 -0.00928952 -0.00354799
0.0488434 -0.000314444 -0.000646881
0.0482021 0.00334943 0.00056356
0.0428907 0.00514255 0.000756319
0.0372766 0.00487049 0.000247816
0.0323104 0.00391793 -0.000203581
0.0282584 0.00288575 -0.000361298
0.0252489 0.00198938 -0.000312072
0.0231973 0.00130813 -0.00019855
0.0218721 0.000838227 -0.000103021
0.0210418 0.000528868 -4.50701e-05
0.0205336 0.000328475 -1.62843e-05
0.0202293 0.000200389 -4.1247e-06
0.020051 0.000119977 1.27674e-07
0.0199487 7.0511e-05 1.14164e-06
0.0198914 4.06905e-05 1.05392e-06
0.0198601 2.3055e-05 7.1697e-07
0.0198435 1.28146e-05 4.14006e-07
0.019835 6.97381e-06 2.0616e-07
0.0198309 3.70292e-06 8.22708e-08
0.0198291 1.90687e-06 1.62413e-08
0.0198285 9.42443e-07 -1.46362e-08
0.0198284 4.38384e-07 -2.6047e-08
0.0198285 1.84019e-07 -2.76383e-08
0.0198287 6.18684e-08 -2.48829e-08
0.0198289 7.64621e-09 -2.06647e-08
0.019829 -1.30822e-08 -1.63756e-08
0.0198291 -1.8285e-08 -1.25989e-08
0.0198292 -1.70234e-08 -9.50759e-09
0.0198293 -1.36504e-08 -7.08449e-09
0.0198294 -1.01027e-08 -5.23815e-09
0.0198294 -7.12632e-09 -3.85962e-09
0.0198294 -4.91863e-09 -2.84837e-09
0.0198294 -3.45478e-09 -2.12284e-09
0.0198294 -2.65091e-09 -1.62439e-09
0.0198294 -2.44748e-09 -1.31989e-09
0.0198295 -2.86219e-09 -1.20601e-09
0.0198295 -4.04582e-09 -1.31691e-09
0.0198295 -6.3702e-09 -1.73159e-09
0.0198295 -1.06147e-08 -2.59343e-09
0.0198295 -1.84587e-08 -4.22719e-09
0.0198295 -3.29645e-08 -6.70098e-09
0.0198296 -6.03957e-08 -9.63735e-09
0.0198298 -1.411e-07 -4.15348e-08
0.01983 -3.90688e-07 -2.09592e-07
0.0198305 -5.77664e-07 -3.47321e-07
0.01 4.41469e-08 -7.03731e-07
0.0100009 -0.00357496 -0.000772764
0.0151178 -0.0111904 -0.00214415
0.0241465 -0.0186209 -0.00380023
0.0368179 -0.0285771 -0.00442203
0.0559341 -0.0193629 -0.00121769
0.0545199 -0.001081 0.00179079
0.0549315 0.00591852 0.00218698
0.0493075 0.010808 0.0018655
0.0434142 0.0106548 0.000765196
0.0383708 0.00922751 -0.000168179
0.0341735 0.00728156 -0.000522727
0.0310949 0.00522329 -0.000488097
0.0290994 0.00347172 -0.000321402
0.0278759 0.00220139 -0.000169863
0.0271465 0.00135659 -7.52717e-05
0.0267228 0.000817714 -2.74795e-05
0.0264835 0.000482937 -6.91949e-06
0.0263526 0.000279536 4.75976e-07
0.0262835 0.000158489 2.35156e-06
0.0262487 8.78726e-05 2.26628e-06
0.0262323 4.74842e-05 1.68174e-06
0.0262253 2.48553e-05 1.11175e-06
0.026223 1.24616e-05 6.87364e-07
0.0262229 5.8534e-06 4.06234e-07
0.0262236 2.44914e-06 2.32022e-07
0.0262245 7.78288e-07 1.28733e-07
0.0262254 1.90173e-08 6.94648e-08
0.0262261 -2.78584e-07 3.63561e-08
0.0262267 -3.54961e-07 1.83075e-08
0.0262272 -3.34766e-07 8.71233e-09
0.0262275 -2.79973e-07 3.75743e-09
0.0262278 -2.19476e-07 1.29458e-09
0.0262279 -1.65274e-07 1.38286e-10
0.0262281 -1.21146e-07 -3.53139e-10
0.0262282 -8.71587e-08 -5.20313e-10
0.0262282 -6.19465e-08 -5.40463e-10
0.0262283 -4.37939e-08 -5.04411e-10
0.0262283 -3.11152e-08 -4.59533e-10
0.0262283 -2.264e-08 -4.3446e-10
0.0262283 -1.74737e-08 -4.54676e-10
0.0262283 -1.51306e-08 -5.54258e-10
0.0262283 -1.56097e-08 -7.87641e-10
0.0262284 -1.95964e-08 -1.23639e-09
0.0262284 -2.88474e-08 -1.97208e-09
0.0262284 -4.72873e-08 -3.1129e-09
0.0262284 -8.60468e-08 -5.12303e-09
0.0262285 -1.70856e-07 -9.38274e-09
0.0262286 -3.30429e-07 -5.86092e-08
0.0262288 -6.03825e-07 -3.07496e-07
0.0262289 -7.75947e-07 -5.10152e-07
0.0148 -7.0541e-07 -9.28067e-07
0.014802 -0.00562327 -0.00128134
0.0195881 -0.0165636 -0.00350787
0.0255472 -0.0268537 -0.00540123
0.0298424 -0.040964 -0.0050113
0.0283727 -0.0250647 -0.000792886
0.0260843 -8.11061e-06 0.00190799
0.0263354 0.00775853 0.002036
0.0311018 0.0161795 0.00193541
0.0311611 0.0157996 0.00100773
0.0297281 0.0134317 0.000146511
0.0284512 0.010476 -0.0002857
0.0276718 0.00730277 -0.000340419
0.0274022 0.00467105 -0.000239129
0.027355 0.0028625 -0.000120857
0.0273803 0.00171126 -4.27535e-05
0.0274259 0.00100054 -4.96944e-06
0.0274735 0.000571531 8.39137e-06
0.0275156 0.000318474 1.04904e-05
0.0275493 0.000172674 8.64484e-06
0.0275746 9.06328e-05 6.0873e-06
0.0275929 4.55915e-05 3.93759e-06
0.0276056 2.15367e-05 2.41396e-06
0.0276143 9.11946e-06 1.42551e-06
0.0276202 3.00181e-06 8.18336e-07
0.0276241 1.99663e-07 4.59025e-07
0.0276267 -9.19673e-07 2.52176e-07
0.0276284 -1.22842e-06 1.35682e-07
0.0276296 -1.17911e-06 7.13106e-08
0.0276303 -9.97427e-07 3.63804e-08
0.0276309 -7.89388e-07 1.77876e-08
0.0276312 -5.99795e-07 8.11418e-09
0.0276314 -4.43503e-07 3.23055e-09
0.0276316 -3.21698e-07 8.71508e-10
0.0276317 -2.30111e-07 -1.87583e-10
0.0276318 -1.62955e-07 -5.98735e-10
0.0276318 -1.14663e-07 -7.03189e-10
0.0276319 -8.05402e-08 -6.76401e-10
0.0276319 -5.69117e-08 -6.07926e-10
0.0276319 -4.1066e-08 -5.45923e-10
0.0276319 -3.1148e-08 -5.23241e-10
0.0276319 -2.60882e-08 -5.74029e-10
0.0276319 -2.56262e-08 -7.43078e-10
0.0276319 -3.05588e-08 -1.09584e-09
0.0276319 -4.36053e-08 -1.78795e-09
0.0276319 -7.06208e-08 -3.3608e-09
0.027632 -1.19152e-07 -7.44801e-09
0.027632 -1.97408e-07 -1.8507e-08
0.027632 -3.18117e-07 -8.44593e-08
0.027632 -4.97662e-07 -3.63988e-07
0.0276319 -6.04218e-07 -5.85705e-07
0.018 -1.53558e-06 -1.15727e-06
0.0180019 -0.00657734 -0.00208946
0.0199648 -0.0174054 -0.00568885
0.019811 -0.0224822 -0.00710584
0.0159311 -0.0242203 -0.00638659
-8.42451e-07 -0.0125727 -0.00288099
7.97338e-05 2.74731e-05 4.44011e-07
-3.15425e-05 3.32565e-05 0.000386146
0.00758965 0.00536472 0.000774016
0.0159065 0.011869 0.000637373
0.0192262 0.0120564 0.000286178
0.0208141 0.00954299 -6.30645e-05
0.0225435 0.00644819 -0.000209697
0.024214 0.00389924 -0.000172787
0.0255052 0.00227568 -8.21782e-05
0.0263862 0.00130229 -1.51559e-05
0.0269532 0.000724624 1.54771e-05
0.0273086 0.000388174 2.25265e-05
0.0275279 0.000198341 1.94587e-05
0.0276614 9.51871e-05 1.3931e-05
0.0277418 4.14121e-05 9.02371e-06
0.0277898 1.47346e-05 5.49019e-06
0.0278182 2.38644e-06 3.19842e-06
0.0278349 -2.68611e-06 1.80285e-06
0.0278447 -4.25137e-06 9.88313e-07
0.0278504 -4.25516e-06 5.27514e-07
0.0278538 -3.66229e-06 2.73355e-07
0.0278558 -2.92478e-06 1.36379e-07
0.0278569 -2.23511e-06 6.43194e-08
0.0278576 -1.65988e-06 2.74962e-08
0.027858 -1.20848e-06 9.41263e-09
0.0278583 -8.67255e-07 1.06768e-09
0.0278584 -6.15662e-07 -2.36508e-09
0.0278585 -4.33419e-07 -3.42502e-09
0.0278586 -3.03161e-07 -3.41769e-09
0.0278586 -2.11058e-07 -2.99365e-09
0.0278586 -1.4656e-07 -2.46254e-09
0.0278587 -1.01857e-07 -1.96154e-09
0.0278587 -7.13087e-08 -1.54512e-09
0.0278587 -5.09481e-08 -1.23334e-09
0.0278587 -3.81054e-08 -1.03955e-09
0.0278587 -3.11641e-08 -9.91302e-10
0.0278587 -2.9473e-08 -1.15795e-09
0.0278587 -3.33329e-08 -1.69612e-09
0.0278587 -4.3695e-08 -2.98367e-09
0.0278587 -6.17179e-08 -6.0814e-09
0.0278586 -8.90273e-08 -1.29493e-08
0.0278586 -1.27837e-07 -2.74534e-08
0.0278586 -1.84267e-07 -9.92246e-08
0.0278585 -2.66011e-07 -3.87026e-07
0.0278583 -3.13916e-07 -6.12949e-07
0.0196 -1.8972e-06 -1.93281e-06
0.0196006 -0.00513079 -0.0028661
0.0190703 -0.0116502 -0.0070284
0.0163453 -0.0139045 -0.00749073
0.0118031 -0.0122735 -0.00624101
0.00255566 -0.00489033 -0.00364977
6.08533e-05 -5.62065e-05 -0.000735325
2.46639e-05 -2.46639e-05 -3.8549e-08
-3.06398e-05 3.24452e-05 9.70177e-05
0.00533595 0.00401396 0.000205747
0.0118188 0.00850137 0.000164569
0.0146177 0.00723583 -4.7767e-05
0.0181152 0.00401791 -0.000245927
0.0214711 0.00179633 -0.000240427
0.0239924 0.000731213 -0.000137049
0.0256181 0.000271443 -4.18046e-05
0.02659 7.14527e-05 7.29036e-06
0.0271534 -1.32585e-05 2.13272e-05
0.0274755 -4.3113e-05 1.96674e-05
0.0276577 -4.75418e-05 1.39633e-05
0.02776 -4.17487e-05 8.76429e-06
0.0278168 -3.31473e-05 5.11492e-06
0.0278481 -2.49195e-05 2.83945e-06
0.0278652 -1.81382e-05 1.51416e-06
0.0278744 -1.29407e-05 7.76642e-07
0.0278794 -9.11583e-06 3.80383e-07
0.027882 -6.36855e-06 1.74194e-07
0.0278833 -4.42472e-06 7.0641e-08
0.027884 -3.06242e-06 2.10367e-08
0.0278843 -2.11357e-06 -9.96329e-10
0.0278845 -1.45545e-06 -9.42382e-09
0.0278846 -1.00034e-06 -1.14734e-08
0.0278846 -6.86346e-07 -1.07865e-08
0.0278846 -4.70156e-07 -9.1318e-09
0.0278845 -3.21613e-07 -7.31994e-09
0.0278845 -2.19801e-07 -5.68538e-09
0.0278845 -1.5025e-07 -4.33571e-09
0.0278845 -1.02984e-07 -3.27881e-09
0.0278845 -7.11543e-08 -2.48693e-09
0.0278845 -5.00928e-08 -1.93012e-09
0.0278845 -3.66639e-08 -1.59742e-09
0.0278845 -2.88015e-08 -1.51824e-09
0.0278845 -2.51279e-08 -1.79713e-09
0.0278845 -2.45981e-08 -2.66725e-09
0.0278844 -2.62255e-08 -4.55153e-09
0.0278844 -2.87346e-08 -8.37274e-09
0.0278844 -3.01175e-08 -1.58878e-08
0.0278843 -2.71203e-08 -3.05736e-08
0.0278843 -1.80819e-08 -1.02748e-07
0.0278842 -5.91341e-09 -3.91871e-07
0.027884 3.14552e-10 -6.18607e-07
0.0196 -9.64428e-07 -2.60378e-06
0.0196002 -0.00303475 -0.00318265
0.0190563 -0.00633211 -0.00708032
0.0178635 -0.00586368 -0.00708709
0.0144926 -0.00226716 -0.00555245
0.0107119 0.00373546 -0.00377296
0.00668898 0.00343727 -0.00172756
6.08862e-05 -5.15267e-05 -0.000320355
2.08869e-05 -2.08869e-05 -9.93184e-08
-2.95612e-05 3.17184e-05 2.5759e-05
0.00400426 0.00274541 0.000322553
0.00867272 0.00330143 0.00033698
0.0145479 -0.000264777 -0.000124203
0.0198348 -0.00184795 -0.000350082
0.0235176 -0.0017966 -0.000291496
0.0256321 -0.00126957 -0.000142764
0.0267331 -0.000810774 -4.25266e-05
0.0272918 -0.000505577 -2.07043e-06
0.0275755 -0.000314348 7.68719e-06
0.0277195 -0.00019537 7.18244e-06
0.0277923 -0.000121416 4.7297e-06
0.0278285 -7.55696e-05 2.69344e-06
0.0278462 -4.72083e-05 1.3991e-06
0.0278546 -2.96595e-05 6.6854e-07
0.0278583 -1.87677e-05 2.8608e-07
0.0278597 -1.19702e-05 9.84135e-08
0.0278601 -7.69679e-06 1.31465e-08
0.0278601 -4.98778e-06 -2.10085e-08
0.0278599 -3.25543e-06 -3.10624e-08
0.0278596 -2.13808e-06 -3.06518e-08
0.0278594 -1.41162e-06 -2.63672e-08
0.0278592 -9.35911e-07 -2.12143e-08
0.0278591 -6.22497e-07 -1.64364e-08
0.027859 -4.14992e-07 -1.24473e-08
0.0278589 -2.77109e-07 -9.29455e-09
0.0278588 -1.85287e-07 -6.88355e-09
0.0278588 -1.24109e-07 -5.08095e-09
0.0278587 -8.34172e-08 -3.75975e-09
0.0278587 -5.64755e-08 -2.81791e-09
0.0278587 -3.8782e-08 -2.18695e-09
0.0278587 -2.72703e-08 -1.83988e-09
0.0278587 -1.97429e-08 -1.80382e-09
0.0278587 -1.44332e-08 -2.17863e-09
0.0278587 -9.59828e-09 -3.16371e-09
0.0278586 -3.05716e-09 -5.12885e-09
0.0278586 8.39921e-09 -8.94769e-09
0.0278586 2.99608e-08 -1.6304e-08
0.0278586 7.06319e-08 -3.01116e-08
0.0278585 1.42875e-07 -9.94929e-08
0.0278584 2.51419e-07 -3.85065e-07
0.0278582 3.14288e-07 -6.10294e-07
0.018 -5.92406e-07 -2.55704e-06
0.0180008 -0.00135446 -0.00313291
0.0185669 -0.00216122 -0.00672073
0.0191594 -0.000570187 -0.00632414
0.0188559 0.0022599 -0.00466413
0.0188385 0.0077555 -0.00315469
0.0192462 0.0127968 -0.00173706
0.0118614 0.00706406 -0.0007815
6.22745e-05 -4.07788e-05 -0.000268613
-2.41413e-05 -4.65765e-05 3.78605e-07
6.22013e-06 -0.000294476 0.000901802
0.00948241 -0.0033911 0.00132597
0.0172122 -0.00700816 0.000408053
0.0223092 -0.0069582 -0.000212337
0.0252814 -0.00490346 -0.000352793
0.0267407 -0.00286402 -0.000234066
0.0273525 -0.00156179 -0.000107132
0.02758 -0.000851717 -3.99219e-05
0.0276534 -0.000473263 -1.31901e-05
0.0276699 -0.000267284 -4.06425e-06
0.0276676 -0.000152799 -1.24105e-06
0.0276604 -8.8287e-05 -4.36758e-07
0.0276532 -5.15643e-05 -2.21596e-07
0.0276473 -3.04588e-05 -1.58813e-07
0.0276429 -1.82038e-05 -1.28512e-07
0.0276396 -1.10085e-05 -1.03714e-07
0.0276373 -6.73429e-06 -8.10951e-08
0.0276357 -4.16467e-06 -6.15391e-08
0.0276346 -2.60132e-06 -4.5671e-08
0.0276338 -1.63919e-06 -3.33913e-08
0.0276332 -1.04065e-06 -2.41885e-08
0.0276328 -6.64643e-07 -1.74341e-08
0.0276326 -4.26413e-07 -1.25409e-08
0.0276324 -2.7441e-07 -9.02368e-09
0.0276322 -1.76902e-07 -6.50712e-09
0.0276321 -1.14133e-07 -4.7124e-09
0.0276321 -7.3666e-08 -3.43812e-09
0.027632 -4.75898e-08 -2.54309e-09
0.027632 -3.08033e-08 -1.93368e-09
0.027632 -1.99453e-08 -1.5566e-09
0.0276319 -1.26933e-08 -1.39757e-09
0.0276319 -7.26524e-09 -1.48701e-09
0.0276319 -2.00621e-09 -1.91611e-09
0.0276319 5.03803e-09 -2.86188e-09
0.0276319 1.66724e-08 -4.64488e-09
0.0276319 3.7344e-08 -8.05597e-09
0.0276319 7.44636e-08 -1.468e-08
0.0276319 1.42153e-07 -2.66367e-08
0.0276319 2.68492e-07 -8.86394e-08
0.0276319 4.77227e-07 -3.6038e-07
0.0276317 6.0351e-07 -5.77766e-07
0.0148 -3.74935e-07 -2.21012e-06
0.0148012 -0.000447275 -0.00294484
0.0167048 -0.000111383 -0.0060475
0.0192186 0.00175822 -0.00531206
0.0215078 0.00440377 -0.00370168
0.0236103 0.00756976 -0.00261382
0.0269892 0.0126619 -0.00172143
0.0300213 0.0200849 -0.000935845
0.0243428 0.0120117 -0.000134968
0.0249241 -6.82669e-10 0.000500922
0.0290822 -0.00711873 0.00164683
0.0340571 -0.0144152 0.00249433
0.0343673 -0.0131454 0.00163648
0.0320607 -0.00972123 0.000397762
0.0296923 -0.00601145 -0.000315922
0.0281491 -0.00320562 -0.000377977
0.0272877 -0.00158815 -0.000222893
0.0268218 -0.00078311 -0.000101447
0.026567 -0.000396613 -4.12619e-05
0.0264251 -0.000207262 -1.59903e-05
0.0263445 -0.000111266 -6.08067e-06
0.026298 -6.10392e-05 -2.30229e-06
0.0262708 -3.40747e-05 -8.73456e-07
0.0262546 -1.92972e-05 -3.31103e-07
0.0262448 -1.10613e-05 -1.22898e-07
0.0262388 -6.40628e-06 -4.19472e-08
0.0262351 -3.74295e-06 -1.04168e-08
0.0262327 -2.20269e-06 1.44418e-09
0.0262312 -1.30335e-06 5.32176e-09
0.0262302 -7.73784e-07 5.96828e-09
0.0262296 -4.5974e-07 5.38178e-09
0.0262292 -2.72476e-07 4.41737e-09
0.0262289 -1.6042e-07 3.43511e-09
0.0262287 -9.33065e-08 2.57343e-09
0.0262286 -5.32045e-08 1.8698e-09
0.0262285 -2.94008e-08 1.31752e-09
0.0262285 -1.54382e-08 8.92244e-10
0.0262284 -7.38493e-09 5.63538e-10
0.0262284 -2.8035e-09 2.98592e-10
0.0262284 -1.18043e-10 6.1032e-11
0.0262284 1.7998e-09 -1.94437e-10
0.0262284 3.9397e-09 -5.31816e-10
0.0262284 7.43994e-09 -1.05045e-09
0.0262283 1.39328e-08 -1.90895e-09
0.0262283 2.60719e-08 -3.36946e-09
0.0262284 4.84509e-08 -6.05515e-09
0.0262284 8.90606e-08 -1.12824e-08
0.0262284 1.63675e-07 -2.06879e-08
0.0262285 3.14224e-07 -7.05296e-08
0.0262286 5.94522e-07 -3.06694e-07
0.0262287 7.72811e-07 -4.99009e-07
0.01 -7.15312e-07 -1.97757e-06
0.0100005 -0.000262304 -0.00248825
0.0121612 0.000165906 -0.00477045