# vtk DataFile Version 2.0
Tobias Weinzierl: CPU, Manycore and Cluster Computing
ASCII

DATASET STRUCTURED_POINTS
DIMENSIONS  51 11 6

ORIGIN 0 0 0 

SPACING 0.1 0.1 0.1 

POINT_DATA 3366

VECTORS velocity float
0 0 0
-2.48908e-12 0 0
4.79278e-09 0 0
-3.5187e-08 0 0
-1.18983e-07 0 0
-4.96794e-08 0 0
-3.27304e-08 0 0
-2.23117e-08 0 0
-6.2882e-09 0 0
1.8293e-09 0 0
-7.77777e-09 0 0
-2.98433e-08 0 0
-5.08388e-08 0 0
-6.18666e-08 0 0
-6.34504e-08 0 0
-6.10961e-08 0 0
-5.91334e-08 0 0
-5.88878e-08 0 0
-5.99214e-08 0 0
-6.14374e-08 0 0
-6.28874e-08 0 0
-6.40347e-08 0 0
-6.48426e-08 0 0
-6.53639e-08 0 0
-6.5675e-08 0 0
-6.58456e-08 0 0
-6.59292e-08 0 0
-6.59627e-08 0 0
-6.59698e-08 0 0
-6.5965e-08 0 0
-6.59562e-08 0 0
-6.59474e-08 0 0
-6.59406e-08 0 0
-6.59363e-08 0 0
-6.59342e-08 0 0
-6.59342e-08 0 0
-6.59357e-08 0 0
-6.59383e-08 0 0
-6.59417e-08 0 0
-6.59454e-08 0 0
-6.59494e-08 0 0
-6.59534e-08 0 0
-6.59573e-08 0 0
-6.5961e-08 0 0
-6.59644e-08 0 0
-6.59676e-08 0 0
-6.59707e-08 0 0
-6.59737e-08 0 0
-6.59772e-08 0 0
-6.59837e-08 0 0
0.00219024 0 0
0 4.02357e-07 0
-4.98968e-12 -1.0351e-08 0
1.21376e-08 -8.70266e-09 0
-5.25451e-08 1.74454e-08 0
-1.75162e-07 -5.45571e-09 0
-6.40624e-08 4.26405e-09 0
-5.62481e-08 6.63042e-08 0
-6.14393e-08 6.59242e-08 0
-4.23704e-08 3.99536e-08 0
-2.30077e-08 2.91688e-08 0
-2.79659e-08 3.22571e-08 0
-5.72841e-08 3.47929e-08 0
-9.0665e-08 2.71519e-08 0
-1.09678e-07 1.34175e-08 0
-1.13781e-07 2.75958e-09 0
-1.13205e-07 -1.17774e-09 0
-1.15132e-07 -7.39776e-10 0
-1.20478e-07 7.73971e-10 0
-1.27328e-07 1.74011e-09 0
-1.33824e-07 1.94454e-09 0
-1.39032e-07 1.68293e-09 0
-1.42774e-07 1.2571e-09 0
-1.45251e-07 8.43869e-10 0
-1.46782e-07 5.1463e-10 0
-1.47666e-07 2.81261e-10 0
-1.48138e-07 1.29927e-10 0
-1.48364e-07 3.9708e-11 0
-1.48451e-07 -8.9803e-12 0
-1.48468e-07 -3.15109e-11 0
-1.48453e-07 -3.87752e-11 0
-1.48427e-07 -3.79245e-11 0
-1.48402e-07 -3.33486e-11 0
-1.48382e-07 -2.75563e-11 0
-1.48367e-07 -2.18576e-11 0
-1.48359e-07 -1.68445e-11 0
-1.48356e-07 -1.27069e-11 0
-1.48356e-07 -9.42923e-12 0
-1.4836e-07 -6.90459e-12 0
-1.48365e-07 -4.99759e-12 0
-1.48372e-07 -3.57546e-12 0
-1.48379e-07 -2.52111e-12 0
-1.48386e-07 -1.73617e-12 0
-1.48394e-07 -1.13818e-12 0
-1.48401e-07 -6.54817e-13 0
-1.48408e-07 -2.1363e-13 0
-1.48414e-07 2.81703e-13 0
-1.48421e-07 9.76114e-13 0
-1.48427e-07 2.2138e-12 0
-1.48435e-07 5.44757e-12 0
-1.48449e-07 1.37301e-11 0
0.00616489 -9.41424e-08 0
0 -1.8977e-08 0
-3.04857e-12 -9.22427e-09 0
3.21995e-08 -3.13491e-08 0
1.08637e-08 -7.43168e-08 0
-4.08126e-08 -1.51511e-07 0
4.9651e-08 -9.49397e-08 0
-1.19148e-08 4.43657e-08 0
-6.87051e-08 6.69655e-08 0
-8.37037e-08 4.4585e-08 0
-6.03944e-08 2.78201e-08 0
-4.89783e-08 1.4255e-08 0
-6.37158e-08 7.67751e-09 0
-8.97027e-08 1.1853e-08 0
-1.04781e-07 2.10649e-08 0
-1.05331e-07 2.76443e-08 0
-1.01919e-07 2.89822e-08 0
-1.02397e-07 2.63377e-08 0
-1.07583e-07 2.17242e-08 0
-1.14959e-07 1.66304e-08 0
-1.22093e-07 1.19509e-08 0
-1.27754e-07 8.11629e-09 0
-1.31707e-07 5.22568e-09 0
-1.34214e-07 3.18544e-09 0
-1.35673e-07 1.82354e-09 0
-1.36447e-07 9.60254e-10 0
-1.36807e-07 4.41374e-10 0
-1.36937e-07 1.48148e-10 0
-1.3695e-07 -4.40337e-12 0
-1.36912e-07 -7.37009e-11 0
-1.36858e-07 -9.66498e-11 0
-1.36806e-07 -9.58551e-11 0
-1.36763e-07 -8.44687e-11 0
-1.36731e-07 -6.96879e-11 0
-1.36709e-07 -5.51322e-11 0
-1.36696e-07 -4.23772e-11 0
-1.3669e-07 -3.19007e-11 0
-1.36688e-07 -2.36396e-11 0
-1.3669e-07 -1.73017e-11 0
-1.36694e-07 -1.25299e-11 0
-1.367e-07 -8.98012e-12 0
-1.36707e-07 -6.35234e-12 0
-1.36715e-07 -4.39578e-12 0
-1.36722e-07 -2.89988e-12 0
-1.36729e-07 -1.67431e-12 0
-1.36736e-07 -5.20781e-13 0
-1.36742e-07 8.31739e-13 0
-1.36748e-07 2.90696e-12 0
-1.36755e-07 6.61096e-12 0
-1.36761e-07 1.2868e-11 0
-1.36771e-07 2.25331e-11 0
0.00855554 -1.75604e-07 0
0 -6.40082e-07 0
-3.16659e-12 -1.93191e-08 0
4.75838e-08 -6.82689e-08 0
4.44443e-08 -1.38745e-07 0
-2.00977e-08 -1.90559e-07 0
6.40358e-08 -1.00813e-07 0
1.16017e-08 -7.05306e-11 0
-2.95793e-08 -1.20389e-08 0
-8.52168e-08 -4.38646e-08 0
-8.36529e-08 -6.92055e-08 0
-8.04866e-08 -6.91098e-08 0
-1.02244e-07 -4.29835e-08 0
-1.29054e-07 -1.0441e-10 0
-1.40116e-07 3.39808e-08 0
-1.31461e-07 4.7423e-08 0
-1.14072e-07 4.61002e-08 0
-9.89356e-08 3.87731e-08 0
-9.04306e-08 3.02215e-08 0
-8.7538e-08 2.21852e-08 0
-8.75653e-08 1.53368e-08 0
-8.84548e-08 9.96053e-09 0
-8.92304e-08 6.05068e-09 0
-8.9635e-08 3.39879e-09 0
-8.97217e-08 1.71349e-09 0
-8.96177e-08 7.10904e-10 0
-8.94314e-08 1.58433e-10 0
-8.92309e-08 -1.15196e-10 0
-8.90513e-08 -2.26704e-10 0
-8.89056e-08 -2.50769e-10 0
-8.8795e-08 -2.32467e-10 0
-8.87153e-08 -1.97391e-10 0
-8.86607e-08 -1.59034e-10 0
-8.86252e-08 -1.23765e-10 0
-8.8604e-08 -9.40066e-11 0
-8.85929e-08 -7.01504e-11 0
-8.8589e-08 -5.16564e-11 0
-8.85899e-08 -3.76483e-11 0
-8.8594e-08 -2.7211e-11 0
-8.86002e-08 -1.9523e-11 0
-8.86075e-08 -1.38994e-11 0
-8.86153e-08 -9.79144e-12 0
-8.86232e-08 -6.76546e-12 0
-8.86308e-08 -4.47375e-12 0
-8.86381e-08 -2.61678e-12 0
-8.86448e-08 -8.85969e-13 0
-8.86507e-08 1.06864e-12 0
-8.86558e-08 3.55909e-12 0
-8.86597e-08 6.82944e-12 0
-8.86615e-08 1.13112e-11 0
-8.86656e-08 1.78442e-11 0
0.00932652 -1.63656e-07 0
0 -1.22947e-06 0
-3.12047e-11 -3.52195e-08 0
2.2378e-08 -9.50765e-08 0
-1.57219e-09 -1.21922e-07 0
-7.48541e-08 -9.43549e-08 0
-2.83425e-11 -3.23331e-08 0
-2.66957e-10 -3.34396e-10 0
2.77365e-10 -3.17856e-10 0
-3.75972e-08 -4.15337e-08 0
-1.04765e-07 -9.94444e-08 0
-1.26888e-07 -1.00573e-07 0
-1.44556e-07 -5.50274e-08 0
-1.64295e-07 2.8298e-09 0
-1.71986e-07 4.06417e-08 0
-1.62459e-07 4.85985e-08 0
-1.39487e-07 4.06001e-08 0
-1.1346e-07 2.99083e-08 0
-9.30191e-08 2.11758e-08 0
-8.02546e-08 1.44027e-08 0
-7.31714e-08 9.08288e-09 0
-6.92506e-08 5.08762e-09 0
-6.6874e-08 2.34172e-09 0
-6.52686e-08 6.45579e-10 0
-6.41152e-08 -2.77138e-10 0
-6.3277e-08 -6.92404e-10 0
-6.26774e-08 -8.08855e-10 0
-6.22592e-08 -7.6956e-10 0
-6.19757e-08 -6.62926e-10 0
-6.17887e-08 -5.38495e-10 0
-6.16692e-08 -4.20959e-10 0
-6.15955e-08 -3.20463e-10 0
-6.15524e-08 -2.39365e-10 0
-6.15295e-08 -1.76313e-10 0
-6.15195e-08 -1.28522e-10 0
-6.15179e-08 -9.29476e-11 0
-6.15214e-08 -6.68103e-11 0
-6.15281e-08 -4.77903e-11 0
-6.15366e-08 -3.40453e-11 0
-6.15459e-08 -2.4159e-11 0
-6.15555e-08 -1.70645e-11 0
-6.15649e-08 -1.19673e-11 0
-6.1574e-08 -8.27665e-12 0
-6.15824e-08 -5.54564e-12 0
-6.159e-08 -3.43305e-12 0
-6.15966e-08 -1.69651e-12 0
-6.16021e-08 -1.85522e-13 0
-6.16062e-08 1.22842e-12 0
-6.16086e-08 2.80252e-12 0
-6.16087e-08 5.07914e-12 0
-6.16108e-08 8.8097e-12 0
0.00952667 -9.12031e-08 0
0 -1.10001e-06 0
-5.04021e-11 -3.58826e-08 0
-1.27151e-09 -7.54704e-08 0
-3.16193e-08 -9.633e-08 0
-1.00886e-07 -1.12491e-07 0
-6.08808e-08 -5.57603e-08 0
-2.71516e-10 2.56265e-10 0
2.10989e-11 -2.10989e-11 0
2.51913e-10 -3.02836e-10 0
-5.66709e-08 -5.09059e-08 0
-1.33003e-07 -1.02335e-07 0
-1.35684e-07 -6.39457e-08 0
-1.44935e-07 8.46225e-09 0
-1.60753e-07 5.15109e-08 0
-1.70645e-07 5.34208e-08 0
-1.5931e-07 3.50384e-08 0
-1.31785e-07 1.73704e-08 0
-1.03624e-07 6.7818e-09 0
-8.33789e-08 1.27474e-09 0
-7.11721e-08 -1.64084e-09 0
-6.42513e-08 -3.11133e-09 0
-6.02803e-08 -3.61991e-09 0
-5.79129e-08 -3.5064e-09 0
-5.64613e-08 -3.06165e-09 0
-5.55657e-08 -2.50006e-09 0
-5.50199e-08 -1.9506e-09 0
-5.46956e-08 -1.4745e-09 0
-5.45101e-08 -1.09018e-09 0
-5.44098e-08 -7.93638e-10 0
-5.43607e-08 -5.71552e-10 0
-5.43415e-08 -4.08556e-10 0
-5.43393e-08 -2.90557e-10 0
-5.43465e-08 -2.05925e-10 0
-5.43583e-08 -1.45605e-10 0
-5.43723e-08 -1.02792e-10 0
-5.43871e-08 -7.24876e-11 0
-5.44017e-08 -5.10741e-11 0
-5.44158e-08 -3.59575e-11 0
-5.4429e-08 -2.52894e-11 0
-5.44414e-08 -1.77572e-11 0
-5.44528e-08 -1.24306e-11 0
-5.44632e-08 -8.6535e-12 0
-5.44725e-08 -5.97244e-12 0
-5.44807e-08 -4.08307e-12 0
-5.44876e-08 -2.77768e-12 0
-5.44933e-08 -1.90322e-12 0
-5.44976e-08 -1.36836e-12 0
-5.45005e-08 -1.11454e-12 0
-5.4501e-08 -8.63363e-13 0
-5.4503e-08 -3.25219e-14 0
0.00956206 2.72655e-09 0
0 -7.68448e-07 0
-3.93965e-11 -2.7476e-08 0
-3.02214e-09 -6.72087e-08 0
-3.26691e-08 -7.96533e-08 0
-1.21493e-07 -7.0386e-08 0
-1.40878e-07 -3.75728e-08 0
-4.53443e-08 -7.10441e-09 0
-2.6388e-10 2.48663e-10 0
3.24526e-12 -3.24526e-12 0
2.15172e-10 -2.88675e-10 0
-5.78133e-08 -5.35175e-08 0
-7.41267e-08 -6.16414e-08 0
-7.81481e-08 2.57593e-08 0
-1.01822e-07 7.74098e-08 0
-1.39826e-07 7.09731e-08 0
-1.56012e-07 3.59497e-08 0
-1.40061e-07 6.06554e-09 0
-1.11586e-07 -8.74275e-09 0
-8.80875e-08 -1.32861e-08 0
-7.38676e-08 -1.32226e-08 0
-6.6566e-08 -1.14582e-08 0
-6.3149e-08 -9.21418e-09 0
-6.1656e-08 -7.03898e-09 0
-6.10654e-08 -5.18022e-09 0
-6.08853e-08 -3.71237e-09 0
-6.08838e-08 -2.61311e-09 0
-6.09524e-08 -1.81872e-09 0
-6.10412e-08 -1.25784e-09 0
-6.11286e-08 -8.67474e-10 0
-6.12062e-08 -5.97973e-10 0
-6.12722e-08 -4.12604e-10 0
-6.13271e-08 -2.8521e-10 0
-6.13725e-08 -1.97575e-10 0
-6.14102e-08 -1.37171e-10 0
-6.14416e-08 -9.54339e-11 0
-6.14682e-08 -6.65204e-11 0
-6.14909e-08 -4.64406e-11 0
-6.15105e-08 -3.24639e-11 0
-6.15276e-08 -2.27169e-11 0
-6.15426e-08 -1.59113e-11 0
-6.15558e-08 -1.11625e-11 0
-6.15675e-08 -7.8646e-12 0
-6.15777e-08 -5.60562e-12 0
-6.15866e-08 -4.11048e-12 0
-6.15942e-08 -3.21138e-12 0
-6.16005e-08 -2.83572e-12 0
-6.16055e-08 -3.03164e-12 0
-6.16092e-08 -4.02439e-12 0
-6.16106e-08 -6.01863e-12 0
-6.16132e-08 -8.72085e-12 0
0.00952664 9.50389e-08 0
0 -5.40222e-07 0
-2.96926e-11 -2.18872e-08 0
-5.54912e-09 -5.27039e-08 0
-4.38136e-08 -6.05567e-08 0
-1.22463e-07 -4.21099e-08 0
-1.58842e-07 -1.20202e-08 0
-1.12329e-07 -7.99394e-09 0
-5.23558e-08 -8.34813e-09 0
-2.83079e-10 2.14259e-10 0
2.09733e-10 2.07926e-10 0
-6.51196e-12 -2.80671e-08 0
-5.82238e-08 -2.15301e-08 0
-5.81914e-08 5.24306e-08 0
-4.02223e-08 9.89499e-08 0
-6.18145e-08 8.43518e-08 0
-1.01827e-07 3.79554e-08 0
-1.17873e-07 -3.56597e-10 0
-1.0956e-07 -1.80805e-08 0
-9.59772e-08 -2.16084e-08 0
-8.71973e-08 -1.90503e-08 0
-8.37202e-08 -1.48555e-08 0
-8.32716e-08 -1.08386e-08 0
-8.40228e-08 -7.59004e-09 0
-8.50365e-08 -5.18235e-09 0
-8.59481e-08 -3.48887e-09 0
-8.66639e-08 -2.3346e-09 0
-8.71932e-08 -1.56133e-09 0
-8.75743e-08 -1.04715e-09 0
-8.78461e-08 -7.05604e-10 0
-8.80403e-08 -4.78061e-10 0
-8.81802e-08 -3.25687e-10 0
-8.82824e-08 -2.23028e-10 0
-8.83584e-08 -1.53434e-10 0
-8.84159e-08 -1.05979e-10 0
-8.84605e-08 -7.34491e-11 0
-8.84957e-08 -5.1048e-11 0
-8.85243e-08 -3.55625e-11 0
-8.85478e-08 -2.48248e-11 0
-8.85676e-08 -1.73642e-11 0
-8.85845e-08 -1.21784e-11 0
-8.8599e-08 -8.58311e-12 0
-8.86116e-08 -6.11325e-12 0
-8.86225e-08 -4.46006e-12 0
-8.8632e-08 -3.43478e-12 0
-8.86401e-08 -2.95466e-12 0
-8.8647e-08 -3.04302e-12 0
-8.86528e-08 -3.85568e-12 0
-8.86575e-08 -5.86377e-12 0
-8.86604e-08 -1.00659e-11 0
-8.86649e-08 -1.71144e-11 0
0.00932647 1.61575e-07 0
0 -4.67124e-07 0
-1.95837e-11 -1.38352e-08 0
-1.13141e-08 -3.64549e-08 0
-6.26827e-08 -4.4831e-08 0
-1.38834e-07 -3.05107e-08 0
-1.74205e-07 1.67678e-09 0
-1.43089e-07 7.59804e-09 0
-1.12786e-07 -3.87132e-08 0
-6.48146e-08 -3.63373e-08 0
-5.16182e-08 -3.59111e-12 0
-7.68274e-08 1.77969e-08 0
-1.59351e-07 4.25037e-08 0
-1.50348e-07 5.36388e-08 0
-6.05328e-08 5.5863e-08 0
-2.28059e-08 4.34533e-08 0
-6.29019e-08 2.12186e-08 0
-1.08738e-07 1.51875e-09 0
-1.25644e-07 -9.25832e-09 0
-1.26265e-07 -1.20442e-08 0
-1.2498e-07 -1.07352e-08 0
-1.25691e-07 -8.26706e-09 0
-1.27706e-07 -5.93647e-09 0
-1.2993e-07 -4.11256e-09 0
-1.31821e-07 -2.79949e-09 0
-1.33253e-07 -1.89331e-09 0
-1.34275e-07 -1.28042e-09 0
-1.34987e-07 -8.68823e-10 0
-1.35477e-07 -5.92278e-10 0
-1.35816e-07 -4.05701e-10 0
-1.36052e-07 -2.79127e-10 0
-1.36218e-07 -1.9278e-10 0
-1.36337e-07 -1.33575e-10 0
-1.36425e-07 -9.28016e-11 0
-1.3649e-07 -6.46182e-11 0
-1.36539e-07 -4.5077e-11 0
-1.36578e-07 -3.14936e-11 0
-1.36608e-07 -2.20331e-11 0
-1.36634e-07 -1.54351e-11 0
-1.36654e-07 -1.08317e-11 0
-1.36672e-07 -7.62427e-12 0
-1.36687e-07 -5.40188e-12 0
-1.367e-07 -3.88697e-12 0
-1.36711e-07 -2.90192e-12 0
-1.36721e-07 -2.35086e-12 0
-1.3673e-07 -2.21922e-12 0
-1.36737e-07 -2.59682e-12 0
-1.36744e-07 -3.70527e-12 0
-1.3675e-07 -6.10051e-12 0
-1.36755e-07 -1.13714e-11 0
-1.36764e-07 -2.14939e-11 0
0.00855549 1.63739e-07 0
0 -4.87847e-07 0
-8.6645e-12 -5.40158e-09 0
-1.76091e-08 -1.65191e-08 0
-7.43256e-08 -2.14865e-08 0
-1.40976e-07 -1.49775e-08 0
-1.7483e-07 -6.52744e-09 0
-1.53368e-07 -5.82058e-09 0
-1.30595e-07 -2.66649e-08 0
-1.49261e-07 -3.01152e-08 0
-1.32974e-07 9.26661e-09 0
-1.30095e-07 5.52692e-08 0
-1.36495e-07 7.09145e-08 0
-1.0807e-07 3.96313e-08 0
-4.47295e-08 -7.09041e-09 0
-3.08319e-08 -3.5474e-08 0
-7.90621e-08 -3.45774e-08 0
-1.27629e-07 -1.71187e-08 0
-1.46276e-07 -2.04472e-09 0
-1.46889e-07 3.78835e-09 0
-1.4405e-07 3.77151e-09 0
-1.4271e-07 2.14951e-09 0
-1.42921e-07 7.98045e-10 0
-1.4383e-07 4.90688e-11 0
-1.44856e-07 -2.6109e-10 0
-1.4575e-07 -3.36057e-10 0
-1.46447e-07 -3.09687e-10 0
-1.46965e-07 -2.51467e-10 0
-1.47339e-07 -1.91792e-10 0
-1.47608e-07 -1.41341e-10 0
-1.47801e-07 -1.02129e-10 0
-1.47941e-07 -7.29475e-11 0
-1.48043e-07 -5.17478e-11 0
-1.48119e-07 -3.65583e-11 0
-1.48177e-07 -2.5763e-11 0
-1.48222e-07 -1.81278e-11 0
-1.48257e-07 -1.27436e-11 0
-1.48286e-07 -8.95429e-12 0
-1.48309e-07 -6.29161e-12 0
-1.48329e-07 -4.42435e-12 0
-1.48346e-07 -3.12003e-12 0
-1.48361e-07 -2.21772e-12 0
-1.48374e-07 -1.60969e-12 0
-1.48385e-07 -1.23041e-12 0
-1.48394e-07 -1.05129e-12 0
-1.48403e-07 -1.08631e-12 0
-1.48411e-07 -1.4139e-12 0
-1.48418e-07 -2.20931e-12 0
-1.48425e-07 -3.82386e-12 0
-1.48433e-07 -7.14871e-12 0
-1.48447e-07 -1.3915e-11 0
0.00616491 7.96881e-08 0
0 0 0
-1.19285e-12 0 0
-9.74244e-09 0 0
-3.66119e-08 0 0
-6.46083e-08 0 0
-7.94389e-08 0 0
-7.72697e-08 0 0
-7.01588e-08 0 0
-8.44786e-08 0 0
-8.13629e-08 0 0
-5.32721e-08 0 0
-1.8339e-08 0 0
2.41752e-09 0 0
5.48991e-09 0 0
-1.46609e-08 0 0
-4.60609e-08 0 0
-6.75661e-08 0 0
-7.36492e-08 0 0
-7.16235e-08 0 0
-6.82601e-08 0 0
-6.602e-08 0 0
-6.50062e-08 0 0
-6.47404e-08 0 0
-6.48184e-08 0 0
-6.50106e-08 0 0
-6.52118e-08 0 0
-6.53841e-08 0 0
-6.55198e-08 0 0
-6.56227e-08 0 0
-6.56996e-08 0 0
-6.57568e-08 0 0
-6.57998e-08 0 0
-6.58324e-08 0 0
-6.58576e-08 0 0
-6.58775e-08 0 0
-6.58935e-08 0 0
-6.59066e-08 0 0
-6.59176e-08 0 0
-6.59269e-08 0 0
-6.5935e-08 0 0
-6.5942e-08 0 0
-6.59481e-08 0 0
-6.59535e-08 0 0
-6.59583e-08 0 0
-6.59625e-08 0 0
-6.59664e-08 0 0
-6.597e-08 0 0
-6.59737e-08 0 0
-6.59783e-08 0 0
-6.5986e-08 0 0
0.00219027 0 0
0 0 5.4534e-07
2.48079e-12 0 5.5306e-09
1.95111e-08 0 4.38596e-08
-4.20143e-08 0 1.06302e-07
-3.11799e-07 0 1.99205e-08
-1.28904e-07 0 -9.05438e-08
-5.93316e-08 0 -9.36993e-08
-8.3318e-09 0 -9.23938e-08
4.01345e-08 0 -6.41219e-08
7.20849e-08 0 -2.77065e-08
6.86477e-08 0 -6.11643e-10
3.00535e-08 0 8.24118e-09
-2.22469e-08 0 4.8447e-09
-6.54039e-08 0 -8.32505e-10
-9.10549e-08 0 -3.55645e-09
-1.04557e-07 0 -3.16534e-09
-1.13739e-07 0 -1.49444e-09
-1.22329e-07 0 -1.14848e-11
-1.30581e-07 0 7.84367e-10
-1.3773e-07 0 9.96594e-10
-1.43289e-07 0 8.89963e-10
-1.47245e-07 0 6.74154e-10
-1.49866e-07 0 4.61801e-10
-1.51496e-07 0 2.94742e-10
-1.52449e-07 0 1.7795e-10
-1.52967e-07 0 1.02281e-10
-1.53223e-07 0 5.59226e-11
-1.53328e-07 0 2.88084e-11
-1.53356e-07 0 1.36298e-11
-1.53346e-07 0 5.52928e-12
-1.53323e-07 0 1.46294e-12
-1.53298e-07 0 -3.95335e-13
-1.53277e-07 0 -1.10124e-12
-1.53262e-07 0 -1.24361e-12
-1.53253e-07 0 -1.13816e-12
-1.53249e-07 0 -9.46069e-13
-1.53249e-07 0 -7.43846e-13
-1.53252e-07 0 -5.63405e-13
-1.53257e-07 0 -4.14206e-13
-1.53263e-07 0 -2.9506e-13
-1.5327e-07 0 -2.0015e-13
-1.53277e-07 0 -1.21715e-13
-1.53285e-07 0 -5.05546e-14
-1.53292e-07 0 2.36289e-14
-1.53298e-07 0 1.12354e-13
-1.53305e-07 0 2.32612e-13
-1.53311e-07 0 3.80202e-13
-1.53318e-07 0 5.86148e-13
-1.53326e-07 0 1.84048e-12
-1.5334e-07 0 7.25576e-12
0.00613632 0 -3.69485e-08
0.0036 -2.74566e-07 -3.79257e-08
0.00359982 -0.00128933 1.62137e-05
0.00676045 -0.00382725 -4.80778e-06
0.0136632 -0.00653331 -0.00118188
0.0241731 -0.014311 -0.00483259
0.0461072 -0.0122816 -0.00494815
0.0493979 -0.00143472 -0.001665
0.0490453 0.00292914 -0.00012689
0.0438834 0.00519348 0.000621277
0.0381687 0.00534403 0.000575481
0.0330618 0.00460627 0.000232937
0.0288421 0.00355574 -0.000121955
0.0255367 0.00249416 -0.000338092
0.0230706 0.00162385 -0.000373053
0.0213064 0.00102307 -0.000287135
0.0200823 0.000650997 -0.00017173
0.0192535 0.000424524 -8.2492e-05
0.0187057 0.000280012 -3.062e-05
0.018353 0.00018317 -6.32435e-06
0.0181322 0.000117276 2.63513e-06
0.017998 7.30324e-05 4.6182e-06
0.0179188 4.41e-05 4.05417e-06
0.0178737 2.57422e-05 2.90126e-06
0.0178489 1.44464e-05 1.86668e-06
0.017836 7.71073e-06 1.11874e-06
0.0178297 3.82836e-06 6.33192e-07
0.0178271 1.67791e-06 3.38985e-07
0.0178263 5.46775e-07 1.6992e-07
0.0178264 -4.40927e-09 7.73396e-08
0.0178269 -2.38725e-07 2.92255e-08
0.0178274 -3.08976e-07 5.87519e-09
0.0178279 -3.00959e-07 -4.27657e-09
0.0178284 -2.60886e-07 -7.75458e-09
0.0178287 -2.12281e-07 -8.10151e-09
0.017829 -1.661e-07 -7.16034e-09
0.0178292 -1.26634e-07 -5.83809e-09
0.0178294 -9.48476e-08 -4.54492e-09
0.0178295 -7.01984e-08 -3.43879e-09
0.0178296 -5.15922e-08 -2.55793e-09
0.0178296 -3.78513e-08 -1.891e-09
0.0178297 -2.79245e-08 -1.41448e-09
0.0178297 -2.09661e-08 -1.11219e-09
0.0178297 -1.6358e-08 -9.85935e-10
0.0178297 -1.37267e-08 -1.06737e-09
0.0178298 -1.29456e-08 -1.37865e-09
0.0178298 -1.42279e-08 -1.87055e-09
0.0178298 -1.83413e-08 -2.11641e-09
0.0178298 -2.62912e-08 1.05007e-09
0.0178299 -5.60137e-08 3.04916e-10
0.0178301 -1.7883e-07 -6.15499e-08
0.0178304 -2.76998e-07 -1.19544e-07
0.01 -1.37027e-07 -1.42687e-06
0.0100008 -0.003002 -0.000514221
0.0149085 -0.00992453 -0.000769282
0.0241002 -0.0178842 -0.00175024
0.0378957 -0.0315987 -0.00369328
0.0579721 -0.0233101 -0.000898292
0.0554886 -0.00210299 0.0027274
0.0551763 0.00560391 0.00286171
0.0495048 0.0105792 0.0025397
0.0440513 0.010617 0.00170592
0.0395737 0.00940638 0.000746662
0.0357963 0.00783015 -3.52976e-05
0.0326823 0.00614284 -0.000497625
0.0303034 0.0045384 -0.00060668
0.0285864 0.00318473 -0.000480718
0.0273978 0.00215181 -0.000291957
0.0266027 0.0014141 -0.000142636
0.0260878 0.000907858 -5.45447e-05
0.0257658 0.000569688 -1.24957e-05
0.025572 0.000349044 3.56316e-06
0.0254601 0.000208459 7.56471e-06
0.0253986 0.000121036 6.99483e-06
0.0253668 6.80061e-05 5.22644e-06
0.0253516 3.66643e-05 3.52681e-06
0.0253455 1.86627e-05 2.23983e-06
0.0253438 8.66506e-06 1.36531e-06
0.0253443 3.3461e-06 8.07241e-07
0.0253455 6.84053e-07 4.65682e-07
0.0253469 -5.20448e-07 2.62932e-07
0.0253482 -9.60561e-07 1.4547e-07
0.0253493 -1.02529e-06 7.882e-08
0.0253502 -9.25272e-07 4.17189e-08
0.0253508 -7.69252e-07 2.14542e-08
0.0253513 -6.0952e-07 1.06087e-08
0.0253517 -4.68216e-07 4.94085e-09
0.0253519 -3.52182e-07 2.06803e-09
0.0253521 -2.61079e-07 6.73806e-10
0.0253523 -1.91669e-07 4.27852e-11
0.0253524 -1.39948e-07 -2.0748e-10
0.0253524 -1.0213e-07 -2.79303e-10
0.0253525 -7.50371e-08 -2.82888e-10
0.0253525 -5.62113e-08 -2.8611e-10
0.0253525 -4.39136e-08 -3.36076e-10
0.0253526 -3.71437e-08 -4.8106e-10
0.0253526 -3.57773e-08 -7.05699e-10
0.0253526 -4.07692e-08 -6.09042e-10
0.0253527 -5.70124e-08 3.80108e-10
0.0253527 -1.00673e-07 4.5885e-09
0.0253528 -1.96043e-07 -2.63096e-09
0.025353 -3.79279e-07 -1.07776e-07
0.0253532 -4.98879e-07 -2.02292e-07
0.0148 -9.71956e-07 -1.72496e-06
0.0148023 -0.00527477 -0.00107214
0.0201967 -0.0161943 -0.00238506
0.0268826 -0.0280822 -0.00415908
0.0313346 -0.0447142 -0.0055526
0.0298408 -0.0275708 -0.00106529
0.0264073 -1.18711e-05 0.00302631
0.0261073 0.00727678 0.00305509
0.0301493 0.0150096 0.00290094
0.0306119 0.0146415 0.00196571
0.0296642 0.0129035 0.000964195
0.0286301 0.0109119 0.000119543
0.0278281 0.00857609 -0.000356463
0.0274814 0.00621761 -0.000475496
0.0274245 0.00425221 -0.000370156
0.0274822 0.00280254 -0.000207533
0.0275585 0.00180232 -8.02965e-05
0.0276222 0.00113409 -8.67113e-06
0.0276723 0.000696154 2.06589e-05
0.0277132 0.000414992 2.66548e-05
0.0277476 0.0002391 2.29767e-05
0.0277761 0.000132295 1.68881e-05
0.0277989 6.95075e-05 1.13735e-05
0.0278165 3.38841e-05 7.24542e-06
0.0278296 1.44953e-05 4.43987e-06
0.0278391 4.49664e-06 2.64232e-06
0.0278459 -2.60363e-07 1.53597e-06
0.0278506 -2.21255e-06 8.74962e-07
0.0278538 -2.74652e-06 4.89193e-07
0.027856 -2.62386e-06 2.68464e-07
0.0278576 -2.24514e-06 1.44385e-07
0.0278586 -1.80869e-06 7.58156e-08
0.0278593 -1.40356e-06 3.85876e-08
0.0278598 -1.06233e-06 1.87771e-08
0.0278601 -7.90215e-07 8.49344e-09
0.0278604 -5.80622e-07 3.33204e-09
0.0278605 -4.22975e-07 8.70304e-10
0.0278606 -3.06451e-07 -2.0396e-10
0.0278607 -2.21536e-07 -5.8942e-10
0.0278608 -1.60498e-07 -6.51489e-10
0.0278608 -1.17381e-07 -5.79783e-10
0.0278609 -8.78316e-08 -4.75899e-10
0.0278609 -6.89266e-08 -3.90523e-10
0.0278609 -5.90732e-08 -3.16744e-10
0.0278609 -5.84056e-08 -1.6492e-10
0.0278609 -7.03324e-08 2.72968e-10
0.027861 -1.01427e-07 4.72182e-10
0.027861 -1.59627e-07 -7.75985e-10
0.027861 -2.52574e-07 -2.43367e-08
0.0278611 -3.83484e-07 -1.53381e-07
0.0278611 -4.58392e-07 -2.60017e-07
0.018 -1.97453e-06 -1.74365e-06
0.0180028 -0.00679948 -0.00188102
0.0205314 -0.0182823 -0.00489611
0.0203624 -0.0239346 -0.00638333
0.0159116 -0.0261238 -0.00744759
-1.5026e-06 -0.0136815 -0.00408046
9.93845e-05 2.89378e-05 8.54696e-07
-3.55794e-05 3.71879e-05 0.0005623
0.00691398 0.00451873 0.0011977
0.0143699 0.0103624 0.00111221
0.0178216 0.0113324 0.000679672
0.019464 0.0100309 0.000132472
0.0211401 0.00777887 -0.000260085
0.0229029 0.00535434 -0.000366607
0.0245009 0.0034455 -0.00028809
0.0257873 0.00214357 -0.000154925
0.0267259 0.00131225 -4.36324e-05
0.0273641 0.000789314 2.05e-05
0.0277818 0.000459713 4.39624e-05
0.0280513 0.000254401 4.38742e-05
0.0282245 0.000130661 3.46055e-05
0.0283354 5.96427e-05 2.41541e-05
0.0284058 2.13368e-05 1.56345e-05
0.0284501 2.3107e-06 9.61448e-06
0.0284777 -5.97566e-06 5.69452e-06
0.0284948 -8.65632e-06 3.27434e-06
0.0285053 -8.65602e-06 1.83571e-06
0.0285116 -7.55123e-06 1.00508e-06
0.0285155 -6.13786e-06 5.3693e-07
0.0285179 -4.78164e-06 2.78741e-07
0.0285193 -3.62342e-06 1.39377e-07
0.0285202 -2.6942e-06 6.59147e-08
0.0285207 -1.97662e-06 2.83078e-08
0.0285211 -1.43624e-06 9.81868e-09
0.0285213 -1.03635e-06 1.28543e-09
0.0285214 -7.4411e-07 -2.21925e-09
0.0285215 -5.32577e-07 -3.29375e-09
0.0285216 -3.80649e-07 -3.27527e-09
0.0285216 -2.72332e-07 -2.8297e-09
0.0285216 -1.95791e-07 -2.27413e-09
0.0285216 -1.42467e-07 -1.75218e-09
0.0285217 -1.06354e-07 -1.32383e-09
0.0285217 -8.3519e-08 -1.01441e-09
0.0285217 -7.19724e-08 -8.73921e-10
0.0285217 -7.13877e-08 -1.04074e-09
0.0285217 -8.2171e-08 -1.99758e-09
0.0285217 -1.04348e-07 -5.30015e-09
0.0285217 -1.36141e-07 -1.25141e-08
0.0285216 -1.77348e-07 -4.67037e-08
0.0285216 -2.28577e-07 -1.82043e-07
0.0285215 -2.56522e-07 -2.87907e-07
0.0196 -2.73879e-06 -2.65004e-06
0.0196009 -0.00559067 -0.00273182
0.0190962 -0.0125249 -0.00642837
0.016098 -0.0153444 -0.00673255
0.0111448 -0.0142379 -0.00671282
0.0019469 -0.00583056 -0.00484466
7.46235e-05 -6.85906e-05 -0.00116528
3.30112e-05 -3.30112e-05 -4.0705e-08
-3.48025e-05 3.63563e-05 0.0001938
0.00443482 0.00333394 0.000402273
0.0102345 0.00772152 0.000330752
0.0130992 0.00776138 1.91401e-05
0.0163261 0.00543751 -0.000301699
0.0194987 0.00314536 -0.00039686
0.022249 0.00156827 -0.000345938
0.0244249 0.000678821 -0.000225691
0.025989 0.000252177 -9.84149e-05
0.0270232 6.42281e-05 -9.51846e-06
0.0276714 -1.87729e-05 3.13834e-05
0.0280666 -5.43045e-05 3.9401e-05
0.0283044 -6.50542e-05 3.27865e-05
0.0284459 -6.23858e-05 2.29213e-05
0.0285292 -5.34933e-05 1.45166e-05
0.0285776 -4.28504e-05 8.62126e-06
0.0286053 -3.28372e-05 4.88729e-06
0.0286209 -2.44306e-05 2.66804e-06
0.0286296 -1.78188e-05 1.40657e-06
0.0286343 -1.28248e-05 7.14087e-07
0.0286369 -9.14974e-06 3.45489e-07
0.0286382 -6.49064e-06 1.55347e-07
0.0286389 -4.58773e-06 6.08519e-08
0.0286392 -3.2356e-06 1.62695e-08
0.0286394 -2.27915e-06 -3.03335e-09
0.0286394 -1.6045e-06 -1.00204e-08
0.0286394 -1.12945e-06 -1.13483e-08
0.0286394 -7.9535e-07 -1.03336e-08
0.0286394 -5.6061e-07 -8.56086e-09
0.0286394 -3.959e-07 -6.73745e-09
0.0286394 -2.80601e-07 -5.1418e-09
0.0286394 -2.00276e-07 -3.85458e-09
0.0286394 -1.44884e-07 -2.88103e-09
0.0286394 -1.07544e-07 -2.21993e-09
0.0286394 -8.36237e-08 -1.91192e-09
0.0286393 -6.98775e-08 -2.13447e-09
0.0286393 -6.36536e-08 -3.23578e-09
0.0286393 -6.2216e-08 -5.74464e-09
0.0286393 -6.23732e-08 -1.11157e-08
0.0286393 -5.89179e-08 -2.02e-08
0.0286392 -4.48342e-08 -5.61288e-08
0.0286391 -1.65383e-08 -1.90089e-07
0.028639 1.1759e-09 -2.93552e-07
0.0196 -1.31079e-06 -3.60833e-06
0.0196 -0.00348741 -0.00308716
0.0189241 -0.00750284 -0.00646821
0.0176708 -0.00728938 -0.00619603
0.0135468 -0.00349337 -0.00567349
0.00953349 0.00305018 -0.00505199
0.00629619 0.00327091 -0.00272329
7.47224e-05 -6.24589e-05 -0.000533584
2.76563e-05 -2.76563e-05 -1.30583e-07
-3.40107e-05 3.55944e-05 6.12951e-05
0.00331739 0.00262381 0.000334538
0.00794146 0.00404679 0.00032996
0.0133155 0.00163911 -2.74931e-05
0.0179571 -0.000269977 -0.000250367
0.0215693 -0.00122489 -0.000352555
0.0242294 -0.00142769 -0.000326381
0.0260377 -0.00120786 -0.000211346
0.0271557 -0.000878115 -9.28654e-05
0.0277969 -0.000598566 -1.99994e-05
0.0281482 -0.000400479 9.27531e-06
0.0283355 -0.000267159 1.4799e-05
0.0284331 -0.000177912 1.18514e-05
0.0284827 -0.000118098 7.61445e-06
0.028507 -7.81487e-05 4.34096e-06
0.0285183 -5.16379e-05 2.27373e-06
0.028523 -3.41486e-05 1.10164e-06
0.0285247 -2.26493e-05 4.84619e-07
0.0285249 -1.50906e-05 1.80186e-07
0.0285245 -1.011e-05 4.06356e-08
0.028524 -6.81363e-06 -1.65988e-08
0.0285235 -4.61939e-06 -3.50741e-08
0.0285231 -3.1495e-06 -3.6702e-08
0.0285227 -2.15848e-06 -3.19895e-08
0.0285224 -1.48621e-06 -2.56789e-08
0.0285222 -1.02762e-06 -1.97132e-08
0.0285221 -7.13277e-07 -1.47387e-08
0.028522 -4.96969e-07 -1.08429e-08
0.0285219 -3.47715e-07 -7.90212e-09
0.0285218 -2.4461e-07 -5.73918e-09
0.0285218 -1.73466e-07 -4.19216e-09
0.0285217 -1.24587e-07 -3.1478e-09
0.0285217 -9.12305e-08 -2.56527e-09
0.0285217 -6.85011e-08 -2.49228e-09
0.0285217 -5.25271e-08 -3.09051e-09
0.0285217 -3.97714e-08 -4.60404e-09
0.0285216 -2.63301e-08 -7.33642e-09
0.0285216 -7.27443e-09 -1.26581e-08
0.0285216 2.56421e-08 -2.11309e-08
0.0285215 8.84568e-08 -5.31958e-08
0.0285215 1.93997e-07 -1.80363e-07
0.0285213 2.58023e-07 -2.80362e-07
0.018 -8.46079e-07 -3.56002e-06
0.0180009 -0.00183678 -0.00301417
0.0184034 -0.00336829 -0.00612619
0.0186051 -0.00191933 -0.00543518
0.0177751 0.00134723 -0.00443713
0.0176148 0.00747125 -0.00390443
0.0182927 0.0126701 -0.00263655
0.0112873 0.00693306 -0.0012159
7.63723e-05 -4.85455e-05 -0.000365997
-2.70156e-05 -5.60852e-05 5.63459e-07
7.81459e-06 -0.000353978 0.000775387
0.00896874 -0.00234252 0.00121182
0.0167441 -0.00447194 0.000687207
0.0217743 -0.00484576 0.000330313
0.0246893 -0.00437691 -1.63087e-06
0.0263331 -0.00350374 -0.000226272
0.0272407 -0.00249171 -0.000262856
0.0276991 -0.00161138 -0.000185827
0.027895 -0.00098804 -9.91619e-05
0.0279566 -0.000594965 -4.41545e-05
0.0279598 -0.000358122 -1.75813e-05
0.027943 -0.000216661 -6.69022e-06
0.0279231 -0.000131923 -2.65256e-06
0.0279058 -8.09337e-05 -1.21427e-06
0.0278925 -5.01042e-05 -6.75807e-07
0.0278829 -3.1349e-05 -4.36258e-07
0.0278761 -1.98452e-05 -3.0131e-07
0.0278714 -1.27169e-05 -2.11439e-07
0.0278682 -8.24811e-06 -1.4764e-07
0.0278659 -5.41148e-06 -1.0207e-07
0.0278644 -3.58818e-06 -6.99457e-08
0.0278633 -2.40193e-06 -4.76541e-08
0.0278626 -1.6214e-06 -3.23828e-08
0.0278621 -1.10256e-06 -2.20112e-08
0.0278617 -7.54552e-07 -1.50009e-08
0.0278615 -5.1934e-07 -1.0271e-08
0.0278613 -3.59357e-07 -7.08004e-09
0.0278612 -2.50008e-07 -4.92885e-09
0.0278611 -1.74998e-07 -3.48859e-09
0.027861 -1.23389e-07 -2.55237e-09
0.027861 -8.76946e-08 -2.00694e-09
0.027861 -6.26083e-08 -1.8149e-09
0.0278609 -4.41107e-08 -2.00243e-09
0.0278609 -2.87676e-08 -2.67719e-09
0.0278609 -1.30816e-08 -4.00418e-09
0.0278609 7.30833e-09 -6.14057e-09
0.0278609 3.84668e-08 -1.02783e-08
0.0278608 9.03644e-08 -1.66102e-08
0.0278608 1.87624e-07 -3.98509e-08
0.0278608 3.54542e-07 -1.51934e-07
0.0278608 4.56964e-07 -2.4429e-07
0.0148 -4.80646e-07 -3.13267e-06
0.0148015 -0.000903527 -0.0027871
0.0163433 -0.0012383 -0.00542526
0.0181628 0.000587512 -0.00448913
0.0198327 0.00376664 -0.00336786
0.021819 0.00759743 -0.00296008
0.0255788 0.0128701 -0.00227569
0.0287906 0.0196584 -0.00130404
0.0235629 0.0115418 -0.000215372
0.0239701 1.70058e-10 0.000657006
0.0272465 -0.00674491 0.00155135
0.0312754 -0.0133378 0.00212727
0.0325169 -0.0115065 0.00183317
0.031861 -0.0082737 0.00142083
0.0303793 -0.0056059 0.000729167
0.0288223 -0.00369083 5.01491e-05
0.027583 -0.00231643 -0.000284232
0.0267352 -0.00136931 -0.000300066
0.0261969 -0.000775423 -0.000198594
0.0258656 -0.000432532 -0.000106085
0.0256644 -0.000242549 -5.06346e-05
0.0255429 -0.000138103 -2.27948e-05
0.0254696 -8.01381e-05 -9.98781e-06
0.0254253 -4.74431e-05 -4.34432e-06
0.0253984 -2.86529e-05 -1.90069e-06
0.0253818 -1.76392e-05 -8.43422e-07
0.0253714 -1.10545e-05 -3.80741e-07
0.0253649 -7.04145e-06 -1.74218e-07
0.0253608 -4.55101e-06 -7.98388e-08
0.025358 -2.97951e-06 -3.5788e-08
0.0253563 -1.97281e-06 -1.49908e-08
0.0253551 -1.31914e-06 -5.23686e-09
0.0253543 -8.89595e-07 -8.29005e-10
0.0253538 -6.04365e-07 9.79506e-10
0.0253534 -4.13247e-07 1.54588e-09
0.0253532 -2.84203e-07 1.54786e-09
0.025353 -1.96514e-07 1.32057e-09
0.0253529 -1.36604e-07 1.02262e-09
0.0253528 -9.54524e-08 7.20153e-10
0.0253527 -6.69633e-08 4.2947e-10
0.0253527 -4.68921e-08 1.36382e-10
0.0253527 -3.21192e-08 -1.96668e-10
0.0253526 -2.01053e-08 -6.28314e-10
0.0253526 -8.42005e-09 -1.2546e-09
0.0253526 5.72173e-09 -2.19392e-09
0.0253526 2.61684e-08 -3.49635e-09
0.0253526 5.89482e-08 -5.85115e-09
0.0253526 1.1311e-07 -9.27048e-09
0.0253527 2.12932e-07 -2.28885e-08
0.0253528 3.8597e-07 -1.1228e-07
0.0253529 4.92983e-07 -1.89884e-07
0.01 -9.26545e-07 -2.81102e-06
0.0100008 -0.000560305 -0.00228674
0.0114841 -0.000496364 -0.00420093