# vtk DataFile Version 2.0
Tobias Weinzierl: CPU, Manycore and Cluster Computing
ASCII

DATASET STRUCTURED_POINTS
DIMENSIONS  51 11 6

ORIGIN 0 0 0 

SPACING 0.1 0.1 0.1 

POINT_DATA 3366

VECTORS velocity float
0 0 0
1.00311e-12 0 0
1.44975e-09 0 0
2.78313e-09 0 0
-4.9125e-09 0 0
4.87622e-09 0 0
6.38514e-09 0 0
5.34021e-09 0 0
4.85726e-09 0 0
4.06757e-09 0 0
2.80393e-09 0 0
1.81835e-09 0 0
8.99487e-10 0 0
-9.69453e-10 0 0
-3.84768e-09 0 0
-6.548e-09 0 0
-8.12265e-09 0 0
-8.71401e-09 0 0
-9.04412e-09 0 0
-9.64398e-09 0 0
-1.06085e-08 0 0
-1.17623e-08 0 0
-1.28855e-08 0 0
-1.38325e-08 0 0
-1.45507e-08 0 0
-1.5051e-08 0 0
-1.53744e-08 0 0
-1.55682e-08 0 0
-1.5674e-08 0 0
-1.57241e-08 0 0
-1.5741e-08 0 0
-1.57401e-08 0 0
-1.57306e-08 0 0
-1.57181e-08 0 0
-1.57056e-08 0 0
-1.56944e-08 0 0
-1.56851e-08 0 0
-1.56777e-08 0 0
-1.5672e-08 0 0
-1.56676e-08 0 0
-1.56644e-08 0 0
-1.5662e-08 0 0
-1.56603e-08 0 0
-1.56591e-08 0 0
-1.56582e-08 0 0
-1.56576e-08 0 0
-1.56573e-08 0 0
-1.56572e-08 0 0
-1.56572e-08 0 0
-1.56579e-08 0 0
0.00195116 0 0
0 3.86463e-07 0
9.28232e-13 -1.54042e-09 0
2.20057e-09 -4.21241e-09 0
6.31951e-09 -1.36631e-09 0
-2.24325e-09 -6.80562e-09 0
1.53357e-08 -9.15676e-09 0
1.75311e-08 -3.65493e-12 0
1.49738e-08 1.64401e-09 0
1.42251e-08 1.19717e-09 0
1.34453e-08 9.90548e-10 0
1.13452e-08 2.71424e-10 0
8.70506e-09 1.54148e-10 0
5.40805e-09 2.04739e-09 0
5.36176e-10 4.66834e-09 0
-5.31333e-09 5.56808e-09 0
-1.0139e-08 4.25734e-09 0
-1.29812e-08 2.24535e-09 0
-1.47317e-08 9.70848e-10 0
-1.68036e-08 7.14064e-10 0
-1.98628e-08 9.94442e-10 0
-2.36871e-08 1.29589e-09 0
-2.76565e-08 1.38351e-09 0
-3.12123e-08 1.25848e-09 0
-3.40535e-08 1.01541e-09 0
-3.61243e-08 7.46022e-10 0
-3.75196e-08 5.06073e-10 0
-3.83925e-08 3.17803e-10 0
-3.88964e-08 1.82645e-10 0
-3.91578e-08 9.24314e-11 0
-3.92703e-08 3.63073e-11 0
-3.9298e-08 4.12184e-12 0
-3.9282e-08 -1.23096e-11 0
-3.9247e-08 -1.90269e-11 0
-3.92071e-08 -2.01994e-11 0
-3.91695e-08 -1.85373e-11 0
-3.9137e-08 -1.56953e-11 0
-3.91107e-08 -1.26105e-11 0
-3.909e-08 -9.7588e-12 0
-3.90743e-08 -7.33833e-12 0
-3.90625e-08 -5.39136e-12 0
-3.90538e-08 -3.88164e-12 0
-3.90475e-08 -2.74026e-12 0
-3.9043e-08 -1.89104e-12 0
-3.90398e-08 -1.2621e-12 0
-3.90375e-08 -7.90086e-13 0
-3.90361e-08 -4.19993e-13 0
-3.90353e-08 -9.25647e-14 0
-3.90351e-08 2.67286e-13 0
-3.90357e-08 9.54155e-13 0
-3.90377e-08 2.83456e-12 0
0.00560124 -2.81023e-08 0
0 -2.09717e-08 0
9.29199e-13 -1.54532e-09 0
2.89138e-09 -7.10571e-09 0
1.16178e-08 -1.17563e-08 0
1.41257e-08 -2.21773e-08 0
2.77735e-08 -1.84393e-08 0
2.37205e-08 -1.71225e-09 0
2.25154e-08 -3.30011e-10 0
2.06373e-08 -4.96288e-09 0
1.72097e-08 -1.0155e-08 0
1.09008e-08 -1.28378e-08 0
5.732e-09 -1.04237e-08 0
2.32785e-09 -3.87085e-09 0
-2.13398e-09 2.68347e-09 0
-7.61715e-09 6.78051e-09 0
-1.20615e-08 8.92604e-09 0
-1.45118e-08 1.0139e-08 0
-1.58393e-08 1.06853e-08 0
-1.74281e-08 1.05193e-08 0
-2.00158e-08 9.6892e-09 0
-2.34827e-08 8.36179e-09 0
-2.72328e-08 6.76575e-09 0
-3.0655e-08 5.13788e-09 0
-3.33824e-08 3.66703e-09 0
-3.53223e-08 2.46054e-09 0
-3.6565e-08 1.54673e-09 0
-3.72766e-08 9.0034e-10 0
-3.7626e-08 4.7084e-10 0
-3.77512e-08 2.02939e-10 0
-3.77511e-08 4.76137e-11 0
-3.76902e-08 -3.38229e-11 0
-3.76073e-08 -6.96041e-11 0
-3.75234e-08 -7.90924e-11 0
-3.74486e-08 -7.48363e-11 0
-3.73865e-08 -6.45059e-11 0
-3.73372e-08 -5.24773e-11 0
-3.72994e-08 -4.10191e-11 0
-3.7271e-08 -3.1128e-11 0
-3.725e-08 -2.30836e-11 0
-3.72348e-08 -1.67977e-11 0
-3.72238e-08 -1.20227e-11 0
-3.7216e-08 -8.4659e-12 0
-3.72104e-08 -5.8471e-12 0
-3.72065e-08 -3.92096e-12 0
-3.72039e-08 -2.47689e-12 0
-3.72022e-08 -1.32789e-12 0
-3.72014e-08 -2.46515e-13 0
-3.72014e-08 1.14338e-12 0
-3.72022e-08 3.28069e-12 0
-3.72042e-08 6.56825e-12 0
0.00802709 -6.48047e-08 0
0 -6.40732e-07 0
3.84113e-12 -3.4296e-09 0
4.67571e-09 -1.20342e-08 0
1.52082e-08 -2.26243e-08 0
1.59191e-08 -3.11952e-08 0
1.73139e-08 -1.71829e-08 0
1.25777e-08 -8.78979e-12 0
1.28819e-08 -1.89284e-09 0
6.3827e-09 -9.71213e-09 0
-1.07849e-09 -1.94545e-08 0
-6.3313e-09 -2.49977e-08 0
-9.26869e-09 -2.57755e-08 0
-1.0778e-08 -2.04687e-08 0
-1.54139e-08 -9.80299e-09 0
-2.20889e-08 2.90503e-09 0
-2.73811e-08 1.37403e-08 0
-2.91597e-08 1.97434e-08 0
-2.75414e-08 2.06684e-08 0
-2.41498e-08 1.83883e-08 0
-2.08299e-08 1.4933e-08 0
-1.86443e-08 1.14554e-08 0
-1.76852e-08 8.37436e-09 0
-1.75054e-08 5.80023e-09 0
-1.76085e-08 3.75701e-09 0
-1.76879e-08 2.22845e-09 0
-1.76356e-08 1.15883e-09 0
-1.74618e-08 4.63815e-10 0
-1.72184e-08 5.00083e-11 0
-1.69563e-08 -1.68503e-10 0
-1.67104e-08 -2.61345e-10 0
-1.64986e-08 -2.79873e-10 0
-1.63265e-08 -2.59117e-10 0
-1.61923e-08 -2.21263e-10 0
-1.60909e-08 -1.79265e-10 0
-1.60161e-08 -1.39922e-10 0
-1.59618e-08 -1.062e-10 0
-1.5923e-08 -7.88672e-11 0
-1.58954e-08 -5.75533e-11 0
-1.5876e-08 -4.13958e-11 0
-1.58624e-08 -2.94042e-11 0
-1.58529e-08 -2.06438e-11 0
-1.58463e-08 -1.43123e-11 0
-1.58417e-08 -9.75698e-12 0
-1.58385e-08 -6.45937e-12 0
-1.58364e-08 -4.00088e-12 0
-1.5835e-08 -2.00758e-12 0
-1.58343e-08 -1.167e-13 0
-1.5834e-08 1.97671e-12 0
-1.58339e-08 4.39538e-12 0
-1.58342e-08 6.99161e-12 0
0.00903146 -6.9569e-08 0
0 -1.25312e-06 0
2.36039e-12 -6.62558e-09 0
1.86902e-09 -1.83064e-08 0
5.77256e-09 -2.41235e-08 0
3.18888e-09 -1.96037e-08 0
-2.14115e-12 -7.16591e-09 0
-6.20652e-11 -7.61366e-11 0
7.05466e-11 -7.41942e-11 0
-4.88666e-09 -7.77815e-09 0
-2.04176e-08 -2.44533e-08 0
-2.68844e-08 -3.76586e-08 0
-2.54975e-08 -4.09235e-08 0
-2.69743e-08 -3.20788e-08 0
-3.21781e-08 -1.38392e-08 0
-3.80077e-08 5.80351e-09 0
-4.18603e-08 2.00908e-08 0
-4.20615e-08 2.56359e-08 0
-3.79195e-08 2.37244e-08 0
-3.0444e-08 1.82456e-08 0
-2.19572e-08 1.24812e-08 0
-1.45589e-08 7.84763e-09 0
-9.14176e-09 4.48877e-09 0
-5.55535e-09 2.1491e-09 0
-3.24333e-09 5.82764e-10 0
-1.69741e-09 -3.88638e-10 0
-5.97175e-10 -9.11234e-10 0
2.23383e-10 -1.11709e-09 0
8.45148e-10 -1.12086e-09 0
1.31276e-09 -1.01255e-09 0
1.65789e-09 -8.55565e-10 0
1.90711e-09 -6.89722e-10 0
2.08337e-09 -5.36901e-10 0
2.20578e-09 -4.06801e-10 0
2.28957e-09 -3.0172e-10 0
2.34627e-09 -2.19982e-10 0
2.38435e-09 -1.5817e-10 0
2.4098e-09 -1.1243e-10 0
2.42679e-09 -7.9154e-11 0
2.43815e-09 -5.52669e-11 0
2.44578e-09 -3.82966e-11 0
2.45094e-09 -2.63309e-11 0
2.45445e-09 -1.79294e-11 0
2.45687e-09 -1.20239e-11 0
2.45853e-09 -7.82261e-12 0
2.4597e-09 -4.73198e-12 0
2.46055e-09 -2.31817e-12 0
2.46132e-09 -3.03088e-13 0
2.46228e-09 1.42642e-12 0
2.46354e-09 2.8892e-12 0
2.46449e-09 4.2118e-12 0
0.00939513 -4.01262e-08 0
0 -1.1341e-06 0
-2.63946e-12 -7.18895e-09 0
-2.48387e-09 -1.58852e-08 0
-2.66861e-09 -1.87401e-08 0
-6.24458e-09 -1.85853e-08 0
-5.18723e-09 -8.543e-09 0
-6.63936e-11 6.42944e-11 0
6.2615e-12 -6.2615e-12 0
6.7631e-11 -7.34594e-11 0
-1.1507e-08 -1.34871e-08 0
-3.38227e-08 -3.86909e-08 0
-3.67985e-08 -4.8445e-08 0
-3.8977e-08 -3.66736e-08 0
-4.08867e-08 -1.48578e-08 0
-4.14072e-08 7.22138e-09 0
-4.13099e-08 2.22822e-08 0
-4.04356e-08 2.67556e-08 0
-3.68539e-08 2.24749e-08 0
-2.95567e-08 1.44735e-08 0
-2.0053e-08 6.98364e-09 0
-1.08879e-08 1.70094e-09 0
-3.70978e-09 -1.44583e-09 0
1.18011e-09 -3.06351e-09 0
4.2476e-09 -3.69231e-09 0
6.10526e-09 -3.70789e-09 0
7.22736e-09 -3.3709e-09 0
7.91271e-09 -2.86654e-09 0
8.33481e-09 -2.32047e-09 0
8.59406e-09 -1.80854e-09 0
8.75089e-09 -1.36823e-09 0
8.8433e-09 -1.01103e-09 0
8.8958e-09 -7.33221e-10 0
8.92418e-09 -5.23883e-10 0
8.93849e-09 -3.69891e-10 0
8.94492e-09 -2.58698e-10 0
8.94721e-09 -1.79558e-10 0
8.9475e-09 -1.23856e-10 0
8.94695e-09 -8.499e-11 0
8.94618e-09 -5.80499e-11 0
8.94547e-09 -3.94664e-11 0
8.94493e-09 -2.66858e-11 0
8.94457e-09 -1.79005e-11 0
8.9444e-09 -1.18398e-11 0
8.94438e-09 -7.61922e-12 0
8.94455e-09 -4.64353e-12 0
8.94494e-09 -2.53943e-12 0
8.94564e-09 -1.08774e-12 0
8.94675e-09 -1.67713e-13 0
8.94815e-09 2.3216e-13 0
8.94916e-09 3.24865e-13 0
0.00948134 6.30812e-09 0
0 -7.82615e-07 0
-8.90382e-13 -4.31999e-09 0
-2.60908e-09 -1.10013e-08 0
-2.30796e-09 -1.4426e-08 0
-9.05213e-09 -1.44275e-08 0
-1.30674e-08 -9.02939e-09 0
-5.88147e-09 -2.34595e-09 0
-6.46244e-11 6.39631e-11 0
3.67799e-12 -3.67799e-12 0
6.32583e-11 -7.20024e-11 0
-1.5629e-08 -2.27123e-08 0
-2.99568e-08 -4.50986e-08 0
-3.73009e-08 -3.45351e-08 0
-3.89899e-08 -1.2546e-08 0
-3.59634e-08 8.44684e-09 0
-3.12555e-08 2.18821e-08 0
-2.78648e-08 2.48131e-08 0
-2.50659e-08 1.90888e-08 0
-2.05009e-08 9.84033e-09 0
-1.3896e-08 1.61529e-09 0
-7.03291e-09 -3.72091e-09 0
-1.62867e-09 -6.33783e-09 0
1.75664e-09 -7.07954e-09 0
3.45149e-09 -6.72665e-09 0
4.05962e-09 -5.83156e-09 0
4.09407e-09 -4.75093e-09 0
3.88322e-09 -3.69693e-09 0
3.60333e-09 -2.7777e-09 0
3.33556e-09 -2.03148e-09 0
3.10999e-09 -1.45527e-09 0
2.93227e-09 -1.02618e-09 0
2.79782e-09 -7.1504e-10 0
2.69882e-09 -4.93805e-10 0
2.6273e-09 -3.38752e-10 0
2.57637e-09 -2.31221e-10 0
2.54051e-09 -1.57217e-10 0
2.5155e-09 -1.06567e-10 0
2.49822e-09 -7.20374e-11 0
2.48638e-09 -4.85634e-11 0
2.47835e-09 -3.26336e-11 0
2.47297e-09 -2.18321e-11 0
2.46944e-09 -1.45069e-11 0
2.4672e-09 -9.53937e-12 0
2.46587e-09 -6.18334e-12 0
2.46522e-09 -3.95159e-12 0
2.46507e-09 -2.53526e-12 0
2.46534e-09 -1.757e-12 0
2.466e-09 -1.56472e-12 0
2.46686e-09 -2.11265e-12 0
2.46736e-09 -3.40739e-12 0
0.00939511 5.00102e-08 0
0 -5.48769e-07 0
2.22592e-12 -3.04426e-09 0
-1.02948e-09 -7.91926e-09 0
-2.0627e-09 -1.0866e-08 0
-8.45352e-09 -1.01909e-08 0
-1.66518e-08 -4.86939e-09 0
-1.66566e-08 -3.14595e-10 0
-9.57426e-09 3.54744e-10 0
-6.88872e-11 5.90357e-11 0
6.24436e-11 5.39802e-11 0
3.55569e-12 -1.26195e-08 0
-1.84874e-08 -2.66351e-08 0
-3.47752e-08 -1.93197e-08 0
-4.1406e-08 -1.73929e-09 0
-3.6663e-08 1.22283e-08 0
-2.50635e-08 1.83878e-08 0
-1.51541e-08 1.71386e-08 0
-1.07648e-08 1.08724e-08 0
-9.62787e-09 3.21982e-09 0
-8.82314e-09 -2.83797e-09 0
-7.77165e-09 -6.24883e-09 0
-7.16664e-09 -7.4141e-09 0
-7.44539e-09 -7.16965e-09 0
-8.46648e-09 -6.2234e-09 0
-9.83966e-09 -5.03973e-09 0
-1.1225e-08 -3.88442e-09 0
-1.2431e-08 -2.88624e-09 0
-1.3392e-08 -2.08688e-09 0
-1.4116e-08 -1.47902e-09 0
-1.46415e-08 -1.03325e-09 0
-1.50138e-08 -7.1456e-10 0
-1.52734e-08 -4.90688e-10 0
-1.54523e-08 -3.35293e-10 0
-1.55748e-08 -2.28292e-10 0
-1.56583e-08 -1.55006e-10 0
-1.5715e-08 -1.04994e-10 0
-1.57534e-08 -7.09538e-11 0
-1.57793e-08 -4.783e-11 0
-1.57966e-08 -3.2148e-11 0
-1.58082e-08 -2.15294e-11 0
-1.58159e-08 -1.43528e-11 0
-1.58209e-08 -9.51896e-12 0
-1.58242e-08 -6.28685e-12 0
-1.58261e-08 -4.16274e-12 0
-1.58273e-08 -2.82717e-12 0
-1.58279e-08 -2.09255e-12 0
-1.58281e-08 -1.88885e-12 0
-1.5828e-08 -2.27807e-12 0
-1.58279e-08 -3.57403e-12 0
-1.58284e-08 -6.03849e-12 0
0.00903143 7.21386e-08 0
0 -4.6566e-07 0
2.21904e-12 -1.59068e-09 0
-8.36645e-11 -4.44515e-09 0
-2.71943e-09 -6.67673e-09 0
-1.10714e-08 -6.75748e-09 0
-2.14058e-08 -1.51234e-09 0
-2.42193e-08 3.5198e-09 0
-2.17308e-08 -3.50458e-09 0
-1.37896e-08 -5.60149e-09 0
-1.16072e-08 2.42702e-13 0
-1.22182e-08 -5.20744e-09 0
-2.78591e-08 -8.5528e-09 0
-4.47274e-08 -6.21723e-10 0
-4.87907e-08 9.63027e-09 0
-3.74114e-08 1.37355e-08 0
-1.91833e-08 1.09023e-08 0
-6.80503e-09 4.79472e-09 0
-5.31259e-09 -1.03837e-09 0
-1.05136e-08 -4.57363e-09 0
-1.66182e-08 -5.60071e-09 0
-2.11687e-08 -5.09957e-09 0
-2.43325e-08 -4.11965e-09 0
-2.6825e-08 -3.20585e-09 0
-2.90118e-08 -2.48559e-09 0
-3.094e-08 -1.92626e-09 0
-3.25605e-08 -1.48076e-09 0
-3.38489e-08 -1.12201e-09 0
-3.48263e-08 -8.362e-10 0
-3.55423e-08 -6.13395e-10 0
-3.60538e-08 -4.43733e-10 0
-3.64129e-08 -3.17218e-10 0
-3.66622e-08 -2.24509e-10 0
-3.68338e-08 -1.5753e-10 0
-3.69514e-08 -1.09699e-10 0
-3.70316e-08 -7.58722e-11 0
-3.70861e-08 -5.21468e-11 0
-3.7123e-08 -3.56262e-11 0
-3.71479e-08 -2.41966e-11 0
-3.71646e-08 -1.63364e-11 0
-3.71758e-08 -1.09629e-11 0
-3.71831e-08 -7.31408e-12 0
-3.71879e-08 -4.85931e-12 0
-3.7191e-08 -3.2347e-12 0
-3.71929e-08 -2.19883e-12 0
-3.71941e-08 -1.60386e-12 0
-3.71949e-08 -1.37898e-12 0
-3.71954e-08 -1.53485e-12 0
-3.71959e-08 -2.16584e-12 0
-3.71968e-08 -3.53733e-12 0
-3.71987e-08 -5.96961e-12 0
0.00802708 5.97472e-08 0
0 -4.80389e-07 0
4.01993e-12 -2.58009e-10 0
4.58014e-10 -1.07571e-09 0
-3.2727e-09 -2.06301e-09 0
-1.27646e-08 -2.33179e-09 0
-2.41516e-08 -1.58567e-09 0
-2.8042e-08 5.30035e-10 0
-2.57385e-08 -1.10317e-09 0
-2.97131e-08 -2.92629e-09 0
-2.76121e-08 2.28486e-10 0
-2.55138e-08 3.51603e-09 0
-2.96846e-08 6.28737e-09 0
-3.31666e-08 7.38881e-09 0
-2.9686e-08 6.22375e-09 0
-1.84172e-08 3.73551e-09 0
-6.40429e-09 2.88974e-10 0
-2.19246e-09 -3.09427e-09 0
-7.26147e-09 -4.81009e-09 0
-1.64085e-08 -4.38157e-09 0
-2.43856e-08 -2.8095e-09 0
-2.94298e-08 -1.31259e-09 0
-3.21879e-08 -4.24141e-10 0
-3.37603e-08 -7.96904e-11 0
-3.48463e-08 -2.86372e-11 0
-3.57306e-08 -7.52269e-11 0
-3.64855e-08 -1.23866e-10 0
-3.71163e-08 -1.46294e-10 0
-3.76229e-08 -1.4423e-10 0
-3.80148e-08 -1.27457e-10 0
-3.8309e-08 -1.04825e-10 0
-3.85245e-08 -8.20117e-11 0
-3.86796e-08 -6.18822e-11 0
-3.87896e-08 -4.54417e-11 0
-3.88667e-08 -3.26739e-11 0
-3.89203e-08 -2.3101e-11 0
-3.89572e-08 -1.61065e-11 0
-3.89824e-08 -1.10957e-11 0
-3.89994e-08 -7.56197e-12 0
-3.90108e-08 -5.10239e-12 0
-3.90183e-08 -3.41068e-12 0
-3.90233e-08 -2.26155e-12 0
-3.90264e-08 -1.49404e-12 0
-3.90284e-08 -9.96952e-13 0
-3.90297e-08 -6.9827e-13 0
-3.90305e-08 -5.58308e-13 0
-3.9031e-08 -5.64794e-13 0
-3.90316e-08 -7.37531e-13 0
-3.90324e-08 -1.10085e-12 0
-3.90338e-08 -1.67036e-12 0
-3.90365e-08 -2.64176e-12 0
0.00560127 2.23401e-08 0
0 0 0
2.7544e-12 0 0
3.03549e-10 0 0
-1.62239e-09 0 0
-6.06543e-09 0 0
-1.15155e-08 0 0
-1.45991e-08 0 0
-1.35815e-08 0 0
-1.59286e-08 0 0
-1.60057e-08 0 0
-1.32922e-08 0 0
-9.77115e-09 0 0
-6.51349e-09 0 0
-3.79427e-09 0 0
-1.0423e-09 0 0
6.10929e-10 0 0
-5.57305e-10 0 0
-4.30195e-09 0 0
-8.61566e-09 0 0
-1.18231e-08 0 0
-1.3569e-08 0 0
-1.43081e-08 0 0
-1.45791e-08 0 0
-1.47086e-08 0 0
-1.48265e-08 0 0
-1.49588e-08 0 0
-1.50957e-08 0 0
-1.52229e-08 0 0
-1.53317e-08 0 0
-1.54193e-08 0 0
-1.54868e-08 0 0
-1.55372e-08 0 0
-1.55738e-08 0 0
-1.55999e-08 0 0
-1.56183e-08 0 0
-1.5631e-08 0 0
-1.56397e-08 0 0
-1.56455e-08 0 0
-1.56494e-08 0 0
-1.5652e-08 0 0
-1.56536e-08 0 0
-1.56546e-08 0 0
-1.56552e-08 0 0
-1.56556e-08 0 0
-1.56558e-08 0 0
-1.5656e-08 0 0
-1.56562e-08 0 0
-1.56566e-08 0 0
-1.56573e-08 0 0
-1.56586e-08 0 0
0.00195118 0 0
0 0 5.3656e-07
8.33724e-13 0 9.25721e-11
1.32733e-09 0 1.43218e-09
6.67321e-09 0 7.73045e-09
-1.69171e-08 0 4.71442e-09
7.7613e-09 0 -2.13903e-09
1.3833e-08 0 -4.58507e-10
1.28696e-08 0 -1.14322e-10
1.29947e-08 0 7.72493e-11
1.43346e-08 0 1.06455e-09
1.6647e-08 0 1.97953e-09
1.99922e-08 0 1.75202e-09
2.24341e-08 0 7.42127e-10
2.07443e-08 0 8.05086e-11
1.40281e-08 0 1.21355e-11
5.00652e-09 0 1.92832e-11
-3.13375e-09 0 -7.77103e-11
-9.42344e-09 0 -4.77799e-11
-1.46559e-08 0 2.1747e-10
-1.97114e-08 0 5.71459e-10
-2.47717e-08 0 8.23962e-10
-2.95176e-08 0 8.94931e-10
-3.35687e-08 0 8.13166e-10
-3.67276e-08 0 6.51205e-10
-3.90026e-08 0 4.73796e-10
-4.05295e-08 0 3.18991e-10
-4.1488e-08 0 2.007e-10
-4.20475e-08 0 1.18216e-10
-4.2345e-08 0 6.46209e-11
-4.24806e-08 0 3.18642e-11
-4.25227e-08 0 1.30238e-11
-4.25154e-08 0 2.93627e-12
-4.24854e-08 0 -1.93322e-12
-4.24481e-08 0 -3.86273e-12
-4.24117e-08 0 -4.24851e-12
-4.23797e-08 0 -3.90585e-12
-4.23533e-08 0 -3.28572e-12
-4.23324e-08 0 -2.6204e-12
-4.23164e-08 0 -2.01674e-12
-4.23043e-08 0 -1.51338e-12
-4.22954e-08 0 -1.11435e-12
-4.22889e-08 0 -8.07947e-13
-4.22842e-08 0 -5.77325e-13
-4.22809e-08 0 -4.05057e-13
-4.22786e-08 0 -2.75501e-13
-4.22771e-08 0 -1.7837e-13
-4.22762e-08 0 -1.08638e-13
-4.22759e-08 0 -9.73058e-14
-4.22764e-08 0 -9.19583e-14
-4.22783e-08 0 5.92804e-13
0.00554294 0 -3.27929e-09
0.0036 -3.08837e-07 -6.30654e-08
0.0035998 -0.00138726 -2.26957e-05
0.00671311 -0.00392057 0.000107187
0.0136092 -0.00590511 -0.000532382
0.0235259 -0.0144352 -0.0042938
0.0463054 -0.0133274 -0.00487834
0.0498074 -0.00189004 -0.00164419
0.0495441 0.00266736 -0.000165861
0.0445536 0.00499437 0.000563166
0.0389428 0.00516235 0.000540223
0.0338264 0.00449573 0.000260158
0.0295171 0.00361155 -1.86364e-05
0.0261004 0.00272818 -0.000208937
0.0235196 0.00194098 -0.000298365
0.0216167 0.00131032 -0.000303771
0.0202115 0.000859267 -0.000251908
0.0191628 0.000567092 -0.000174166
0.0183776 0.000387685 -9.8923e-05
0.0177958 0.000275094 -4.28531e-05
0.0173743 0.000198178 -9.30523e-06
0.0170781 0.000141154 6.47473e-06
0.0168774 9.76021e-05 1.13269e-05
0.0167466 6.48963e-05 1.08234e-05
0.016665 4.12853e-05 8.42229e-06
0.0166164 2.5005e-05 5.84899e-06
0.016589 1.42853e-05 3.75881e-06
0.0165748 7.54308e-06 2.27189e-06
0.0165682 3.50294e-06 1.29793e-06
0.016566 1.21578e-06 6.97348e-07
0.0165659 1.69906e-08 3.45395e-07
0.0165668 -5.36714e-07 1.49267e-07
0.0165681 -7.28669e-07 4.62782e-08
0.0165693 -7.32686e-07 -3.41923e-09
0.0165705 -6.50716e-07 -2.40313e-08
0.0165714 -5.3936e-07 -2.96912e-08
0.0165721 -4.2771e-07 -2.83293e-08
0.0165727 -3.28895e-07 -2.4194e-08
0.0165731 -2.47282e-07 -1.94232e-08
0.0165734 -1.82793e-07 -1.49904e-08
0.0165736 -1.33384e-07 -1.12554e-08
0.0165738 -9.6388e-08 -8.27521e-09
0.0165739 -6.91905e-08 -5.97815e-09
0.016574 -4.95263e-08 -4.25374e-09
0.016574 -3.55707e-08 -2.98943e-09
0.0165741 -2.59494e-08 -2.09154e-09
0.0165741 -1.96549e-08 -1.40158e-09
0.0165741 -1.60645e-08 -5.96147e-10
0.0165741 -1.49762e-08 1.52828e-09
0.0165742 -1.96568e-08 5.46982e-09
0.0165742 -5.31072e-08 -2.81628e-09
0.0165743 -8.19614e-08 -1.34043e-08
0.01 -1.39288e-07 -1.45864e-06
0.0100007 -0.00298939 -0.000599344
0.0147878 -0.00994949 -0.000789939
0.0241643 -0.0177183 -0.00125407
0.0385156 -0.0324815 -0.00335772
0.0591604 -0.024775 -0.000820193
0.0564093 -0.00270572 0.00316963
0.0558464 0.00511944 0.00338257
0.050062 0.0101124 0.00299297
0.04458 0.0102789 0.00208139
0.0400714 0.00921845 0.00111652
0.036356 0.0078018 0.000365971
0.0333829 0.00629886 -0.000149529
0.0311054 0.00489194 -0.000443034
0.0293635 0.00369924 -0.000532071
0.0280128 0.0027491 -0.00047083
0.0269679 0.00201358 -0.000336762
0.0261779 0.00145234 -0.000197896
0.025601 0.00102918 -9.17633e-05
0.0251952 0.000714228 -2.65726e-05
0.024921 0.000483461 5.69222e-06
0.0247437 0.000317818 1.72296e-05
0.0246349 0.000202011 1.81692e-05
0.0245722 0.000123527 1.49469e-05
0.0245392 7.21307e-05 1.0894e-05
0.0245242 3.96895e-05 7.37813e-06
0.0245194 2.00181e-05 4.75325e-06
0.0245197 8.63179e-06 2.94996e-06
0.0245225 2.42148e-06 1.77547e-06
0.0245259 -6.82031e-07 1.03907e-06
0.0245293 -2.00494e-06 5.9102e-07
0.0245322 -2.36649e-06 3.25543e-07
0.0245346 -2.25322e-06 1.72267e-07
0.0245365 -1.941e-06 8.62049e-08
0.0245379 -1.57707e-06 3.9448e-08
0.0245389 -1.23312e-06 1.51076e-08
0.0245397 -9.38511e-07 3.19745e-09
0.0245403 -7.00276e-07 -2.05145e-09
0.0245407 -5.14793e-07 -3.88899e-09
0.024541 -3.74211e-07 -4.09174e-09
0.0245412 -2.698e-07 -3.59334e-09
0.0245413 -1.93522e-07 -2.86494e-09
0.0245414 -1.38652e-07 -2.13761e-09
0.0245415 -9.98835e-08 -1.50152e-09
0.0245415 -7.32846e-08 -9.85263e-10
0.0245416 -5.61695e-08 -3.96013e-10
0.0245416 -4.73777e-08 8.82782e-10
0.0245416 -5.07261e-08 3.80925e-09
0.0245417 -7.51404e-08 6.93849e-09
0.0245417 -1.4044e-07 -1.25116e-08
0.0245418 -1.87027e-07 -3.3083e-08
0.0148 -9.63098e-07 -1.75086e-06
0.0148024 -0.00529308 -0.00112806
0.0203738 -0.0164101 -0.00244281
0.0275148 -0.0287789 -0.00394071
0.0321475 -0.0461178 -0.00576502
0.0306264 -0.0284757 -0.00141286
0.026856 -1.23375e-05 0.00329338
0.0262988 0.00707717 0.00351836
0.0298221 0.0144673 0.00342216
0.0301755 0.0139314 0.00244092
0.0293698 0.0121739 0.00145917
0.0285377 0.0103366 0.000612309
0.0279026 0.00843526 7.80462e-06
0.0275795 0.00662547 -0.000342159
0.0274508 0.00506453 -0.000452076
0.0274211 0.00377216 -0.000397855
0.0274452 0.00273134 -0.000271572
0.0274988 0.00192335 -0.000142557
0.0275646 0.00132045 -4.55287e-05
0.0276308 0.000884735 1.21238e-05
0.0276921 0.000576943 3.76237e-05
0.027747 0.000363821 4.26165e-05
0.0277957 0.000219757 3.73913e-05
0.027838 0.00012538 2.88061e-05
0.0278737 6.59302e-05 2.04631e-05
0.0279028 3.02245e-05 1.37495e-05
0.0279258 1.00235e-05 8.86956e-06
0.0279434 -4.97825e-07 5.54246e-06
0.0279565 -5.27338e-06 3.3723e-06
0.0279661 -6.83969e-06 2.00299e-06
0.0279729 -6.75727e-06 1.16202e-06
0.0279777 -5.9387e-06 6.57651e-07
0.0279811 -4.88597e-06 3.61883e-07
0.0279834 -3.8527e-06 1.92357e-07
0.027985 -2.94965e-06 9.75752e-08
0.0279861 -2.21028e-06 4.60989e-08
0.0279869 -1.62977e-06 1.91541e-08
0.0279874 -1.18703e-06 5.76173e-09
0.0279877 -8.56452e-07 -3.63306e-10
0.027988 -6.13592e-07 -2.73658e-09
0.0279881 -4.37478e-07 -3.27083e-09
0.0279882 -3.11218e-07 -2.9772e-09
0.0279883 -2.2178e-07 -2.38089e-09
0.0279884 -1.59481e-07 -1.7062e-09
0.0279884 -1.1746e-07 -9.8319e-10
0.0279884 -9.18127e-08 -2.41719e-11
0.0279885 -8.1682e-08 1.77028e-09
0.0279885 -9.00958e-08 3.77708e-09
0.0279885 -1.22222e-07 -1.99722e-10
0.0279886 -1.74494e-07 -3.07317e-08
0.0279886 -2.04185e-07 -5.64985e-08
0.018 -1.94135e-06 -1.70245e-06
0.018003 -0.00698831 -0.00187906
0.0207649 -0.0189578 -0.00492162
0.0207093 -0.0249231 -0.00633231
0.0160788 -0.0269597 -0.00761769
-1.60497e-06 -0.0140157 -0.00432895
9.7565e-05 2.64098e-05 9.21824e-07
-3.34529e-05 3.48088e-05 0.00065189
0.00659286 0.00411501 0.00142961
0.0135074 0.00936048 0.00139181
0.0169372 0.0102152 0.0009772
0.0186994 0.00925778 0.000430827
0.0203813 0.00767764 -5.8803e-05
0.0220706 0.00596131 -0.00032031
0.0236028 0.00445877 -0.000373333
0.0249089 0.00321251 -0.000307969
0.0259868 0.00221745 -0.000200707
0.0268532 0.00146652 -9.67066e-05
0.0275279 0.000933117 -1.71291e-05
0.0280351 0.000571433 3.17841e-05
0.0284052 0.000333066 5.32492e-05
0.0286698 0.000179295 5.55171e-05
0.0288566 8.30681e-05 4.75753e-05
0.0289872 2.58994e-05 3.62791e-05
0.0290777 -5.2891e-06 2.55558e-05
0.0291397 -1.99482e-05 1.69931e-05
0.0291815 -2.47752e-05 1.08106e-05
0.0292093 -2.42837e-05 6.63492e-06
0.0292276 -2.13204e-05 3.94715e-06
0.0292394 -1.75454e-05 2.28056e-06
0.029247 -1.38354e-05 1.279e-06
0.0292518 -1.05868e-05 6.93864e-07
0.0292548 -7.92444e-06 3.61299e-07
0.0292567 -5.83414e-06 1.77728e-07
0.0292579 -4.24117e-06 7.97759e-08
0.0292586 -3.05316e-06 2.97345e-08
0.0292591 -2.18135e-06 5.7347e-09
0.0292594 -1.5494e-06 -4.59539e-09
0.0292596 -1.09571e-06 -8.07453e-09
0.0292597 -7.72524e-07 -8.34934e-09
0.0292598 -5.43855e-07 -7.29519e-09
0.0292598 -3.83164e-07 -5.8294e-09
0.0292599 -2.71234e-07 -4.36917e-09
0.0292599 -1.94507e-07 -3.04355e-09
0.0292599 -1.43898e-07 -1.82662e-09
0.0292599 -1.13846e-07 -7.45522e-10
0.0292599 -1.01151e-07 2.23895e-10
0.0292599 -1.02416e-07 -3.03257e-10
0.0292599 -1.14716e-07 -1.21436e-08
0.0292599 -1.24634e-07 -4.70387e-08
0.0292598 -1.25829e-07 -7.11045e-08
0.0196 -2.81177e-06 -2.57051e-06
0.019601 -0.00589209 -0.00274477
0.0190602 -0.0131459 -0.00647411
0.0159568 -0.016156 -0.0066796
0.0109167 -0.0151335 -0.00668521
0.0017433 -0.0062341 -0.00503855
7.26789e-05 -6.6738e-05 -0.00130111
3.32851e-05 -3.32851e-05 -4.09081e-08
-3.28421e-05 3.40637e-05 0.000256244
0.00395186 0.0028067 0.000545224
0.00907065 0.00658566 0.000474168
0.0119924 0.0069035 0.000124267
0.0152403 0.00539555 -0.000255576
0.018395 0.00386771 -0.00041034
0.021096 0.00266402 -0.00039741
0.0232812 0.0017184 -0.000314193
0.0250074 0.000991559 -0.000216034
0.0263459 0.000478895 -0.000124466
0.0273549 0.000159226 -4.8794e-05
0.0280876 -1.52689e-05 4.48991e-06
0.0286001 -9.76027e-05 3.34897e-05
0.0289473 -0.000127932 4.24836e-05
0.0291767 -0.000130666 3.91429e-05
0.0293254 -0.000119416 3.06247e-05
0.0294199 -0.000101948 2.15591e-05
0.0294788 -8.28965e-05 1.40686e-05
0.0295148 -6.49435e-05 8.65698e-06
0.0295364 -4.94252e-05 5.07142e-06
0.0295489 -3.67739e-05 2.83946e-06
0.0295561 -2.68854e-05 1.51703e-06
0.02956 -1.93926e-05 7.66539e-07
0.0295621 -1.38451e-05 3.58138e-07
0.0295631 -9.80837e-06 1.45965e-07
0.0295636 -6.90864e-06 4.20718e-08
0.0295638 -4.84555e-06 -4.42869e-09
0.0295639 -3.38806e-06 -2.19217e-08
0.0295639 -2.36377e-06 -2.56768e-08
0.0295638 -1.64673e-06 -2.35843e-08
0.0295638 -1.14628e-06 -1.95204e-08
0.0295637 -7.97884e-07 -1.52509e-08
0.0295637 -5.55979e-07 -1.1473e-08
0.0295637 -3.88616e-07 -8.38036e-09
0.0295637 -2.73575e-07 -5.96193e-09
0.0295636 -1.95549e-07 -4.14243e-09
0.0295636 -1.43988e-07 -2.91706e-09
0.0295636 -1.11071e-07 -2.44876e-09
0.0295636 -9.02985e-08 -2.94933e-09
0.0295636 -7.46685e-08 -5.33327e-09
0.0295635 -5.64276e-08 -2.01413e-08
0.0295635 -2.13123e-08 -5.27308e-08
0.0295634 3.09204e-09 -7.23885e-08
0.0196 -1.35195e-06 -3.58076e-06
0.0195999 -0.00367953 -0.00312492
0.0187774 -0.00806782 -0.0065131
0.0175301 -0.00807979 -0.00604991
0.0132187 -0.00424188 -0.00554632
0.00912213 0.00262033 -0.00532364
0.00615724 0.00317206 -0.00309959
7.2844e-05 -6.0632e-05 -0.000664289
2.77899e-05 -2.77899e-05 -1.27223e-07
-3.22992e-05 3.33849e-05 9.20687e-05
0.00276736 0.00201851 0.000354616
0.00712115 0.00319019 0.000260124
0.0124187 0.00161452 -0.000152226
0.0170667 0.000524536 -0.000328121
0.020668 -3.85983e-05 -0.00033321
0.0233373 -0.000387332 -0.000276751
0.0252872 -0.000625746 -0.000213376
0.0266917 -0.000746207 -0.000153357
0.0276737 -0.000746785 -9.57648e-05
0.0283298 -0.000663413 -4.58542e-05
0.0287454 -0.000544483 -1.08359e-05
0.028995 -0.000424926 7.60554e-06
0.029137 -0.000321083 1.3493e-05
0.0292133 -0.000237176 1.25598e-05
0.0292514 -0.000172083 9.22724e-06
0.0292683 -0.000122985 5.8677e-06
0.0292742 -8.67923e-05 3.3346e-06
0.0292747 -6.06341e-05 1.69851e-06
0.029273 -4.20387e-05 7.51703e-07
0.0292706 -2.89921e-05 2.54552e-07
0.0292682 -1.9928e-05 2.0674e-08
0.0292661 -1.36733e-05 -7.22051e-08
0.0292645 -9.37585e-06 -9.62064e-08
0.0292633 -6.43009e-06 -9.04667e-08
0.0292623 -4.41273e-06 -7.45825e-08
0.0292616 -3.03113e-06 -5.74542e-08
0.0292611 -2.08437e-06 -4.2534e-08
0.0292608 -1.43504e-06 -3.07168e-08
0.0292605 -9.89346e-07 -2.18298e-08
0.0292603 -6.83266e-07 -1.53471e-08
0.0292602 -4.73101e-07 -1.07013e-08
0.0292601 -3.28981e-07 -7.41682e-09
0.0292601 -2.30402e-07 -5.16779e-09
0.02926 -1.6305e-07 -3.76088e-09
0.02926 -1.16527e-07 -3.16872e-09
0.0292599 -8.2665e-08 -3.43119e-09
0.0292599 -5.43968e-08 -4.57277e-09
0.0292599 -2.42386e-08 -7.03374e-09
0.0292598 1.88511e-08 -1.94382e-08
0.0292598 8.80024e-08 -4.56018e-08
0.0292597 1.30655e-07 -6.10307e-08
0.018 -8.64162e-07 -3.5699e-06
0.0180009 -0.00200317 -0.00304733
0.0183214 -0.00385618 -0.0061546
0.0183852 -0.00262839 -0.00528595
0.0173784 0.000677625 -0.00420434
0.0171089 0.00711667 -0.00396681
0.0178447 0.0125977 -0.00298531
0.0109662 0.00693317 -0.00147846
7.43318e-05 -4.69322e-05 -0.000430492
-2.53508e-05 -5.46167e-05 5.55838e-07
7.87908e-06 -0.00066715 0.000743361
0.00834176 -0.00276837 0.00108328
0.0157141 -0.00434142 0.000463806
0.0207341 -0.00407347 0.000165308
0.0239099 -0.00328341 5.12825e-05
0.0258791 -0.00259926 -7.32684e-06
0.0270809 -0.00210298 -5.98176e-05
0.0277814 -0.00170665 -9.97635e-05
0.0281485 -0.00134591 -0.000110408
0.0283014 -0.00101593 -9.35642e-05
0.0283291 -0.000735918 -6.51057e-05
0.0282945 -0.000517023 -3.91589e-05
0.0282372 -0.000356025 -2.13327e-05
0.0281787 -0.000242073 -1.10596e-05
0.0281282 -0.000163255 -5.76018e-06
0.0280884 -0.000109527 -3.16551e-06
0.0280587 -7.32708e-05 -1.8794e-06
0.0280372 -4.89764e-05 -1.19282e-06
0.0280221 -3.27679e-05 -7.86427e-07
0.0280116 -2.19732e-05 -5.24636e-07
0.0280043 -1.47806e-05 -3.48508e-07
0.0279994 -9.97746e-06 -2.28861e-07
0.0279959 -6.75916e-06 -1.48279e-07
0.0279936 -4.59429e-06 -9.48529e-08
0.027992 -3.13216e-06 -6.00245e-08
0.0279909 -2.1409e-06 -3.76667e-08
0.0279902 -1.4666e-06 -2.34978e-08
0.0279896 -1.00665e-06 -1.46085e-08
0.0279893 -6.92233e-07 -9.07274e-09
0.027989 -4.76996e-07 -5.64394e-09
0.0279889 -3.29509e-07 -3.53338e-09
0.0279887 -2.28294e-07 -2.2666e-09
0.0279887 -1.58447e-07 -1.59191e-09
0.0279886 -1.09344e-07 -1.37391e-09
0.0279886 -7.30455e-08 -1.57872e-09
0.0279885 -4.30922e-08 -2.16373e-09
0.0279885 -1.34396e-08 -3.04178e-09
0.0279885 2.26642e-08 -4.46351e-09
0.0279884 7.69984e-08 -1.11717e-08
0.0279884 1.58074e-07 -2.9235e-08
0.0279884 2.05416e-07 -4.15107e-08
0.0148 -4.85252e-07 -3.16271e-06
0.0148015 -0.00103053 -0.00282552
0.0162346 -0.00162672 -0.00541976
0.0178119 5.38953e-06 -0.00429326
0.0191591 0.00321944 -0.00308302
0.0209199 0.00738608 -0.00286146
0.0247394 0.0129812 -0.00241194
0.0280302 0.019524 -0.0015037
0.0230402 0.0113115 -0.000333806
0.0234854 9.40826e-11 0.000627878
0.0266288 -0.00668697 0.00155778
0.0301037 -0.0130643 0.00210706
0.0310066 -0.0110243 0.00164524
0.0304746 -0.0077521 0.00116668
0.0294652 -0.00516032 0.000732748
0.0284291 -0.00344599 0.00037479
0.0275237 -0.00234707 0.000105902
0.0267789 -0.00160777 -6.32211e-05
0.0261843 -0.00108347 -0.000134618
0.0257215 -0.000710877 -0.000135378
0.0253716 -0.000456477 -0.000103481
0.0251147 -0.000290728 -6.72923e-05
0.0249313 -0.000185965 -3.93349e-05
0.0248036 -0.000120302 -2.1397e-05
0.0247165 -7.88305e-05 -1.10885e-05
0.0246578 -5.22523e-05 -5.55853e-06
0.0246188 -3.49603e-05 -2.71665e-06
0.024593 -2.35646e-05 -1.29448e-06
0.0245759 -1.59767e-05 -5.95147e-07
0.0245646 -1.08823e-05 -2.5647e-07
0.0245571 -7.43901e-06 -9.58055e-08
0.0245521 -5.09903e-06 -2.23584e-08
0.0245488 -3.50205e-06 8.77819e-09
0.0245465 -2.40859e-06 1.97909e-08
0.024545 -1.6581e-06 2.16204e-08
0.0245439 -1.14216e-06 1.96181e-08
0.0245432 -7.871e-07 1.63451e-08
0.0245427 -5.42617e-07 1.29694e-08
0.0245424 -3.74241e-07 9.96865e-09
0.0245421 -2.58252e-07 7.4865e-09
0.024542 -1.78242e-07 5.51351e-09
0.0245419 -1.22754e-07 3.97363e-09
0.0245418 -8.36495e-08 2.76612e-09
0.0245417 -5.49478e-08 1.81059e-09
0.0245417 -3.1946e-08 1.02966e-09
0.0245417 -1.05426e-08 4.15259e-10
0.0245416 1.3475e-08 9.15176e-11
0.0245416 4.45434e-08 -1.50668e-10
0.0245416 8.95029e-08 -1.88917e-09
0.0245417 1.50586e-07 -1.40778e-08
0.0245418 1.84567e-07 -2.47055e-08
0.01 -9.26246e-07 -2.8638e-06
0.0100008 -0.000631831 -0.00230104
0.0113286 -0.000702845 -0.00414142
0.0132118 0.000569773 -0.00291882
0.0156799 0.00254287 -0.00183358
0.0196168 0.00558709 -0.00184441
0.0255496 0.00836831 -0.00237993
0.0346499 0.0101224 -0.00209503