# vtk DataFile Version 2.0
Tobias Weinzierl: CPU, Manycore and Cluster Computing
ASCII

DATASET STRUCTURED_POINTS
DIMENSIONS  51 11 6

ORIGIN 0 0 0 

SPACING 0.1 0.1 0.1 

POINT_DATA 3366

VECTORS velocity float
0 0 0
-7.39236e-11 0 0
-2.17119e-07 0 0
-2.80921e-07 0 0
-2.56011e-07 0 0
-1.63234e-07 0 0
-2.16663e-07 0 0
-2.65816e-07 0 0
-2.88634e-07 0 0
-2.85328e-07 0 0
-2.75446e-07 0 0
-2.69866e-07 0 0
-2.69122e-07 0 0
-2.71304e-07 0 0
-2.74835e-07 0 0
-2.78625e-07 0 0
-2.82067e-07 0 0
-2.84926e-07 0 0
-2.87182e-07 0 0
-2.88908e-07 0 0
-2.90206e-07 0 0
-2.91175e-07 0 0
-2.91896e-07 0 0
-2.92432e-07 0 0
-2.92834e-07 0 0
-2.93137e-07 0 0
-2.93367e-07 0 0
-2.93544e-07 0 0
-2.93681e-07 0 0
-2.93789e-07 0 0
-2.93874e-07 0 0
-2.93943e-07 0 0
-2.93999e-07 0 0
-2.94045e-07 0 0
-2.94083e-07 0 0
-2.94116e-07 0 0
-2.94143e-07 0 0
-2.94166e-07 0 0
-2.94186e-07 0 0
-2.94203e-07 0 0
-2.94217e-07 0 0
-2.9423e-07 0 0
-2.94241e-07 0 0
-2.9425e-07 0 0
-2.94259e-07 0 0
-2.94266e-07 0 0
-2.94273e-07 0 0
-2.94281e-07 0 0
-2.94292e-07 0 0
-2.94311e-07 0 0
0.00435431 0 0
0 1.76514e-07 0
-1.36244e-10 1.47439e-07 0
-4.2155e-07 2.17084e-07 0
-4.90567e-07 9.59555e-08 0
-3.99565e-07 -4.28386e-09 0
-1.81125e-07 2.91649e-08 0
-2.45242e-07 9.9069e-08 0
-3.14133e-07 5.1656e-08 0
-3.27704e-07 7.41778e-09 0
-3.30501e-07 -1.18389e-08 0
-3.31064e-07 -9.06789e-09 0
-3.46502e-07 -5.63998e-10 0
-3.66927e-07 5.00023e-09 0
-3.85921e-07 7.44534e-09 0
-4.0199e-07 7.97228e-09 0
-4.14843e-07 7.37206e-09 0
-4.24673e-07 6.24819e-09 0
-4.31956e-07 5.01075e-09 0
-4.37247e-07 3.877e-09 0
-4.41054e-07 2.93093e-09 0
-4.43787e-07 2.18316e-09 0
-4.45755e-07 1.61142e-09 0
-4.4718e-07 1.18313e-09 0
-4.48223e-07 8.66268e-10 0
-4.48994e-07 6.33516e-10 0
-4.4957e-07 4.63192e-10 0
-4.50006e-07 3.38757e-10 0
-4.5034e-07 2.4788e-10 0
-4.50599e-07 1.81488e-10 0
-4.50804e-07 1.32952e-10 0
-4.50967e-07 9.74421e-11 0
-4.51098e-07 7.14427e-11 0
-4.51206e-07 5.23942e-11 0
-4.51295e-07 3.84307e-11 0
-4.51369e-07 2.81906e-11 0
-4.51432e-07 2.06789e-11 0
-4.51485e-07 1.51681e-11 0
-4.5153e-07 1.11259e-11 0
-4.51569e-07 8.16373e-12 0
-4.51603e-07 5.99885e-12 0
-4.51632e-07 4.42861e-12 0
-4.51656e-07 3.31321e-12 0
-4.51678e-07 2.56706e-12 0
-4.51697e-07 2.16012e-12 0
-4.51714e-07 2.13463e-12 0
-4.51728e-07 2.65822e-12 0
-4.51742e-07 4.18372e-12 0
-4.51756e-07 7.8213e-12 0
-4.51773e-07 1.61672e-11 0
-4.518e-07 3.63435e-11 0
0.0100713 -3.37711e-07 0
0 1.62743e-08 0
-9.78345e-11 1.95401e-07 0
-4.134e-07 2.7269e-07 0
-3.85178e-07 1.18139e-07 0
-2.125e-07 -2.94996e-08 0
-2.22194e-07 -8.66375e-09 0
-2.62735e-07 9.17336e-08 0
-3.34953e-07 3.95868e-09 0
-1.46293e-07 -2.47753e-08 0
-9.66704e-08 1.81075e-08 0
-1.03462e-07 4.78759e-08 0
-1.39218e-07 6.16862e-08 0
-1.77486e-07 5.5017e-08 0
-2.07101e-07 4.29686e-08 0
-2.29036e-07 3.23744e-08 0
-2.44813e-07 2.39417e-08 0
-2.55839e-07 1.74208e-08 0
-2.63401e-07 1.25194e-08 0
-2.68549e-07 8.92837e-09 0
-2.72064e-07 6.34636e-09 0
-2.74486e-07 4.51132e-09 0
-2.76181e-07 3.21436e-09 0
-2.77385e-07 2.29861e-09 0
-2.78257e-07 1.65066e-09 0
-2.78899e-07 1.19038e-09 0
-2.7938e-07 8.61833e-10 0
-2.79746e-07 6.26123e-10 0
-2.8003e-07 4.56205e-10 0
-2.80252e-07 3.33186e-10 0
-2.8043e-07 2.43795e-10 0
-2.80573e-07 1.78643e-10 0
-2.80691e-07 1.31042e-10 0
-2.80788e-07 9.61986e-11 0
-2.8087e-07 7.06562e-11 0
-2.80939e-07 5.19121e-11 0
-2.80998e-07 3.81462e-11 0
-2.81048e-07 2.80312e-11 0
-2.81091e-07 2.05974e-11 0
-2.81129e-07 1.51365e-11 0
-2.81161e-07 1.1132e-11 0
-2.81189e-07 8.21183e-12 0
-2.81214e-07 6.11531e-12 0
-2.81235e-07 4.67542e-12 0
-2.81253e-07 3.81568e-12 0
-2.81269e-07 3.56487e-12 0
-2.81283e-07 4.07755e-12 0
-2.81294e-07 5.61976e-12 0
-2.81305e-07 8.73872e-12 0
-2.81316e-07 1.50478e-11 0
-2.81329e-07 2.71104e-11 0
0.0115505 -3.17377e-07 0
0 -1.9846e-07 0
-5.4108e-11 1.47086e-07 0
-4.42634e-07 1.70236e-07 0
-3.78362e-07 4.00752e-08 0
-1.56311e-07 1.03332e-07 0
-2.04294e-07 8.64038e-08 0
-2.34116e-07 2.62621e-11 0
-2.86645e-07 -2.74334e-07 0
-4.1101e-07 -3.48412e-07 0
-2.59142e-07 -4.7158e-08 0
-1.98153e-07 8.76286e-08 0
-1.87879e-07 1.17683e-07 0
-1.95024e-07 9.88432e-08 0
-2.05009e-07 7.18234e-08 0
-2.15106e-07 5.11099e-08 0
-2.23337e-07 3.60432e-08 0
-2.29318e-07 2.52045e-08 0
-2.3346e-07 1.75486e-08 0
-2.36304e-07 1.22229e-08 0
-2.38278e-07 8.54763e-09 0
-2.39678e-07 6.01433e-09 0
-2.40693e-07 4.26159e-09 0
-2.41446e-07 3.0408e-09 0
-2.42015e-07 2.18368e-09 0
-2.42452e-07 1.57692e-09 0
-2.42793e-07 1.14405e-09 0
-2.43062e-07 8.33131e-10 0
-2.43278e-07 6.085e-10 0
-2.43453e-07 4.45441e-10 0
-2.43596e-07 3.2663e-10 0
-2.43715e-07 2.39806e-10 0
-2.43815e-07 1.76215e-10 0
-2.43899e-07 1.29564e-10 0
-2.43971e-07 9.5297e-11 0
-2.44033e-07 7.01052e-11 0
-2.44087e-07 5.15734e-11 0
-2.44134e-07 3.79348e-11 0
-2.44174e-07 2.78949e-11 0
-2.4421e-07 2.0504e-11 0
-2.44241e-07 1.50666e-11 0
-2.44268e-07 1.10758e-11 0
-2.44291e-07 8.16732e-12 0
-2.44312e-07 6.08879e-12 0
-2.44329e-07 4.67954e-12 0
-2.44344e-07 3.86115e-12 0
-2.44357e-07 3.66691e-12 0
-2.44368e-07 4.37459e-12 0
-2.44377e-07 6.55346e-12 0
-2.44385e-07 1.09425e-11 0
-2.44396e-07 1.79733e-11 0
0.0116738 -2.17557e-07 0
0 -3.61439e-07 0
-3.52925e-11 6.72174e-08 0
-5.0201e-07 4.11272e-08 0
-4.62283e-07 -2.13801e-08 0
-2.37137e-07 5.11847e-08 0
4.02091e-12 4.6457e-08 0
2.96338e-10 1.85133e-10 0
-2.29784e-10 1.90596e-10 0
-3.03795e-07 -1.91655e-07 0
-4.04553e-07 -2.32828e-07 0
-2.93218e-07 -4.36948e-09 0
-2.7129e-07 8.75593e-08 0
-2.56485e-07 9.24305e-08 0
-2.45613e-07 7.32844e-08 0
-2.40744e-07 5.4357e-08 0
-2.38762e-07 3.86761e-08 0
-2.38004e-07 2.69447e-08 0
-2.37816e-07 1.86861e-08 0
-2.37914e-07 1.30207e-08 0
-2.38148e-07 9.15284e-09 0
-2.38437e-07 6.49586e-09 0
-2.38734e-07 4.651e-09 0
-2.39014e-07 3.35489e-09 0
-2.39267e-07 2.4343e-09 0
-2.39489e-07 1.77433e-09 0
-2.3968e-07 1.29765e-09 0
-2.39845e-07 9.51355e-10 0
-2.39987e-07 6.98688e-10 0
-2.40108e-07 5.13742e-10 0
-2.40213e-07 3.78056e-10 0
-2.40304e-07 2.78347e-10 0
-2.40384e-07 2.04994e-10 0
-2.40453e-07 1.5099e-10 0
-2.40514e-07 1.11213e-10 0
-2.40569e-07 8.19044e-11 0
-2.40616e-07 6.03055e-11 0
-2.40659e-07 4.43854e-11 0
-2.40696e-07 3.26488e-11 0
-2.40729e-07 2.39937e-11 0
-2.40758e-07 1.76079e-11 0
-2.40784e-07 1.28938e-11 0
-2.40807e-07 9.41287e-12 0
-2.40826e-07 6.8483e-12 0
-2.40843e-07 4.98391e-12 0
-2.40858e-07 3.7058e-12 0
-2.4087e-07 3.01674e-12 0
-2.40881e-07 3.03934e-12 0
-2.40889e-07 4.0123e-12 0
-2.40896e-07 6.1151e-12 0
-2.40906e-07 9.24892e-12 0
0.0116809 -1.09092e-07 0
0 -3.10997e-07 0
-1.94358e-11 1.49463e-08 0
-5.33726e-07 -3.4514e-09 0
-5.25823e-07 -4.30174e-08 0
-3.34079e-07 -4.83114e-08 0
-1.24665e-07 -2.37052e-08 0
2.63326e-10 -2.71858e-10 0
4.0274e-11 -4.0274e-11 0
-2.35289e-10 2.24034e-10 0
-1.96915e-07 -1.0163e-07 0
-2.46089e-07 -6.283e-08 0
-3.20163e-07 8.86248e-08 0
-3.16376e-07 8.61729e-08 0
-2.8846e-07 6.31243e-08 0
-2.6753e-07 4.5785e-08 0
-2.5491e-07 3.2311e-08 0
-2.47798e-07 2.26622e-08 0
-2.43905e-07 1.60357e-08 0
-2.4181e-07 1.14882e-08 0
-2.40707e-07 8.32094e-09 0
-2.40147e-07 6.07642e-09 0
-2.39884e-07 4.46196e-09 0
-2.39784e-07 3.28777e-09 0
-2.3977e-07 2.42735e-09 0
-2.39802e-07 1.79386e-09 0
-2.39857e-07 1.32619e-09 0
-2.39922e-07 9.80425e-10 0
-2.3999e-07 7.24648e-10 0
-2.40057e-07 5.35417e-10 0
-2.40122e-07 3.95446e-10 0
-2.40184e-07 2.91947e-10 0
-2.40241e-07 2.15447e-10 0
-2.40295e-07 1.58927e-10 0
-2.40344e-07 1.17186e-10 0
-2.4039e-07 8.63711e-11 0
-2.40431e-07 6.3628e-11 0
-2.40468e-07 4.68451e-11 0
-2.40502e-07 3.44594e-11 0
-2.40533e-07 2.53144e-11 0
-2.4056e-07 1.85539e-11 0
-2.40584e-07 1.35431e-11 0
-2.40606e-07 9.81138e-12 0
-2.40625e-07 7.01057e-12 0
-2.40641e-07 4.88632e-12 0
-2.40656e-07 3.25956e-12 0
-2.40668e-07 2.01864e-12 0
-2.40678e-07 1.11491e-12 0
-2.40685e-07 5.52492e-13 0
-2.40692e-07 2.79015e-13 0
-2.40701e-07 1.16031e-13 0
0.0116812 1.32913e-10 0
0 -2.14902e-07 0
-1.48865e-11 -3.29741e-08 0
-5.17268e-07 -6.10132e-08 0
-5.25843e-07 -4.51311e-08 0
-3.67354e-07 -3.65886e-08 0
-2.55924e-07 -1.15835e-07 0
-1.61799e-07 -9.6344e-08 0
2.56354e-10 -2.87627e-10 0
5.02831e-11 -5.02831e-11 0
-2.30364e-10 2.40259e-10 0
-1.03187e-07 1.07902e-07 0
-3.95328e-07 1.64754e-07 0
-4.09259e-07 7.85271e-08 0
-3.32678e-07 3.51569e-08 0
-2.84799e-07 2.36691e-08 0
-2.62514e-07 1.81489e-08 0
-2.52065e-07 1.42547e-08 0
-2.46846e-07 1.11973e-08 0
-2.44079e-07 8.7319e-09 0
-2.42536e-07 6.74876e-09 0
-2.4164e-07 5.17156e-09 0
-2.41105e-07 3.93335e-09 0
-2.40781e-07 2.97284e-09 0
-2.40586e-07 2.23532e-09 0
-2.40474e-07 1.67378e-09 0
-2.40416e-07 1.24911e-09 0
-2.40394e-07 9.29682e-10 0
-2.40395e-07 6.90447e-10 0
-2.40412e-07 5.11883e-10 0
-2.40438e-07 3.78964e-10 0
-2.40471e-07 2.80237e-10 0
-2.40507e-07 2.07032e-10 0
-2.40545e-07 1.52826e-10 0
-2.40582e-07 1.12734e-10 0
-2.40619e-07 8.31048e-11 0
-2.40653e-07 6.1223e-11 0
-2.40686e-07 4.50687e-11 0
-2.40716e-07 3.31429e-11 0
-2.40744e-07 2.43335e-11 0
-2.40769e-07 1.78148e-11 0
-2.40792e-07 1.29716e-11 0
-2.40813e-07 9.3423e-12 0
-2.40831e-07 6.57419e-12 0
-2.40847e-07 4.38712e-12 0
-2.40861e-07 2.54167e-12 0
-2.40873e-07 8.1172e-13 0
-2.40883e-07 -1.02723e-12 0
-2.40891e-07 -3.17843e-12 0
-2.40897e-07 -5.81747e-12 0
-2.40907e-07 -9.13852e-12 0
0.0116809 1.09283e-07 0
0 -1.53423e-07 0
-3.97076e-11 -7.31367e-08 0
-4.7928e-07 -1.08671e-07 0
-4.95338e-07 -5.35594e-08 0
-3.67991e-07 -4.31526e-08 0
-2.86e-07 -6.41244e-08 0
-2.9424e-07 -1.87826e-07 0
-2.13718e-07 -1.48843e-07 0
2.47671e-10 -3.27172e-10 0
-2.03506e-10 -3.93468e-10 0
5.0315e-11 3.03091e-07 0
-4.1685e-07 3.77335e-07 0
-4.64754e-07 5.26338e-08 0
-3.50332e-07 -3.32441e-08 0
-2.84686e-07 -1.22816e-08 0
-2.61089e-07 2.4982e-09 0
-2.52892e-07 6.83808e-09 0
-2.49548e-07 7.28366e-09 0
-2.47812e-07 6.49203e-09 0
-2.46707e-07 5.3777e-09 0
-2.45921e-07 4.28269e-09 0
-2.4534e-07 3.3302e-09 0
-2.44911e-07 2.54979e-09 0
-2.44599e-07 1.9319e-09 0
-2.44377e-07 1.45303e-09 0
-2.44226e-07 1.0871e-09 0
-2.44128e-07 8.10165e-10 0
-2.44069e-07 6.02023e-10 0
-2.44039e-07 4.46365e-10 0
-2.44031e-07 3.30387e-10 0
-2.44037e-07 2.44213e-10 0
-2.44053e-07 1.80321e-10 0
-2.44075e-07 1.33027e-10 0
-2.44101e-07 9.80626e-11 0
-2.4413e-07 7.22391e-11 0
-2.44158e-07 5.31801e-11 0
-2.44186e-07 3.91192e-11 0
-2.44213e-07 2.87456e-11 0
-2.44239e-07 2.10868e-11 0
-2.44262e-07 1.54201e-11 0
-2.44284e-07 1.12054e-11 0
-2.44303e-07 8.03324e-12 0
-2.44321e-07 5.58132e-12 0
-2.44336e-07 3.57521e-12 0
-2.4435e-07 1.74515e-12 0
-2.44363e-07 -2.25933e-13 0
-2.44373e-07 -2.75053e-12 0
-2.44381e-07 -6.31673e-12 0
-2.4439e-07 -1.13489e-11 0
-2.444e-07 -1.82533e-11 0
0.0116738 2.17404e-07 0
0 -1.48807e-07 0
-7.5955e-11 -9.55667e-08 0
-4.33364e-07 -1.36819e-07 0
-4.58878e-07 -5.32983e-08 0
-3.7611e-07 -2.32645e-08 0
-3.30582e-07 -4.83841e-08 0
-3.12258e-07 -9.97399e-08 0
-4.18093e-07 -2.59002e-07 0
-3.95504e-07 -1.96435e-07 0
-3.95537e-07 -1.89991e-11 0
-3.387e-07 4.23903e-07 0
-1.7981e-07 5.21898e-07 0
-1.98631e-07 3.0021e-08 0
-2.47791e-07 -1.04646e-07 0
-2.71534e-07 -4.43164e-08 0
-2.81241e-07 -6.15227e-09 0
-2.84844e-07 4.79529e-09 0
-2.85713e-07 6.48904e-09 0
-2.85406e-07 5.79345e-09 0
-2.84678e-07 4.65863e-09 0
-2.83877e-07 3.60014e-09 0
-2.83153e-07 2.73101e-09 0
-2.82555e-07 2.05099e-09 0
-2.82086e-07 1.53093e-09 0
-2.81734e-07 1.13818e-09 0
-2.81477e-07 8.43837e-10 0
-2.81298e-07 6.24362e-10 0
-2.81177e-07 4.61281e-10 0
-2.811e-07 3.40407e-10 0
-2.81056e-07 2.50979e-10 0
-2.81036e-07 1.8491e-10 0
-2.81032e-07 1.36151e-10 0
-2.8104e-07 1.00196e-10 0
-2.81056e-07 7.37016e-11 0
-2.81076e-07 5.4188e-11 0
-2.81099e-07 3.98211e-11 0
-2.81123e-07 2.92449e-11 0
-2.81146e-07 2.14575e-11 0
-2.81169e-07 1.57182e-11 0
-2.81191e-07 1.14777e-11 0
-2.81211e-07 8.32553e-12 0
-2.8123e-07 5.94834e-12 0
-2.81247e-07 4.09435e-12 0
-2.81263e-07 2.53743e-12 0
-2.81276e-07 1.03134e-12 0
-2.81289e-07 -7.63442e-13 0
-2.813e-07 -3.40299e-12 0
-2.81311e-07 -7.7943e-12 0
-2.81322e-07 -1.51976e-11 0
-2.81336e-07 -2.76014e-11 0
0.0115505 3.16096e-07 0
0 -1.7746e-07 0
-1.05907e-10 -7.55663e-08 0
-4.16651e-07 -1.06401e-07 0
-4.9216e-07 -4.20494e-08 0
-4.75516e-07 -1.51228e-08 0
-4.59618e-07 -3.00195e-09 0
-4.45795e-07 -7.35823e-09 0
-4.35061e-07 -7.05248e-09 0
-5.94616e-07 -1.84353e-08 0
-6.40622e-07 -1.48403e-07 0
-7.31601e-07 -1.68881e-07 0
-4.33432e-07 3.9485e-09 0
-3.89378e-07 9.70109e-08 0
-4.49927e-07 8.80594e-08 0
-4.72298e-07 5.44426e-08 0
-4.72533e-07 2.96029e-08 0
-4.68254e-07 1.60465e-08 0
-4.64104e-07 9.25615e-09 0
-4.60792e-07 5.74821e-09 0
-4.58263e-07 3.78321e-09 0
-4.56363e-07 2.5873e-09 0
-4.5495e-07 1.81197e-09 0
-4.53911e-07 1.28781e-09 0
-4.53154e-07 9.23977e-10 0
-4.52609e-07 6.67142e-10 0
-4.52223e-07 4.83814e-10 0
-4.51954e-07 3.51956e-10 0
-4.51771e-07 2.56603e-10 0
-4.51651e-07 1.8738e-10 0
-4.51576e-07 1.36985e-10 0
-4.51535e-07 1.00221e-10 0
-4.51516e-07 7.33631e-11 0
-4.51513e-07 5.37203e-11 0
-4.5152e-07 3.93439e-11 0
-4.51535e-07 2.88161e-11 0
-4.51553e-07 2.11033e-11 0
-4.51574e-07 1.545e-11 0
-4.51596e-07 1.13036e-11 0
-4.51618e-07 8.25814e-12 0
-4.51638e-07 6.01459e-12 0
-4.51658e-07 4.34994e-12 0
-4.51676e-07 3.09334e-12 0
-4.51693e-07 2.1052e-12 0
-4.51708e-07 1.25419e-12 0
-4.51722e-07 3.84739e-13 0
-4.51735e-07 -7.44341e-13 0
-4.51747e-07 -2.60961e-12 0
-4.5176e-07 -6.3059e-12 0
-4.51776e-07 -1.47556e-11 0
-4.51803e-07 -3.62538e-11 0
0.0100713 3.34029e-07 0
0 0 0
-5.75102e-11 0 0
-2.10681e-07 0 0
-2.69148e-07 0 0
-2.84351e-07 0 0
-2.83772e-07 0 0
-2.65972e-07 0 0
-2.30681e-07 0 0
-1.99141e-07 0 0
-2.45066e-07 0 0
-3.92842e-07 0 0
-4.49313e-07 0 0
-4.21476e-07 0 0
-3.75161e-07 0 0
-3.40662e-07 0 0
-3.20757e-07 0 0
-3.10116e-07 0 0
-3.04272e-07 0 0
-3.00835e-07 0 0
-2.98675e-07 0 0
-2.97248e-07 0 0
-2.96276e-07 0 0
-2.95602e-07 0 0
-2.95132e-07 0 0
-2.94805e-07 0 0
-2.94577e-07 0 0
-2.9442e-07 0 0
-2.94315e-07 0 0
-2.94246e-07 0 0
-2.94203e-07 0 0
-2.94178e-07 0 0
-2.94165e-07 0 0
-2.94162e-07 0 0
-2.94165e-07 0 0
-2.94171e-07 0 0
-2.9418e-07 0 0
-2.9419e-07 0 0
-2.942e-07 0 0
-2.94211e-07 0 0
-2.94221e-07 0 0
-2.94231e-07 0 0
-2.9424e-07 0 0
-2.94248e-07 0 0
-2.94256e-07 0 0
-2.94263e-07 0 0
-2.94269e-07 0 0
-2.94276e-07 0 0
-2.94283e-07 0 0
-2.94292e-07 0 0
-2.94311e-07 0 0
0.00435434 0 0
0 0 1.48869e-07
-1.21017e-10 0 6.95451e-08
-4.52297e-07 0 6.36303e-08
-5.38182e-07 0 -5.71933e-08
-4.24041e-07 0 -1.1353e-07
-8.56042e-08 0 -6.86383e-08
-1.46073e-07 0 3.38769e-09
-2.1529e-07 0 2.01894e-08
-2.59126e-07 0 1.19684e-08
-2.77191e-07 0 -1.4718e-09
-2.9728e-07 0 -6.51429e-09
-3.24696e-07 0 -5.87877e-09
-3.52541e-07 0 -3.68048e-09
-3.76532e-07 0 -1.85018e-09
-3.95894e-07 0 -7.68037e-10
-4.10889e-07 0 -2.56443e-10
-4.22119e-07 0 -6.15654e-11
-4.30324e-07 0 -7.62084e-12
-4.36227e-07 0 -3.44324e-12
-4.4044e-07 0 -1.06602e-11
-4.43442e-07 0 -1.65887e-11
-4.45588e-07 0 -1.88399e-11
-4.47132e-07 0 -1.82326e-11
-4.48253e-07 0 -1.60748e-11
-4.49076e-07 0 -1.33618e-11
-4.49688e-07 0 -1.06801e-11
-4.50148e-07 0 -8.31001e-12
-4.50499e-07 0 -6.34484e-12
-4.5077e-07 0 -4.77969e-12
-4.50982e-07 0 -3.5661e-12
-4.51151e-07 0 -2.64231e-12
-4.51287e-07 0 -1.94822e-12
-4.51398e-07 0 -1.43154e-12
-4.51489e-07 0 -1.04951e-12
-4.51565e-07 0 -7.68433e-13
-4.51629e-07 0 -5.62412e-13
-4.51683e-07 0 -4.11891e-13
-4.51729e-07 0 -3.0232e-13
-4.51768e-07 0 -2.23041e-13
-4.51802e-07 0 -1.6643e-13
-4.51831e-07 0 -1.27245e-13
-4.51856e-07 0 -1.02034e-13
-4.51878e-07 0 -8.81376e-14
-4.51897e-07 0 -8.06698e-14
-4.51914e-07 0 -6.14414e-14
-4.51929e-07 0 4.56611e-14
-4.51943e-07 0 5.42762e-13
-4.51958e-07 0 2.39429e-12
-4.51975e-07 0 8.17161e-12
-4.52004e-07 0 2.50417e-11
0.010071 0 -2.4731e-07
0.0036 1.96561e-07 1.15575e-07
0.00359958 -0.00389337 -0.0018408
0.0118447 -0.00820407 -0.00354477
0.0217135 -0.00897015 -0.00296245
0.0324327 -0.0095423 -0.00210822
0.0457461 -0.00561719 -0.00103028
0.0468273 -0.000256206 -0.000188133
0.0462541 0.00242891 1.87537e-05
0.0409191 0.00409649 -3.54992e-05
0.0357632 0.00401416 -0.000134477
0.0314481 0.00328339 -0.000124681
0.0282903 0.00238719 -8.2451e-05
0.0262136 0.00159613 -4.64239e-05
0.024933 0.00100584 -2.3493e-05
0.024177 0.000605969 -1.09877e-05
0.0237478 0.000350784 -4.86941e-06
0.0235142 0.00019507 -2.10809e-06
0.0233934 0.00010366 -9.33712e-07
0.0233352 5.19293e-05 -4.52106e-07
0.0233104 2.37547e-05 -2.54177e-07
0.0233024 9.08863e-06 -1.66759e-07
0.0233024 1.91157e-06 -1.21368e-07
0.0233056 -1.26397e-06 -9.25896e-08
0.0233097 -2.39719e-06 -7.15047e-08
0.0233136 -2.55466e-06 -5.50435e-08
0.023317 -2.29635e-06 -4.20219e-08
0.0233198 -1.90267e-06 -3.17979e-08
0.0233219 -1.50423e-06 -2.38752e-08
0.0233236 -1.15429e-06 -1.78149e-08
0.0233248 -8.6811e-07 -1.323e-08
0.0233257 -6.43705e-07 -9.79161e-09
0.0233263 -4.72448e-07 -7.23057e-09
0.0233268 -3.44144e-07 -5.33287e-09
0.0233272 -2.4927e-07 -3.93239e-09
0.0233274 -1.79785e-07 -2.90243e-09
0.0233276 -1.29266e-07 -2.1479e-09
0.0233277 -9.27478e-08 -1.59869e-09
0.0233278 -6.649e-08 -1.20459e-09
0.0233279 -4.77208e-08 -9.32003e-10
0.0233279 -3.44259e-08 -7.625e-10
0.023328 -2.51819e-08 -6.93918e-10
0.023328 -1.9044e-08 -7.4476e-10
0.023328 -1.54989e-08 -9.63946e-10
0.023328 -1.45071e-08 -1.45085e-09
0.0233281 -1.67001e-08 -2.39981e-09
0.0233281 -2.38674e-08 -4.20955e-09
0.0233281 -4.01686e-08 -7.97513e-09
0.0233282 -7.81759e-08 -2.06212e-08
0.0233284 -1.95203e-07 -9.16609e-08
0.0233286 -5.37421e-07 -3.65789e-07
0.0233291 -7.89511e-07 -5.78982e-07
0.01 2.18998e-07 3.25941e-08
0.0100003 -0.00660494 -0.00318948
0.0167574 -0.0148794 -0.00596366
0.0255982 -0.0178456 -0.00456471
0.0358101 -0.0221171 -0.002729
0.0537154 -0.013319 -0.000785744
0.0531531 -5.08811e-05 0.000378995
0.053713 0.00613268 0.000413586
0.0457457 0.0106295 0.000125586
0.038712 0.00958158 -0.000184259
0.0338094 0.00755034 -0.000205967
0.0305789 0.00528185 -0.000129748
0.0287103 0.00338343 -6.92061e-05
0.0276973 0.00204993 -3.29416e-05
0.0271692 0.0011916 -1.40075e-05
0.0269078 0.000665654 -5.23141e-06
0.0267884 0.000355673 -1.58444e-06
0.0267413 0.000179582 -2.51291e-07
0.026729 8.32996e-05 1.40964e-07
0.026732 3.29291e-05 1.96281e-07
0.0267406 8.07918e-06 1.55264e-07
0.0267502 -3.09274e-06 1.02382e-07
0.0267591 -7.24986e-06 6.10921e-08
0.0267664 -8.0253e-06 3.38448e-08
0.0267722 -7.33179e-06 1.74252e-08
0.0267767 -6.13215e-06 8.14209e-09
0.0267801 -4.87967e-06 3.18333e-09
0.0267826 -3.76368e-06 6.99955e-10
0.0267845 -2.84303e-06 -4.31919e-10
0.0267858 -2.11662e-06 -8.60882e-10
0.0267868 -1.55948e-06 -9.46212e-10
0.0267875 -1.14027e-06 -8.7934e-10
0.026788 -8.29025e-07 -7.57844e-10
0.0267884 -6.00176e-07 -6.28571e-10
0.0267887 -4.33112e-07 -5.11997e-10
0.0267888 -3.11824e-07 -4.15702e-10
0.026789 -2.24165e-07 -3.41783e-10
0.0267891 -1.61076e-07 -2.91126e-10
0.0267892 -1.15895e-07 -2.6632e-10
0.0267892 -8.38016e-08 -2.74466e-10
0.0267892 -6.13932e-08 -3.30943e-10
0.0267893 -4.64094e-08 -4.65354e-10
0.0267893 -3.7611e-08 -7.31598e-10
0.0267893 -3.48765e-08 -1.2266e-09
0.0267893 -3.96965e-08 -2.1339e-09
0.0267894 -5.66385e-08 -3.86667e-09
0.0267894 -9.70793e-08 -7.77145e-09
0.0267894 -1.83084e-07 -2.19989e-08
0.0267895 -3.34508e-07 -1.0518e-07
0.0267896 -5.81319e-07 -4.26194e-07
0.0267896 -7.34632e-07 -6.7553e-07
0.0148 -2.56412e-07 1.23561e-07
0.0148008 -0.00776979 -0.00419548
0.0192968 -0.0180438 -0.00798683
0.0246305 -0.0232426 -0.00605078
0.0273083 -0.0346264 -0.00326583
0.0273181 -0.021664 -0.000770382
0.0265502 -3.56494e-06 0.000451591
0.0272597 0.00996382 0.000435952
0.0326567 0.0192078 0.000280034
0.030769 0.0160772 1.28111e-05
0.0285159 0.0115151 -0.000105865
0.0271871 0.00754683 -9.78871e-05
0.0266437 0.00451081 -5.86432e-05
0.0265313 0.00256335 -2.7181e-05
0.0265891 0.00140297 -9.40018e-06
0.0266948 0.000734763 -1.62926e-06
0.0267973 0.000362769 9.67798e-07
0.0268797 0.000163399 1.41785e-06
0.0269405 6.12981e-05 1.1724e-06
0.0269836 1.21633e-05 8.08971e-07
0.0270134 -9.17618e-06 5.09228e-07
0.0270338 -1.65793e-05 3.02814e-07
0.0270478 -1.74435e-05 1.72899e-07
0.0270573 -1.55808e-05 9.54784e-08
0.0270639 -1.28659e-05 5.10581e-08
0.0270684 -1.0156e-05 2.63203e-08
0.0270716 -7.79175e-06 1.29103e-08
0.0270738 -5.86486e-06 5.84456e-09
0.0270753 -4.35611e-06 2.24965e-09
0.0270764 -3.20473e-06 5.09736e-10
0.0270772 -2.34126e-06 -2.65002e-10
0.0270777 -1.70155e-06 -5.54998e-10
0.0270781 -1.2318e-06 -6.14218e-10
0.0270784 -8.89086e-07 -5.73527e-10
0.0270786 -6.40286e-07 -4.98154e-10
0.0270787 -4.60363e-07 -4.19251e-10
0.0270788 -3.30671e-07 -3.51143e-10
0.0270789 -2.37485e-07 -3.00899e-10
0.027079 -1.708e-07 -2.74103e-10
0.027079 -1.23407e-07 -2.79192e-10
0.027079 -9.02193e-08 -3.3211e-10
0.027079 -6.78159e-08 -4.63042e-10
0.027079 -5.42039e-08 -7.28282e-10
0.0270791 -4.88389e-08 -1.23559e-09
0.0270791 -5.29518e-08 -2.20975e-09
0.0270791 -7.00017e-08 -4.18951e-09
0.0270791 -1.05422e-07 -8.87806e-09
0.0270791 -1.66862e-07 -2.52815e-08
0.0270791 -2.66693e-07 -1.1238e-07
0.027079 -4.14945e-07 -4.3809e-07
0.0270789 -5.01748e-07 -6.89788e-07
0.018 -6.66405e-07 9.51642e-09
0.0180007 -0.00728604 -0.00505676
0.0197521 -0.0167112 -0.0097761
0.0204878 -0.018894 -0.00719036
0.0162791 -0.0204108 -0.00373989
-1.57113e-07 -0.0109444 -0.00126882
4.09377e-05 1.71361e-05 6.91035e-08
-1.81615e-05 1.96846e-05 6.04848e-05
0.00994624 0.00712317 0.00014481
0.0191778 0.0137683 0.000130024
0.0211808 0.0111894 3.14542e-05
0.0223617 0.00719864 -4.12461e-05
0.0237241 0.00406651 -4.1693e-05
0.0248536 0.00211835 -1.87927e-05
0.0256679 0.00103383 -3.5786e-06
0.0262127 0.000459335 2.35693e-06
0.0265594 0.000171175 3.47384e-06
0.0267729 3.61061e-05 2.87523e-06
0.0269019 -2.09248e-05 1.96847e-06
0.026979 -4.01464e-05 1.22168e-06
0.0270249 -4.22642e-05 7.12747e-07
0.0270523 -3.75321e-05 3.97338e-07
0.0270688 -3.07923e-05 2.12886e-07
0.0270788 -2.41658e-05 1.09355e-07
0.0270849 -1.8451e-05 5.31781e-08
0.0270887 -1.38349e-05 2.36955e-08
0.0270911 -1.02455e-05 8.82373e-09
0.0270927 -7.52084e-06 1.73255e-09
0.0270937 -5.48573e-06 -1.33903e-09
0.0270943 -3.98253e-06 -2.41469e-09
0.0270948 -2.88106e-06 -2.55739e-09
0.0270951 -2.07865e-06 -2.30932e-09
0.0270953 -1.49663e-06 -1.93587e-09
0.0270955 -1.07585e-06 -1.55873e-09
0.0270956 -7.72441e-07 -1.22726e-09
0.0270956 -5.54114e-07 -9.56277e-10
0.0270957 -3.97311e-07 -7.45754e-10
0.0270957 -2.84921e-07 -5.91162e-10
0.0270957 -2.04587e-07 -4.89331e-10
0.0270958 -1.47445e-07 -4.42782e-10
0.0270958 -1.07212e-07 -4.64723e-10
0.0270958 -7.95424e-08 -5.87083e-10
0.0270958 -6.16126e-08 -8.75762e-10
0.0270958 -5.18488e-08 -1.46295e-09
0.0270958 -4.97478e-08 -2.62297e-09
0.0270958 -5.57798e-08 -4.95776e-09
0.0270958 -7.15172e-08 -1.00851e-08
0.0270957 -9.96598e-08 -2.67145e-08
0.0270957 -1.4581e-07 -1.14216e-07
0.0270956 -2.12925e-07 -4.40413e-07
0.0270955 -2.51472e-07 -6.92209e-07
0.0196 -7.37169e-07 -3.31542e-07
0.0196002 -0.00492892 -0.00559216
0.0196165 -0.0106143 -0.0107607
0.0182944 -0.0111007 -0.00766532
0.0138783 -0.0089244 -0.00380607
0.00377656 -0.0035098 -0.00161441
3.19692e-05 -2.96786e-05 -0.000304846
1.15171e-05 -1.15171e-05 -1.98349e-08
-1.7495e-05 1.8828e-05 9.04298e-06
0.0071196 0.00482561 3.50483e-05
0.0137616 0.00833817 2.23071e-05
0.0173327 0.00502571 -3.58151e-05
0.0209113 0.00203866 -5.11432e-05
0.0234476 0.000630014 -2.45754e-05
0.0250208 4.76375e-05 -5.03694e-06
0.0259395 -0.000156085 2.53712e-06
0.0264592 -0.000197879 3.84633e-06
0.0267482 -0.000179725 3.06462e-06
0.0269073 -0.000145282 1.99601e-06
0.0269943 -0.000111218 1.17177e-06
0.0270416 -8.27411e-05 6.42408e-07
0.0270673 -6.05847e-05 3.32567e-07
0.0270811 -4.39592e-05 1.61612e-07
0.0270885 -3.17276e-05 7.1578e-08
0.0270924 -2.28283e-05 2.63358e-08
0.0270945 -1.63949e-05 4.94826e-09
0.0270956 -1.17614e-05 -4.1884e-09
0.0270961 -8.43153e-06 -7.29994e-09
0.0270964 -6.04158e-06 -7.63149e-09
0.0270965 -4.32759e-06 -6.82117e-09
0.0270966 -3.09898e-06 -5.6607e-09
0.0270966 -2.21862e-06 -4.50683e-09
0.0270966 -1.58798e-06 -3.49965e-09
0.0270966 -1.13635e-06 -2.67634e-09
0.0270965 -8.13017e-07 -2.02904e-09
0.0270965 -5.81613e-07 -1.53363e-09
0.0270965 -4.16086e-07 -1.16341e-09
0.0270965 -2.97771e-07 -8.95667e-10
0.0270965 -2.13306e-07 -7.15082e-10
0.0270965 -1.53139e-07 -6.16685e-10
0.0270965 -1.10449e-07 -6.10327e-10
0.0270965 -8.03755e-08 -7.28881e-10
0.0270965 -5.94386e-08 -1.04368e-09
0.0270965 -4.50951e-08 -1.69418e-09
0.0270965 -3.53558e-08 -2.95045e-09
0.0270965 -2.84269e-08 -5.37618e-09
0.0270964 -2.24715e-08 -1.05218e-08
0.0270964 -1.58037e-08 -2.69782e-08
0.0270963 -8.65001e-09 -1.14345e-07
0.0270963 -2.56358e-09 -4.40623e-07
0.0270962 6.64411e-11 -6.9248e-07
0.0196 -4.36285e-07 -6.40095e-07
0.0196002 -0.00225911 -0.00567091
0.0198766 -0.00453237 -0.0107315
0.0196792 -0.0038513 -0.00756573
0.0169022 -0.000662157 -0.00368018
0.0127599 0.00510235 -0.00177403
0.00779054 0.0041869 -0.000757038
3.20808e-05 -2.72764e-05 -0.000158705
9.78146e-06 -9.78146e-06 -2.79046e-08
-1.6812e-05 1.81779e-05 2.34617e-06
0.0048242 0.000977142 5.80161e-05
0.0120437 6.55866e-05 1.19599e-06
0.0189627 -0.00202689 -0.00010385
0.0230525 -0.00197848 -6.96e-05
0.0251092 -0.00145319 -2.53442e-05
0.0261207 -0.000978121 -5.37102e-06
0.0266217 -0.00063796 4.69984e-07
0.0268705 -0.000412619 1.36139e-06
0.0269934 -0.000267526 1.03303e-06
0.0270532 -0.000174817 6.02454e-07
0.0270815 -0.000115433 3.03271e-07
0.0270941 -7.70888e-05 1.31591e-07
0.0270992 -5.20591e-05 4.33386e-08
0.0271007 -3.55209e-05 2.30231e-09
0.0271006 -2.44588e-05 -1.41921e-08
0.0271 -1.69736e-05 -1.88234e-08
0.0270992 -1.18556e-05 -1.82207e-08
0.0270984 -8.32443e-06 -1.56655e-08
0.0270978 -5.86951e-06 -1.26843e-08
0.0270973 -4.15209e-06 -9.92146e-09
0.0270969 -2.94458e-06 -7.59684e-09
0.0270966 -2.09221e-06 -5.73884e-09
0.0270964 -1.48868e-06 -4.29863e-09
0.0270962 -1.06034e-06 -3.20414e-09
0.0270961 -7.55826e-07 -2.38388e-09
0.027096 -5.39069e-07 -1.77626e-09
0.027096 -3.84654e-07 -1.33235e-09
0.0270959 -2.74595e-07 -1.01615e-09
0.0270959 -1.96118e-07 -8.0449e-10
0.0270959 -1.40115e-07 -6.88119e-10
0.0270958 -1.00037e-07 -6.75007e-10
0.0270958 -7.10853e-08 -7.97724e-10
0.0270958 -4.95874e-08 -1.12762e-09
0.0270958 -3.24487e-08 -1.80261e-09
0.0270958 -1.66072e-08 -3.08765e-09
0.0270958 1.59618e-09 -5.52918e-09
0.0270957 2.71452e-08 -1.06231e-08
0.0270957 6.6722e-08 -2.68331e-08
0.0270957 1.26777e-07 -1.13758e-07
0.0270956 2.07076e-07 -4.3986e-07
0.0270955 2.51566e-07 -6.91791e-07
0.018 -2.7689e-07 -7.19879e-07
0.0180004 -0.000110123 -0.00539671
0.0195535 8.28691e-05 -0.0100281
0.0211683 0.000970656 -0.00694072
0.0210092 0.0030771 -0.00339909
0.0206063 0.00808651 -0.00166335
0.0210456 0.0137772 -0.000850966
0.0131678 0.00798984 -0.000378567
3.28463e-05 -2.17066e-05 -0.0001004
-1.4015e-05 -2.38041e-05 2.6643e-07
2.47719e-06 -0.00372082 0.000274837
0.011485 -0.00910731 0.000230145
0.0204245 -0.0089349 -0.00012057
0.0246759 -0.00549043 -0.000111972
0.0262699 -0.00300863 -4.81506e-05
0.0268422 -0.00166447 -1.58483e-05
0.0270478 -0.000946623 -4.57821e-06
0.0271165 -0.000551356 -1.19989e-06
0.027133 -0.000328114 -2.92808e-07
0.0271305 -0.000199396 -8.34491e-08
0.027122 -0.000123711 -4.69932e-08
0.0271129 -7.8315e-05 -4.29688e-08
0.0271048 -5.05312e-05 -4.01779e-08
0.0270983 -3.31797e-05 -3.48767e-08
0.0270933 -2.21286e-05 -2.84481e-08
0.0270895 -1.49587e-05 -2.22556e-08
0.0270866 -1.02277e-05 -1.69541e-08
0.0270846 -7.05892e-06 -1.27033e-08
0.027083 -4.90904e-06 -9.42316e-09
0.0270819 -3.43458e-06 -6.94968e-09
0.0270811 -2.41436e-06 -5.11048e-09
0.0270806 -1.70338e-06 -3.75466e-09
0.0270801 -1.2051e-06 -2.76056e-09
0.0270798 -8.54361e-07 -2.03436e-09
0.0270796 -6.06638e-07 -1.50572e-09
0.0270795 -4.31231e-07 -1.12309e-09
0.0270794 -3.06785e-07 -8.49846e-10
0.0270793 -2.18348e-07 -6.61628e-10
0.0270792 -1.5537e-07 -5.45198e-10
0.0270792 -1.10345e-07 -4.99145e-10
0.0270792 -7.78339e-08 -5.37209e-10
0.0270791 -5.37513e-08 -6.95576e-10
0.0270791 -3.47795e-08 -1.04697e-09
0.0270791 -1.78129e-08 -1.72842e-09
0.0270791 6.83258e-10 -3.00243e-09
0.0270791 2.55707e-08 -5.4115e-09
0.0270791 6.4495e-08 -1.04159e-08
0.0270791 1.30161e-07 -2.62511e-08
0.027079 2.4102e-07 -1.1194e-07
0.027079 4.06018e-07 -4.36754e-07
0.0270789 5.01682e-07 -6.88324e-07
0.0148 -2.28676e-07 -6.96079e-07
0.0148005 0.00104615 -0.00487524
0.0182435 0.0023456 -0.00879942
0.0218206 0.00297363 -0.00588628
0.0240128 0.00454026 -0.00293782
0.0256979 0.00740452 -0.00157107
0.0287184 0.012799 -0.000928212
0.032539 0.0215124 -0.000464609
0.0273473 0.0132521 5.22371e-05
0.0292235 -2.34089e-10 0.000522451
0.0334231 -0.0105762 0.000804523
0.0339612 -0.0204122 0.000479494
0.0312486 -0.0151783 -7.06163e-05
0.0292797 -0.00778439 -0.00013365
0.0282263 -0.00359919 -6.78101e-05
0.0276556 -0.00174779 -2.53141e-05
0.0273277 -0.000909182 -8.44046e-06
0.0271312 -0.00049675 -2.64114e-06
0.0270104 -0.000281102 -7.56852e-07
0.0269345 -0.000163685 -1.68406e-07
0.0268861 -9.77932e-05 3.58337e-09
0.0268547 -5.98478e-05 4.52051e-08
0.0268339 -3.74634e-05 4.79838e-08
0.0268201 -2.39481e-05 4.06853e-08
0.0268107 -1.56021e-05 3.2037e-08
0.0268043 -1.03364e-05 2.44411e-08
0.0267999 -6.94725e-06 1.83474e-08
0.0267968 -4.72612e-06 1.364e-08
0.0267946 -3.24719e-06 1.00725e-08
0.0267931 -2.24896e-06 7.39916e-09
0.026792 -1.56749e-06 5.41106e-09
0.0267912 -1.09792e-06 3.94066e-09
0.0267907 -7.71929e-07 2.85761e-09
0.0267903 -5.44286e-07 2.06217e-09
0.02679 -3.84589e-07 1.47871e-09
0.0267898 -2.7216e-07 1.05004e-09
0.0267897 -1.92781e-07 7.32445e-10
0.0267896 -1.36584e-07 4.91388e-10
0.0267895 -9.66511e-08 2.97361e-10
0.0267895 -6.80603e-08 1.21317e-10
0.0267894 -4.72151e-08 -7.12828e-11
0.0267894 -3.13342e-08 -3.29362e-10
0.0267894 -1.80108e-08 -7.31057e-10
0.0267894 -4.74631e-09 -1.41166e-09
0.0267894 1.16719e-08 -2.62588e-09
0.0267894 3.61883e-08 -4.91021e-09
0.0267894 7.75379e-08 -9.71724e-09
0.0267894 1.53511e-07 -2.49178e-08
0.0267895 3.02477e-07 -1.07134e-07
0.0267895 5.67948e-07 -4.24717e-07
0.0267895 7.34157e-07 -6.72013e-07
0.01 -3.70352e-07 -7.32463e-07
0.0100002 0.000895932 -0.00400984
0.0149111 0.00194078 -0.00686818
0.0195556 0.00224128 -0.00428976
0.0231662 0.003171 -0.00216868
0.0270757 0.00548368 -0.00126024
0.0322249 0.00805258 -0.000977455