# vtk DataFile Version 2.0
Tobias Weinzierl: CPU, Manycore and Cluster Computing
ASCII

DATASET STRUCTURED_POINTS
DIMENSIONS  51 11 6

ORIGIN 0 0 0 

SPACING 0.1 0.1 0.1 

POINT_DATA 3366

VECTORS velocity float
0 0 0
-6.08635e-13 0 0
1.85193e-11 0 0
3.42258e-10 0 0
-2.50312e-09 0 0
2.65089e-09 0 0
3.86797e-09 0 0
3.87189e-09 0 0
3.98648e-09 0 0
4.35311e-09 0 0
4.55128e-09 0 0
4.3225e-09 0 0
3.71083e-09 0 0
2.70695e-09 0 0
1.20607e-09 0 0
-5.66545e-10 0 0
-2.10115e-09 0 0
-3.09471e-09 0 0
-3.67769e-09 0 0
-4.18373e-09 0 0
-4.8455e-09 0 0
-5.69296e-09 0 0
-6.62253e-09 0 0
-7.50421e-09 0 0
-8.24756e-09 0 0
-8.8173e-09 0 0
-9.22021e-09 0 0
-9.48494e-09 0 0
-9.6462e-09 0 0
-9.73575e-09 0 0
-9.77888e-09 0 0
-9.79399e-09 0 0
-9.79356e-09 0 0
-9.78557e-09 0 0
-9.77482e-09 0 0
-9.76394e-09 0 0
-9.75422e-09 0 0
-9.74614e-09 0 0
-9.73976e-09 0 0
-9.7349e-09 0 0
-9.7313e-09 0 0
-9.7287e-09 0 0
-9.72687e-09 0 0
-9.72562e-09 0 0
-9.72478e-09 0 0
-9.72426e-09 0 0
-9.72398e-09 0 0
-9.72387e-09 0 0
-9.72394e-09 0 0
-9.72433e-09 0 0
0.00191564 0 0
0 3.8669e-07 0
-1.45991e-12 -3.08758e-10 0
-3.2375e-12 -1.31845e-09 0
1.44739e-09 -4.0272e-10 0
-8.37944e-10 -2.35907e-09 0
8.03064e-09 -2.95459e-09 0
9.52268e-09 6.39816e-10 0
9.55638e-09 5.20539e-10 0
1.08818e-08 -9.82155e-10 0
1.27539e-08 -2.14334e-09 0
1.385e-08 -2.66103e-09 0
1.36745e-08 -2.47702e-09 0
1.21186e-08 -1.24802e-09 0
9.29038e-09 8.02679e-10 0
5.59836e-09 2.55038e-09 0
1.85469e-09 3.04986e-09 0
-1.18137e-09 2.42576e-09 0
-3.39181e-09 1.49061e-09 0
-5.28258e-09 8.95081e-10 0
-7.43904e-09 7.64853e-10 0
-1.00966e-08 8.87672e-10 0
-1.31012e-08 1.01976e-09 0
-1.61067e-08 1.03737e-09 0
-1.87875e-08 9.33596e-10 0
-2.09521e-08 7.57493e-10 0
-2.25557e-08 5.63238e-10 0
-2.36545e-08 3.87393e-10 0
-2.43524e-08 2.46554e-10 0
-2.47595e-08 1.43317e-10 0
-2.49712e-08 7.30053e-11 0
-2.50607e-08 2.83997e-11 0
-2.50794e-08 2.32473e-12 0
-2.50614e-08 -1.1246e-11 0
-2.50275e-08 -1.69122e-11 0
-2.49898e-08 -1.79481e-11 0
-2.49546e-08 -1.65463e-11 0
-2.49244e-08 -1.40867e-11 0
-2.49e-08 -1.13758e-11 0
-2.4881e-08 -8.83964e-12 0
-2.48668e-08 -6.6657e-12 0
-2.48563e-08 -4.90297e-12 0
-2.48488e-08 -3.52711e-12 0
-2.48435e-08 -2.48108e-12 0
-2.48399e-08 -1.69826e-12 0
-2.48375e-08 -1.11344e-12 0
-2.48359e-08 -6.678e-13 0
-2.48351e-08 -3.03071e-13 0
-2.48348e-08 5.38471e-14 0
-2.48351e-08 5.98096e-13 0
-2.48363e-08 1.85301e-12 0
0.00551166 -1.83256e-08 0
0 -1.96871e-08 0
-1.02203e-12 -4.3193e-10 0
8.68979e-10 -3.02256e-09 0
4.71175e-09 -6.01261e-09 0
7.89063e-09 -1.06459e-08 0
1.43033e-08 -7.92233e-09 0
1.12433e-08 -2.78156e-10 0
1.04337e-08 -7.5255e-10 0
1.25132e-08 -4.08837e-09 0
1.61885e-08 -7.36831e-09 0
1.75138e-08 -1.02328e-08 0
1.61802e-08 -1.15158e-08 0
1.34394e-08 -9.51689e-09 0
9.63453e-09 -4.77436e-09 0
5.33663e-09 3.88525e-10 0
1.31272e-09 4.32754e-09 0
-1.89166e-09 6.73195e-09 0
-4.29099e-09 7.86573e-09 0
-6.33283e-09 8.07174e-09 0
-8.50448e-09 7.66273e-09 0
-1.10434e-08 6.87727e-09 0
-1.38701e-08 5.87104e-09 0
-1.66984e-08 4.75903e-09 0
-1.92165e-08 3.64931e-09 0
-2.12211e-08 2.63854e-09 0
-2.26563e-08 1.79223e-09 0
-2.35795e-08 1.13564e-09 0
-2.41036e-08 6.60381e-10 0
-2.43497e-08 3.3827e-10 0
-2.4421e-08 1.34288e-10 0
-2.43943e-08 1.50476e-11 0
-2.43212e-08 -4.71902e-11 0
-2.4233e-08 -7.34914e-11 0
-2.41472e-08 -7.87807e-11 0
-2.4072e-08 -7.30043e-11 0
-2.40102e-08 -6.23925e-11 0
-2.39616e-08 -5.05759e-11 0
-2.39245e-08 -3.94686e-11 0
-2.3897e-08 -2.99186e-11 0
-2.3877e-08 -2.21566e-11 0
-2.38627e-08 -1.60886e-11 0
-2.38526e-08 -1.14759e-11 0
-2.38457e-08 -8.03736e-12 0
-2.38409e-08 -5.50258e-12 0
-2.38378e-08 -3.63061e-12 0
-2.38358e-08 -2.20998e-12 0
-2.38348e-08 -1.02403e-12 0
-2.38345e-08 2.36832e-13 0
-2.38349e-08 1.94813e-12 0
-2.38362e-08 4.48317e-12 0
0.00794143 -4.42767e-08 0
0 -6.39912e-07 0
1.78774e-13 -1.67727e-09 0
2.00047e-09 -6.04435e-09 0
6.94264e-09 -1.15991e-08 0
9.10895e-09 -1.61482e-08 0
8.92366e-09 -8.91941e-09 0
5.58805e-09 -5.09366e-12 0
4.74916e-09 -1.28449e-09 0
4.06294e-09 -5.8866e-09 0
5.02947e-09 -1.24272e-08 0
6.00937e-09 -1.80043e-08 0
4.92093e-09 -2.07697e-08 0
3.11072e-09 -1.89328e-08 0
-1.29714e-10 -1.27797e-08 0
-4.55512e-09 -4.24157e-09 0
-9.20111e-09 4.6386e-09 0
-1.29006e-08 1.16371e-08 0
-1.48629e-08 1.52302e-08 0
-1.50165e-08 1.54805e-08 0
-1.39671e-08 1.36145e-08 0
-1.25817e-08 1.09508e-08 0
-1.14958e-08 8.29668e-09 0
-1.09045e-08 5.97585e-09 0
-1.06801e-08 4.06862e-09 0
-1.06021e-08 2.57399e-09 0
-1.05097e-08 1.46337e-09 0
-1.03398e-08 6.89037e-10 0
-1.00984e-08 1.89046e-10 0
-9.82044e-09 -1.03386e-10 0
-9.54196e-09 -2.5028e-10 0
-9.28832e-09 -3.02914e-10 0
-9.07254e-09 -2.9993e-10 0
-8.89805e-09 -2.682e-10 0
-8.76232e-09 -2.25004e-10 0
-8.65992e-09 -1.80524e-10 0
-8.58451e-09 -1.40075e-10 0
-8.53009e-09 -1.05883e-10 0
-8.49143e-09 -7.83619e-11 0
-8.46436e-09 -5.69857e-11 0
-8.44562e-09 -4.08243e-11 0
-8.4328e-09 -2.88578e-11 0
-8.42411e-09 -2.01367e-11 0
-8.41829e-09 -1.3849e-11 0
-8.41447e-09 -9.33307e-12 0
-8.41203e-09 -6.05845e-12 0
-8.41057e-09 -3.58227e-12 0
-8.40982e-09 -1.50783e-12 0
-8.40953e-09 5.27366e-13 0
-8.40944e-09 2.75447e-12 0
-8.40969e-09 5.09942e-12 0
0.00899797 -4.89306e-08 0
0 -1.25512e-06 0
-9.17391e-13 -3.26714e-09 0
6.25165e-10 -9.16796e-09 0
2.51809e-09 -1.21589e-08 0
2.2128e-09 -9.84983e-09 0
-5.99415e-13 -3.59384e-09 0
-3.48108e-11 -3.69603e-11 0
3.48156e-11 -3.57066e-11 0
-1.55496e-09 -3.8312e-09 0
-7.91202e-09 -1.33251e-08 0
-1.13844e-08 -2.30558e-08 0
-1.07962e-08 -2.85587e-08 0
-1.13027e-08 -2.70478e-08 0
-1.3883e-08 -1.82225e-08 0
-1.76125e-08 -5.34442e-09 0
-2.12964e-08 7.58373e-09 0
-2.3827e-08 1.66652e-08 0
-2.42325e-08 1.99811e-08 0
-2.20449e-08 1.83923e-08 0
-1.77488e-08 1.42888e-08 0
-1.25702e-08 9.8061e-09 0
-7.72563e-09 6.03558e-09 0
-3.87217e-09 3.23271e-09 0
-1.08718e-09 1.28815e-09 0
8.55354e-10 2.01334e-11 0
2.22798e-09 -7.33645e-10 0
3.23288e-09 -1.10993e-09 0
3.99066e-09 -1.22581e-09 0
4.56801e-09 -1.17857e-09 0
5.00475e-09 -1.04323e-09 0
5.3295e-09 -8.7256e-10 0
5.56593e-09 -6.99827e-10 0
5.73441e-09 -5.43324e-10 0
5.85212e-09 -4.10999e-10 0
5.93291e-09 -3.04385e-10 0
5.9875e-09 -2.21511e-10 0
6.0239e-09 -1.58855e-10 0
6.04789e-09 -1.12517e-10 0
6.06353e-09 -7.88479e-11 0
6.07362e-09 -5.47321e-11 0
6.08007e-09 -3.76539e-11 0
6.08414e-09 -2.56608e-11 0
6.08666e-09 -1.72778e-11 0
6.08819e-09 -1.1407e-11 0
6.08907e-09 -7.23169e-12 0
6.08956e-09 -4.1473e-12 0
6.0899e-09 -1.72869e-12 0
6.09036e-09 2.69299e-13 0
6.09116e-09 1.94009e-12 0
6.09187e-09 3.2944e-12 0
0.00940845 -2.76977e-08 0
0 -1.13737e-06 0
-2.9994e-12 -3.33082e-09 0
-1.5349e-09 -7.59727e-09 0
-1.76642e-09 -9.39959e-09 0
-3.10131e-09 -9.41003e-09 0
-2.26659e-09 -4.27767e-09 0
-3.46733e-11 3.36929e-11 0
1.11952e-12 -1.11952e-12 0
3.46023e-11 -3.50307e-11 0
-5.15388e-09 -6.86776e-09 0
-1.70347e-08 -2.20868e-08 0
-2.0491e-08 -3.20763e-08 0
-2.28066e-08 -2.99305e-08 0
-2.49372e-08 -1.92362e-08 0
-2.61653e-08 -4.57119e-09 0
-2.63872e-08 9.30063e-09 0
-2.58105e-08 1.81753e-08 0
-2.41394e-08 2.03051e-08 0
-2.0661e-08 1.70499e-08 0
-1.52694e-08 1.13867e-08 0
-8.88206e-09 5.85166e-09 0
-2.79313e-09 1.64435e-09 0
2.11841e-09 -1.07796e-09 0
5.62554e-09 -2.59645e-09 0
7.93369e-09 -3.25731e-09 0
9.38302e-09 -3.35127e-09 0
1.02738e-08 -3.10284e-09 0
1.08169e-08 -2.67946e-09 0
1.11459e-08 -2.19844e-09 0
1.13424e-08 -1.73372e-09 0
1.14568e-08 -1.32481e-09 0
1.15204e-08 -9.86902e-10 0
1.15534e-08 -7.20094e-10 0
1.15684e-08 -5.16571e-10 0
1.15735e-08 -3.65433e-10 0
1.15735e-08 -2.55551e-10 0
1.15711e-08 -1.77003e-10 0
1.15678e-08 -1.2161e-10 0
1.15646e-08 -8.29674e-11 0
1.15617e-08 -5.62416e-11 0
1.15593e-08 -3.78782e-11 0
1.15574e-08 -2.53151e-11 0
1.15559e-08 -1.67303e-11 0
1.15548e-08 -1.08421e-11 0
1.1554e-08 -6.7641e-12 0
1.15535e-08 -3.91074e-12 0
1.15534e-08 -1.92425e-12 0
1.15539e-08 -6.03943e-13 0
1.15548e-08 1.09612e-13 0
1.15557e-08 3.39208e-13 0
0.00951178 7.30187e-09 0
0 -7.83707e-07 0
-2.20124e-12 -1.95691e-09 0
-1.54685e-09 -4.98972e-09 0
-1.45457e-09 -6.56314e-09 0
-3.9826e-09 -6.95222e-09 0
-5.43407e-09 -5.1531e-09 0
-2.50832e-09 -1.73102e-09 0
-3.37157e-11 3.36709e-11 0
9.27748e-13 -9.27748e-13 0
3.46194e-11 -3.45869e-11 0
-7.85608e-09 -1.2527e-08 0
-1.86714e-08 -2.82263e-08 0
-2.55862e-08 -2.7417e-08 0
-2.87423e-08 -1.6422e-08 0
-2.86371e-08 -2.24692e-09 0
-2.5811e-08 9.98335e-09 0
-2.16819e-08 1.68108e-08 0
-1.74127e-08 1.72508e-08 0
-1.3003e-08 1.29461e-08 0
-8.09969e-09 6.84349e-09 0
-2.974e-09 1.35498e-09 0
1.59277e-09 -2.45643e-09 0
4.96894e-09 -4.56437e-09 0
7.013e-09 -5.36848e-09 0
7.96717e-09 -5.31623e-09 0
8.20491e-09 -4.77439e-09 0
8.0558e-09 -4.01132e-09 0
7.74538e-09 -3.20651e-09 0
7.40295e-09 -2.46569e-09 0
7.09094e-09 -1.83873e-09 0
6.83235e-09 -1.33813e-09 0
6.62977e-09 -9.55127e-10 0
6.47685e-09 -6.71339e-10 0
6.36433e-09 -4.6615e-10 0
6.28306e-09 -3.2055e-10 0
6.22514e-09 -2.18718e-10 0
6.18428e-09 -1.48287e-10 0
6.15566e-09 -9.99925e-11 0
6.13571e-09 -6.70961e-11 0
6.12187e-09 -4.48024e-11 0
6.1123e-09 -2.975e-11 0
6.10569e-09 -1.96103e-11 0
6.10117e-09 -1.27876e-11 0
6.09812e-09 -8.20416e-12 0
6.09614e-09 -5.14823e-12 0
6.09497e-09 -3.16307e-12 0
6.09446e-09 -1.97314e-12 0
6.09454e-09 -1.44493e-12 0
6.09509e-09 -1.63927e-12 0
6.09555e-09 -2.54917e-12 0
0.00940844 3.95143e-08 0
0 -5.49109e-07 0
-8.13173e-13 -1.21535e-09 0
-5.72288e-10 -3.31705e-09 0
-7.78701e-10 -4.95339e-09 0
-2.98891e-09 -5.14375e-09 0
-6.57098e-09 -3.01243e-09 0
-7.25486e-09 -4.73492e-10 0
-4.45145e-09 2.46774e-10 0
-3.57555e-11 3.15881e-11 0
3.46663e-11 2.86109e-11 0
2.70832e-12 -6.94505e-09 0
-1.10983e-08 -1.77982e-08 0
-2.35663e-08 -1.80206e-08 0
-3.10775e-08 -7.93866e-09 0
-3.16907e-08 3.57409e-09 0
-2.60306e-08 1.11193e-08 0
-1.75351e-08 1.32833e-08 0
-9.98731e-09 1.08965e-08 0
-4.96163e-09 6.02901e-09 0
-2.00953e-09 9.91897e-10 0
-2.99631e-10 -2.73235e-09 0
5.26706e-10 -4.78222e-09 0
5.29387e-10 -5.47918e-09 0
-1.78369e-10 -5.3133e-09 0
-1.34754e-09 -4.69068e-09 0
-2.69218e-09 -3.88718e-09 0
-3.98897e-09 -3.07266e-09 0
-5.11118e-09 -2.34062e-09 0
-6.01415e-09 -1.73148e-09 0
-6.70465e-09 -1.2516e-09 0
-7.21387e-09 -8.88543e-10 0
-7.57978e-09 -6.22046e-10 0
-7.83784e-09 -4.30795e-10 0
-8.01744e-09 -2.95832e-10 0
-8.14128e-09 -2.01777e-10 0
-8.22612e-09 -1.36844e-10 0
-8.28399e-09 -9.23379e-11 0
-8.32335e-09 -6.20062e-11 0
-8.35006e-09 -4.14308e-11 0
-8.36817e-09 -2.75292e-11 0
-8.38043e-09 -1.81708e-11 0
-8.3887e-09 -1.18963e-11 0
-8.39426e-09 -7.71586e-12 0
-8.39795e-09 -4.96569e-12 0
-8.40035e-09 -3.20965e-12 0
-8.40186e-09 -2.17438e-12 0
-8.40273e-09 -1.71626e-12 0
-8.40311e-09 -1.82095e-12 0
-8.40322e-09 -2.66751e-12 0
-8.40357e-09 -4.37079e-12 0
0.00899796 5.37184e-08 0
0 -4.65404e-07 0
-7.89447e-13 -6.32811e-10 0
9.11081e-11 -1.83007e-09 0
-6.02491e-10 -2.89438e-09 0
-3.72661e-09 -3.18953e-09 0
-8.52902e-09 -9.88083e-10 0
-1.08873e-08 1.87677e-09 0
-1.03612e-08 -1.03202e-09 0
-6.82724e-09 -2.40461e-09 0
-5.45169e-09 -1.21395e-13 0
-4.24775e-09 -4.41029e-09 0
-1.27633e-08 -9.10198e-09 0
-2.68027e-08 -6.13713e-09 0
-3.53138e-08 1.22805e-09 0
-3.32283e-08 7.57373e-09 0
-2.29902e-08 9.57342e-09 0
-1.12856e-08 7.44301e-09 0
-3.76235e-09 3.15063e-09 0
-1.80504e-09 -1.05634e-09 0
-3.53167e-09 -3.68984e-09 0
-6.57454e-09 -4.52305e-09 0
-9.60861e-09 -4.18494e-09 0
-1.227e-08 -3.41031e-09 0
-1.45787e-08 -2.63653e-09 0
-1.65865e-08 -2.00961e-09 0
-1.83e-08 -1.5308e-09 0
-1.97116e-08 -1.16452e-09 0
-2.08293e-08 -8.8021e-10 0
-2.16829e-08 -6.58303e-10 0
-2.23155e-08 -4.86181e-10 0
-2.27734e-08 -3.5445e-10 0
-2.30989e-08 -2.55226e-10 0
-2.33274e-08 -1.81666e-10 0
-2.34861e-08 -1.27931e-10 0
-2.35955e-08 -8.91964e-11 0
-2.36706e-08 -6.16081e-11 0
-2.3722e-08 -4.21701e-11 0
-2.37569e-08 -2.86089e-11 0
-2.37807e-08 -1.92336e-11 0
-2.37968e-08 -1.28084e-11 0
-2.38076e-08 -8.44446e-12 0
-2.38149e-08 -5.51195e-12 0
-2.38199e-08 -3.57185e-12 0
-2.38231e-08 -2.32505e-12 0
-2.38253e-08 -1.57816e-12 0
-2.38268e-08 -1.22156e-12 0
-2.38278e-08 -1.21963e-12 0
-2.38286e-08 -1.60825e-12 0
-2.38294e-08 -2.51748e-12 0
-2.38309e-08 -4.05512e-12 0
0.00794144 4.21946e-08 0
0 -4.79624e-07 0
-1.82837e-13 -7.10483e-11 0
4.37008e-10 -3.26467e-10 0
-6.11576e-10 -6.68346e-10 0
-4.35518e-09 -8.10199e-10 0
-9.93061e-09 -5.89255e-10 0
-1.30662e-08 6.73127e-10 0
-1.26174e-08 2.35301e-10 0
-1.47159e-08 -1.11899e-09 0
-1.36248e-08 -8.90757e-10 0
-1.17756e-08 -6.32043e-10 0
-1.55918e-08 8.62555e-10 0
-2.13248e-08 3.02234e-09 0
-2.34847e-08 4.01197e-09 0
-1.90072e-08 3.70061e-09 0
-1.04048e-08 2.27125e-09 0
-3.07826e-09 2.05442e-10 0
-7.03227e-10 -1.636e-09 0
-3.09642e-09 -2.53019e-09 0
-7.73612e-09 -2.41274e-09 0
-1.23046e-08 -1.75029e-09 0
-1.57914e-08 -1.04862e-09 0
-1.81823e-08 -5.59916e-10 0
-1.98127e-08 -3.02355e-10 0
-2.09881e-08 -1.96192e-10 0
-2.18888e-08 -1.60978e-10 0
-2.26015e-08 -1.47756e-10 0
-2.31664e-08 -1.35562e-10 0
-2.36074e-08 -1.19232e-10 0
-2.39447e-08 -9.99447e-11 0
-2.41974e-08 -8.0245e-11 0
-2.43831e-08 -6.21369e-11 0
-2.45174e-08 -4.66902e-11 0
-2.46133e-08 -3.42127e-11 0
-2.4681e-08 -2.454e-11 0
-2.47283e-08 -1.7278e-11 0
-2.47611e-08 -1.19642e-11 0
-2.47837e-08 -8.15776e-12 0
-2.47992e-08 -5.48021e-12 0
-2.48097e-08 -3.62739e-12 0
-2.48168e-08 -2.36589e-12 0
-2.48217e-08 -1.52315e-12 0
-2.48249e-08 -9.76135e-13 0
-2.48271e-08 -6.41368e-13 0
-2.48287e-08 -4.68036e-13 0
-2.48298e-08 -4.31082e-13 0
-2.48307e-08 -5.27992e-13 0
-2.48316e-08 -7.60648e-13 0
-2.48327e-08 -1.11199e-12 0
-2.48347e-08 -1.65968e-12 0
0.00551169 1.4968e-08 0
0 0 0
2.62197e-13 0 0
2.70135e-10 0 0
-2.81707e-10 0 0
-2.0655e-09 0 0
-4.80443e-09 0 0
-6.92589e-09 0 0
-6.70771e-09 0 0
-7.89069e-09 0 0
-8.17312e-09 0 0
-7.52513e-09 0 0
-6.85743e-09 0 0
-5.92705e-09 0 0
-4.74097e-09 0 0
-2.88468e-09 0 0
-8.17661e-10 0 0
2.81473e-10 0 0
-2.91438e-10 0 0
-2.15468e-09 0 0
-4.35284e-09 0 0
-6.15688e-09 0 0
-7.35035e-09 0 0
-8.05159e-09 0 0
-8.45956e-09 0 0
-8.72356e-09 0 0
-8.92265e-09 0 0
-9.08835e-09 0 0
-9.22955e-09 0 0
-9.34771e-09 0 0
-9.4435e-09 0 0
-9.51868e-09 0 0
-9.57601e-09 0 0
-9.61868e-09 0 0
-9.64978e-09 0 0
-9.67209e-09 0 0
-9.68787e-09 0 0
-9.6989e-09 0 0
-9.70654e-09 0 0
-9.71178e-09 0 0
-9.71536e-09 0 0
-9.71779e-09 0 0
-9.71944e-09 0 0
-9.72056e-09 0 0
-9.72132e-09 0 0
-9.72187e-09 0 0
-9.72229e-09 0 0
-9.72267e-09 0 0
-9.72309e-09 0 0
-9.72365e-09 0 0
-9.72452e-09 0 0
0.00191566 0 0
0 0 5.36541e-07
-1.38932e-12 0 2.89279e-10
-6.25394e-10 0 9.7463e-10
7.62052e-10 0 2.9234e-09
-8.87016e-09 0 4.94895e-11
4.32542e-09 0 -3.41744e-09
8.50073e-09 0 -1.86175e-09
9.56046e-09 0 -6.39971e-10
9.97236e-09 0 5.00012e-10
1.06156e-08 0 1.57763e-09
1.20884e-08 0 2.69074e-09
1.45919e-08 0 3.31657e-09
1.73124e-08 0 2.86269e-09
1.86709e-08 0 1.70122e-09
1.72412e-08 0 7.22259e-10
1.31111e-08 0 2.56516e-10
7.75519e-09 0 1.01579e-10
2.61808e-09 0 8.51285e-11
-1.84001e-09 0 1.9315e-10
-5.89161e-09 0 4.02182e-10
-9.85438e-09 0 6.20794e-10
-1.3748e-08 0 7.56524e-10
-1.73618e-08 0 7.73154e-10
-2.04571e-08 0 6.90723e-10
-2.29008e-08 0 5.54908e-10
-2.46896e-08 0 4.08744e-10
-2.59104e-08 0 2.79598e-10
-2.66882e-08 0 1.78807e-10
-2.71477e-08 0 1.06885e-10
-2.73936e-08 0 5.90965e-11
-2.75052e-08 0 2.92813e-11
-2.7538e-08 0 1.18155e-11
-2.75286e-08 0 2.31998e-12
-2.75e-08 0 -2.31326e-12
-2.74652e-08 0 -4.14979e-12
-2.74314e-08 0 -4.49034e-12
-2.74019e-08 0 -4.11333e-12
-2.73777e-08 0 -3.45924e-12
-2.73587e-08 0 -2.75992e-12
-2.73443e-08 0 -2.12451e-12
-2.73336e-08 0 -1.59367e-12
-2.7326e-08 0 -1.17235e-12
-2.73205e-08 0 -8.49061e-13
-2.73168e-08 0 -6.06786e-13
-2.73142e-08 0 -4.28014e-13
-2.73126e-08 0 -2.99405e-13
-2.73117e-08 0 -2.1472e-13
-2.73113e-08 0 -1.90169e-13
-2.73115e-08 0 -2.15016e-13
-2.73126e-08 0 7.32015e-14
0.00544521 0 -1.10204e-09
0.0036 -3.07246e-07 -6.22704e-08
0.0035998 -0.00138994 -2.2547e-05
0.00670405 -0.00393514 0.00011082
0.0136128 -0.00588381 -0.00050195
0.0235078 -0.014472 -0.00427218
0.0463758 -0.0134247 -0.00488547
0.0499046 -0.00193316 -0.00164481
0.0496452 0.00263521 -0.000162526
0.0446606 0.0049598 0.000572861
0.0390578 0.0051248 0.000564247
0.0339612 0.00445508 0.00029942
0.0296828 0.00357075 2.6447e-05
0.0262872 0.00270073 -0.000169396
0.0237059 0.00194273 -0.00026996
0.0217864 0.00134264 -0.000288232
0.0203568 0.000907249 -0.000250156
0.0192772 0.000613902 -0.000184025
0.0184528 0.000425793 -0.000114109
0.0178241 0.000305521 -5.65037e-05
0.0173517 0.000224338 -1.75932e-05
0.0170055 0.000164903 3.83654e-06
0.0167596 0.000118879 1.26369e-05
0.0165913 8.29093e-05 1.4029e-05
0.0164807 5.55022e-05 1.19932e-05
0.0164112 3.54739e-05 8.95911e-06
0.0163698 2.15067e-05 6.12324e-06
0.0163467 1.22172e-05 3.91151e-06
0.0163349 6.32905e-06 2.35749e-06
0.0163299 2.78582e-06 1.34149e-06
0.0163286 7.83301e-07 7.13834e-07
0.0163292 -2.52932e-07 3.45276e-07
0.0163305 -7.12514e-07 1.40027e-07
0.0163321 -8.4811e-07 3.30117e-08
0.0163336 -8.16613e-07 -1.75167e-08
0.0163349 -7.10913e-07 -3.71652e-08
0.0163359 -5.82856e-07 -4.10198e-08
0.0163367 -4.59031e-07 -3.76057e-08
0.0163374 -3.51194e-07 -3.15067e-08
0.0163378 -2.62885e-07 -2.50218e-08
0.0163382 -1.9347e-07 -1.91773e-08
0.0163384 -1.40485e-07 -1.43252e-08
0.0163386 -1.00933e-07 -1.04869e-08
0.0163387 -7.19386e-08 -7.54769e-09
0.0163388 -5.10289e-08 -5.35035e-09
0.0163389 -3.62241e-08 -3.73967e-09
0.0163389 -2.60041e-08 -2.53094e-09
0.0163389 -1.92712e-08 -1.41834e-09
0.016339 -1.53928e-08 5.2268e-10
0.016339 -1.58623e-08 4.01969e-09
0.016339 -3.56257e-08 4.01177e-10
0.0163391 -5.36493e-08 -5.35474e-09
0.01 -1.37489e-07 -1.45795e-06
0.0100007 -0.0029864 -0.000599366
0.0147858 -0.00996524 -0.000794308
0.0241842 -0.0177507 -0.00123552
0.0385993 -0.0325995 -0.00334056
0.0593022 -0.0249135 -0.000817148
0.0565315 -0.00275749 0.00318212
0.055967 0.00507335 0.00338814
0.0501881 0.0100439 0.00300859
0.0447245 0.010182 0.00212781
0.0402341 0.00909063 0.00119104
0.0365361 0.00766835 0.000449318
0.0335749 0.00620424 -7.04707e-05
0.0313033 0.00486398 -0.000377046
0.0295662 0.00373698 -0.000491686
0.0282124 0.00283547 -0.000465
0.0271439 0.00212859 -0.000360551
0.0263076 0.00157835 -0.000235221
0.0256704 0.00115289 -0.000126556
0.0252023 0.000827194 -5.01612e-05
0.0248718 0.000581043 -5.60307e-06
0.024648 0.000397921 1.51102e-05
0.0245035 0.000264427 2.11652e-05
0.0244155 0.000169594 1.98394e-05
0.0243658 0.000104287 1.57719e-05
0.0243408 6.08739e-05 1.14034e-05
0.0243308 3.31194e-05 7.74054e-06
0.0243292 1.61376e-05 5.01862e-06
0.0243318 6.27689e-06 3.13853e-06
0.0243361 9.34558e-07 1.90285e-06
0.0243407 -1.66462e-06 1.12013e-06
0.0243449 -2.68243e-06 6.3911e-07
0.0243484 -2.84899e-06 3.51534e-07
0.0243512 -2.60357e-06 1.84327e-07
0.0243534 -2.19731e-06 9.00728e-08
0.024355 -1.76427e-06 3.8917e-08
0.0243562 -1.36879e-06 1.25381e-08
0.0243571 -1.03568e-06 -3.9232e-11
0.0243577 -7.68898e-07 -5.22761e-09
0.0243582 -5.62486e-07 -6.67071e-09
0.0243585 -4.0677e-07 -6.36831e-09
0.0243587 -2.91563e-07 -5.37103e-09
0.0243589 -2.07686e-07 -4.20967e-09
0.024359 -1.47521e-07 -3.1267e-09
0.0243591 -1.051e-07 -2.20825e-09
0.0243591 -7.60105e-08 -1.35866e-09
0.0243592 -5.73711e-08 -1.19794e-10
0.0243592 -5.01283e-08 2.32787e-09
0.0243593 -5.92489e-08 5.57894e-09
0.0243593 -9.88568e-08 -4.92202e-09
0.0243594 -1.29078e-07 -1.70306e-08
0.0148 -9.6154e-07 -1.75192e-06
0.0148024 -0.00529849 -0.00112588
0.0203984 -0.0164463 -0.00244881
0.0275908 -0.0288901 -0.0039416
0.0322575 -0.0463046 -0.0057748
0.0307153 -0.0285821 -0.00142218
0.0269139 -1.23762e-05 0.00330288
0.026352 0.00705429 0.00352398
0.0298435 0.0143817 0.00343936
0.0301902 0.0137832 0.00248182
0.0293956 0.0119892 0.00152454
0.0285705 0.0101416 0.000690713
0.0279525 0.00827298 8.82602e-05
0.0276457 0.00654183 -0.000272312
0.0275228 0.00508666 -0.000410782
0.0274795 0.00389713 -0.000394258
0.0274717 0.0029259 -0.000298378
0.0274879 0.00214139 -0.000182763
0.027524 0.00152497 -8.3127e-05
0.0275739 0.00105712 -1.37138e-05
0.0276306 0.000713078 2.54798e-05
0.0276888 0.000466494 4.13968e-05
0.0277447 0.000293854 4.26625e-05
0.0277963 0.000176141 3.66285e-05
0.027842 9.84969e-05 2.82748e-05
0.027881 4.9382e-05 2.03192e-05
0.0279131 1.99171e-05 1.38646e-05
0.0279386 3.44457e-06 9.09284e-06
0.0279584 -4.83644e-06 5.77532e-06
0.0279732 -8.23359e-06 3.56805e-06
0.0279841 -8.91843e-06 2.14841e-06
0.0279919 -8.24619e-06 1.26073e-06
0.0279975 -7.01602e-06 7.19552e-07
0.0280014 -5.667e-06 3.97595e-07
0.0280041 -4.41666e-06 2.10865e-07
0.0280059 -3.35365e-06 1.05579e-07
0.0280072 -2.49672e-06 4.81833e-08
0.0280081 -1.83049e-06 1.82397e-08
0.0280087 -1.32594e-06 3.58419e-09
0.0280091 -9.51322e-07 -2.84998e-09
0.0280093 -6.7746e-07 -5.05972e-09
0.0280095 -4.79772e-07 -5.23528e-09
0.0280097 -3.38653e-07 -4.54656e-09
0.0280097 -2.39073e-07 -3.57846e-09
0.0280098 -1.69906e-07 -2.54674e-09
0.0280098 -1.23635e-07 -1.42369e-09
0.0280099 -9.60157e-08 2.76309e-10
0.0280099 -8.68285e-08 2.37632e-09
0.0280099 -9.90022e-08 9.37256e-10
0.02801 -1.28952e-07 -1.74334e-08
0.02801 -1.47048e-07 -3.33675e-08
0.018 -1.93808e-06 -1.69906e-06
0.018003 -0.00701076 -0.00187493
0.0207913 -0.0190407 -0.00492549
0.0207524 -0.0250631 -0.00634536
0.0161076 -0.0270813 -0.0076333
-1.60958e-06 -0.0140579 -0.00433951
9.73305e-05 2.61303e-05 9.27647e-07
-3.31994e-05 3.45469e-05 0.000655739
0.00656161 0.00405992 0.00144598
0.0133902 0.00919539 0.00141932
0.016791 0.00997103 0.00101308
0.0185756 0.00898644 0.000478681
0.0202811 0.00745002 -6.1472e-06
0.0219773 0.00585748 -0.000278378
0.0234982 0.00451206 -0.000353309
0.0247806 0.00340165 -0.000310785
0.0258343 0.00247989 -0.000220423
0.0266911 0.00173187 -0.000125253
0.0273798 0.00115438 -4.62151e-05
0.0279229 0.000733509 9.22713e-06
0.0283412 0.000441774 4.1005e-05
0.0286562 0.00024729 5.32946e-05
0.0288892 0.00012207 5.23241e-05
0.0290592 4.48515e-05 4.43196e-05
0.0291818 2.99532e-07 3.40515e-05
0.029269 -2.26341e-05 2.43716e-05
0.0293301 -3.193e-05 1.652e-05
0.0293724 -3.32355e-05 1.07199e-05
0.0294011 -3.03676e-05 6.70456e-06
0.0294203 -2.57438e-05 4.05658e-06
0.0294329 -2.0772e-05 2.37704e-06
0.0294412 -1.61817e-05 1.34683e-06
0.0294465 -1.22802e-05 7.34212e-07
0.0294498 -9.13442e-06 3.81031e-07
0.029452 -6.6889e-06 1.84152e-07
0.0294533 -4.83786e-06 7.86976e-08
0.0294542 -3.46476e-06 2.51128e-08
0.0294547 -2.46192e-06 -2.98583e-11
0.029455 -1.73842e-06 -1.02119e-08
0.0294552 -1.22152e-06 -1.29583e-08
0.0294553 -8.55165e-07 -1.23205e-08
0.0294554 -5.97317e-07 -1.03801e-08
0.0294555 -4.17064e-07 -8.14755e-09
0.0294555 -2.92147e-07 -6.05613e-09
0.0294555 -2.06961e-07 -4.18428e-09
0.0294555 -1.51072e-07 -2.56298e-09
0.0294556 -1.17856e-07 -1.05934e-09
0.0294556 -1.02008e-07 -3.86818e-10
0.0294556 -1.00024e-07 -7.64213e-09
0.0294555 -9.7504e-08 -2.94065e-08
0.0294555 -9.27024e-08 -4.40183e-08
0.0196 -2.81677e-06 -2.5624e-06
0.019601 -0.00592458 -0.00274414
0.0190547 -0.013222 -0.00648395
0.0159336 -0.0162629 -0.00669401
0.0108697 -0.0152479 -0.00669286
0.00171315 -0.00628527 -0.00504633
7.24385e-05 -6.65079e-05 -0.00130521
3.33085e-05 -3.33085e-05 -4.19706e-08
-3.25955e-05 3.38034e-05 0.000263114
0.00388511 0.00272009 0.000563313
0.00887466 0.0063426 0.00049546
0.0117818 0.00659634 0.000145247
0.0150268 0.0051552 -0.000239249
0.0181775 0.00377614 -0.000406369
0.0208756 0.00274522 -0.000403033
0.0230601 0.00193876 -0.000321975
0.0247916 0.00127467 -0.000223772
0.0261501 0.000742399 -0.000135525
0.0272014 0.000351802 -6.4865e-05
0.0279964 9.64502e-05 -1.29719e-05
0.02858 -5.03886e-05 2.02367e-05
0.0289956 -0.000122363 3.64759e-05
0.0292835 -0.000148177 3.9738e-05
0.0294783 -0.000147778 3.51861e-05
0.0296073 -0.000133737 2.74274e-05
0.0296911 -0.000113756 1.95206e-05
0.0297442 -9.24925e-05 1.29492e-05
0.0297772 -7.26156e-05 8.10509e-06
0.0297972 -5.54399e-05 4.81752e-06
0.0298089 -4.13873e-05 2.72239e-06
0.0298156 -3.03451e-05 1.45524e-06
0.0298193 -2.19312e-05 7.24693e-07
0.0298212 -1.56704e-05 3.23628e-07
0.0298221 -1.10968e-05 1.15627e-07
0.0298225 -7.80304e-06 1.57785e-08
0.0298226 -5.4571e-06 -2.63595e-08
0.0298226 -3.80046e-06 -3.94977e-08
0.0298226 -2.63827e-06 -3.928e-08
0.0298225 -1.82711e-06 -3.38155e-08
0.0298224 -1.26325e-06 -2.7041e-08
0.0298224 -8.72611e-07 -2.06765e-08
0.0298223 -6.02839e-07 -1.5323e-08
0.0298223 -4.17258e-07 -1.1072e-08
0.0298222 -2.90387e-07 -7.82167e-09
0.0298222 -2.04653e-07 -5.42054e-09
0.0298222 -1.47631e-07 -3.87712e-09
0.0298222 -1.10027e-07 -3.29132e-09
0.0298222 -8.30788e-08 -3.9783e-09
0.0298221 -5.86829e-08 -1.38244e-08
0.0298221 -2.12502e-08 -3.3496e-08
0.029822 3.7813e-09 -4.40621e-08
0.0196 -1.35774e-06 -3.57816e-06
0.0195999 -0.00369709 -0.00312772
0.0187574 -0.00812177 -0.00652492
0.0175036 -0.00816229 -0.00605552
0.0131709 -0.00433678 -0.00554425
0.00907149 0.0025431 -0.00533629
0.00614135 0.00314363 -0.0031231
7.26142e-05 -6.04015e-05 -0.000676485
2.7806e-05 -2.7806e-05 -1.27236e-07
-3.20615e-05 3.31294e-05 9.6452e-05
0.00267451 0.00188409 0.000365435
0.00693725 0.00291478 0.000265595
0.0121867 0.00139232 -0.000166081
0.0168118 0.000446481 -0.000360543
0.0204097 4.71473e-05 -0.000368453
0.0230957 -0.000174179 -0.000297238
0.0250815 -0.000362965 -0.000214458
0.0265392 -0.000518205 -0.000145396
0.027589 -0.000605102 -9.1515e-05
0.0283195 -0.000613239 -4.94176e-05
0.0288049 -0.000561243 -1.84133e-05
0.0291109 -0.00047807 1.06955e-06
0.0292933 -0.000387379 1.02742e-05
0.0293953 -0.000302899 1.22711e-05
0.029448 -0.000230511 1.04863e-05
0.0294719 -0.000171598 7.492e-06
0.0294802 -0.000125383 4.69603e-06
0.0294807 -9.0179e-05 2.6122e-06
0.0294777 -6.40142e-05 1.26325e-06
0.0294737 -4.49641e-05 4.83376e-07
0.0294697 -3.1326e-05 8.11914e-08
0.0294662 -2.16919e-05 -9.67301e-08
0.0294634 -1.49554e-05 -1.5428e-07
0.0294613 -1.02803e-05 -1.54359e-07
0.0294597 -7.05305e-06 -1.31654e-07
0.0294585 -4.83326e-06 -1.03516e-07
0.0294576 -3.31e-06 -7.75501e-08
0.029457 -2.26619e-06 -5.63282e-08
0.0294566 -1.55156e-06 -4.00847e-08
0.0294563 -1.06258e-06 -2.81344e-08
0.0294561 -7.282e-07 -1.95556e-08
0.0294559 -4.99754e-07 -1.34865e-08
0.0294558 -3.43904e-07 -9.25382e-09
0.0294557 -2.37694e-07 -6.39283e-09
0.0294557 -1.65011e-07 -4.6268e-09
0.0294556 -1.13978e-07 -3.85095e-09
0.0294556 -7.52325e-08 -4.07174e-09
0.0294556 -4.00496e-08 -5.10625e-09
0.0294555 1.76781e-09 -1.32842e-08
0.0294555 6.23147e-08 -2.74804e-08
0.0294554 9.88829e-08 -3.41722e-08
0.018 -8.63863e-07 -3.5719e-06
0.0180009 -0.00201521 -0.00305068
0.0183138 -0.0038974 -0.0061642
0.0183657 -0.00270176 -0.00528882
0.0173437 0.000590677 -0.00419285
0.0170611 0.00704804 -0.00396574
0.0177953 0.0125673 -0.00301046
0.0109266 0.00692863 -0.00150488
7.40826e-05 -4.67204e-05 -0.000438791
-2.51129e-05 -5.44307e-05 5.56686e-07
7.90156e-06 -0.000736002 0.00074972
0.00823905 -0.00293191 0.00108838
0.0155066 -0.00448493 0.000447262
0.0204582 -0.00410138 0.000123365
0.0236141 -0.00318534 -1.6053e-06
0.025614 -0.00242029 -4.50766e-05
0.0268859 -0.00191175 -6.48419e-05
0.0276767 -0.00156637 -7.821e-05
0.0281332 -0.00128754 -8.28864e-05
0.0283575 -0.00103189 -7.55624e-05
0.0284299 -0.000797521 -5.93927e-05
0.0284145 -0.000595634 -4.10576e-05
0.0283573 -0.000433042 -2.57029e-05
0.0282878 -0.000308744 -1.51073e-05
0.0282217 -0.00021704 -8.68985e-06
0.0281659 -0.000150969 -5.09394e-06
0.0281221 -0.000104161 -3.1259e-06
0.0280892 -7.14246e-05 -2.01527e-06
0.0280652 -4.87642e-05 -1.34452e-06
0.0280482 -3.32027e-05 -9.09728e-07
0.0280363 -2.25768e-05 -6.14519e-07
0.028028 -1.53469e-05 -4.10682e-07
0.0280223 -1.04364e-05 -2.70474e-07
0.0280184 -7.1027e-06 -1.75411e-07
0.0280157 -4.83834e-06 -1.12119e-07
0.0280139 -3.2988e-06 -7.07487e-08
0.0280126 -2.25086e-06 -4.41623e-08
0.0280118 -1.53678e-06 -2.73275e-08
0.0280112 -1.04977e-06 -1.67985e-08
0.0280108 -7.1747e-07 -1.02787e-08
0.0280105 -4.9068e-07 -6.27268e-09
0.0280103 -3.35856e-07 -3.83203e-09
0.0280102 -2.29937e-07 -2.39425e-09
0.0280101 -1.56823e-07 -1.64197e-09
0.02801 -1.04955e-07 -1.40373e-09
0.02801 -6.55909e-08 -1.57824e-09
0.02801 -3.15013e-08 -2.09376e-09
0.0280099 4.12819e-09 -2.66494e-09
0.0280099 5.08134e-08 -6.61171e-09
0.0280099 1.14086e-07 -1.48704e-08
0.0280099 1.4974e-07 -1.94191e-08
0.0148 -4.84579e-07 -3.16445e-06
0.0148015 -0.00103985 -0.00283093
0.0162291 -0.00165845 -0.00542903
0.0177879 -5.18546e-05 -0.00429182
0.0191023 0.00314807 -0.00306405
0.0208309 0.00733507 -0.00284126
0.0246431 0.0129766 -0.00241101
0.027936 0.0195068 -0.00152128
0.0229752 0.0112845 -0.000349084
0.0234307 5.06018e-11 0.000622707
0.0265774 -0.00672058 0.00156014
0.0299733 -0.0131273 0.0021135
0.0307563 -0.0110489 0.00163976
0.0301567 -0.00770361 0.00113735
0.0291649 -0.00505498 0.000684796
0.0282046 -0.00333155 0.000335887
0.0273902 -0.00226938 0.000102056
0.0267217 -0.00158943 -3.40299e-05
0.0261745 -0.00111782 -9.57848e-05
0.0257286 -0.000773307 -0.000106987
0.0253711 -0.000522759 -9.076e-05
0.0250918 -0.000347342 -6.56241e-05
0.0248797 -0.000229426 -4.24904e-05
0.0247231 -0.000152183 -2.5391e-05
0.0246104 -0.000101934 -1.43016e-05
0.0245309 -6.9005e-05 -7.70443e-06
0.0244758 -4.71263e-05 -4.00274e-06
0.0244381 -3.23844e-05 -2.00775e-06
0.0244125 -2.234e-05 -9.63757e-07
0.0243952 -1.54437e-05 -4.31151e-07
0.0243836 -1.06858e-05 -1.67237e-07
0.0243757 -7.39413e-06 -4.20162e-08
0.0243704 -5.11369e-06 1.29394e-08
0.0243669 -3.53324e-06 3.32415e-08
0.0243644 -2.43827e-06 3.7222e-08
0.0243628 -1.68031e-06 3.41678e-08
0.0243617 -1.15627e-06 2.86557e-08
0.0243609 -7.94493e-07 2.28296e-08
0.0243604 -5.45154e-07 1.7596e-08
0.02436 -3.73585e-07 1.32506e-08
0.0243598 -2.55648e-07 9.80375e-09
0.0243596 -1.7448e-07 7.14642e-09
0.0243595 -1.18204e-07 5.12384e-09
0.0243594 -7.83058e-08 3.5916e-09
0.0243594 -4.84646e-08 2.43859e-09
0.0243593 -2.36868e-08 1.60263e-09
0.0243593 4.21037e-10 1.14394e-09
0.0243593 2.77028e-08 1.15966e-09
0.0243593 6.28468e-08 6.54596e-10
0.0243593 1.05719e-07 -4.408e-09
0.0243594 1.28316e-07 -8.83468e-09
0.01 -9.26652e-07 -2.86738e-06
0.0100008 -0.000636994 -0.0023054
0.0113196 -0.000719266 -0.00414511
0.013177 0.000542298 -0.00290789
0.0156015 0.00250962 -0.00180603
0.01949 0.00555687 -0.00181426
0.0254032 0.00836279 -0.00236555
0.0345194 0.0101204 -0.00209594