# vtk DataFile Version 2.0
Tobias Weinzierl: CPU, Manycore and Cluster Computing
ASCII

DATASET STRUCTURED_POINTS
DIMENSIONS  51 11 6

ORIGIN 0 0 0 

SPACING 0.1 0.1 0.1 

POINT_DATA 3366

VECTORS velocity float
0 0 0
4.19439e-12 0 0
6.32536e-09 0 0
6.3264e-09 0 0
-1.90848e-08 0 0
-4.29343e-10 0 0
1.72043e-09 0 0
9.54036e-11 0 0
-1.79211e-09 0 0
-3.26015e-09 0 0
-2.50734e-09 0 0
-2.09681e-09 0 0
-5.45019e-09 0 0
-1.19403e-08 0 0
-1.78224e-08 0 0
-2.06645e-08 0 0
-2.10606e-08 0 0
-2.08272e-08 0 0
-2.11227e-08 0 0
-2.21105e-08 0 0
-2.34574e-08 0 0
-2.4798e-08 0 0
-2.59173e-08 0 0
-2.67485e-08 0 0
-2.73133e-08 0 0
-2.76685e-08 0 0
-2.78747e-08 0 0
-2.79828e-08 0 0
-2.80305e-08 0 0
-2.80436e-08 0 0
-2.80387e-08 0 0
-2.80258e-08 0 0
-2.80106e-08 0 0
-2.7996e-08 0 0
-2.79833e-08 0 0
-2.79727e-08 0 0
-2.79643e-08 0 0
-2.79577e-08 0 0
-2.79526e-08 0 0
-2.79487e-08 0 0
-2.79457e-08 0 0
-2.79434e-08 0 0
-2.79417e-08 0 0
-2.79404e-08 0 0
-2.79395e-08 0 0
-2.79388e-08 0 0
-2.79385e-08 0 0
-2.79384e-08 0 0
-2.79386e-08 0 0
-2.794e-08 0 0
0.00201741 0 0
0 3.87467e-07 0
4.76389e-12 -5.68598e-09 0
1.02904e-08 -1.14015e-08 0
1.45574e-08 -2.22527e-09 0
-1.85653e-08 -1.60482e-08 0
1.46559e-08 -2.05784e-08 0
1.36404e-08 5.85501e-09 0
5.66295e-09 1.50495e-08 0
1.16017e-09 1.53828e-08 0
-2.8511e-09 1.10789e-08 0
-4.23676e-09 6.30723e-09 0
-5.3984e-09 6.83837e-09 0
-1.17639e-08 1.06444e-08 0
-2.27297e-08 1.16484e-08 0
-3.21622e-08 8.17084e-09 0
-3.66103e-08 3.51211e-09 0
-3.80411e-08 7.89839e-10 0
-3.98247e-08 3.40754e-10 0
-4.34161e-08 9.4647e-10 0
-4.8344e-08 1.54025e-09 0
-5.34972e-08 1.73294e-09 0
-5.80127e-08 1.57729e-09 0
-6.15102e-08 1.25103e-09 0
-6.39784e-08 8.97563e-10 0
-6.55911e-08 5.92562e-10 0
-6.65713e-08 3.60756e-10 0
-6.71214e-08 1.99481e-10 0
-6.7398e-08 9.52519e-11 0
-6.75118e-08 3.26777e-11 0
-6.75357e-08 -1.67337e-12 0
-6.75148e-08 -1.81206e-11 0
-6.74756e-08 -2.39656e-11 0
-6.74324e-08 -2.40481e-11 0
-6.73922e-08 -2.13851e-11 0
-6.73579e-08 -1.77371e-11 0
-6.733e-08 -1.40484e-11 0
-6.7308e-08 -1.07639e-11 0
-6.7291e-08 -8.04153e-12 0
-6.72781e-08 -5.88733e-12 0
-6.72683e-08 -4.2365e-12 0
-6.72609e-08 -2.99915e-12 0
-6.72554e-08 -2.08419e-12 0
-6.72513e-08 -1.40988e-12 0
-6.72482e-08 -9.06333e-13 0
-6.72461e-08 -5.14878e-13 0
-6.72447e-08 -1.79347e-13 0
-6.7244e-08 1.66272e-13 0
-6.72442e-08 6.11516e-13 0
-6.72455e-08 1.71035e-12 0
-6.72493e-08 5.00276e-12 0
0.00576335 -4.58039e-08 0
0 -2.26655e-08 0
3.18767e-12 -4.81199e-09 0
1.09573e-08 -1.69097e-08 0
2.74355e-08 -2.72134e-08 0
2.03302e-08 -5.61522e-08 0
5.13166e-08 -4.67783e-08 0
3.96487e-08 -2.00611e-09 0
2.36319e-08 3.48974e-09 0
3.30364e-09 -3.40137e-09 0
-1.15192e-08 -5.51544e-09 0
-1.6827e-08 -1.52809e-09 0
-1.56187e-08 4.42568e-09 0
-1.82556e-08 8.25231e-09 0
-2.71224e-08 9.8004e-09 0
-3.50245e-08 1.12998e-08 0
-3.78727e-08 1.34722e-08 0
-3.7753e-08 1.51644e-08 0
-3.82573e-08 1.54094e-08 0
-4.10134e-08 1.41905e-08 0
-4.55668e-08 1.20005e-08 0
-5.06509e-08 9.41804e-09 0
-5.52034e-08 6.91282e-09 0
-5.87121e-08 4.77172e-09 0
-6.11226e-08 3.10492e-09 0
-6.26209e-08 1.89948e-09 0
-6.346e-08 1.08024e-09 0
-6.38683e-08 5.54515e-10 0
-6.40192e-08 2.36608e-10 0
-6.40301e-08 5.747e-11 0
-6.39744e-08 -3.39091e-11 0
-6.38945e-08 -7.28868e-11 0
-6.3813e-08 -8.26746e-11 0
-6.37401e-08 -7.77315e-11 0
-6.36796e-08 -6.65687e-11 0
-6.36314e-08 -5.38605e-11 0
-6.35942e-08 -4.19308e-11 0
-6.35659e-08 -3.17418e-11 0
-6.35448e-08 -2.35199e-11 0
-6.35291e-08 -1.71317e-11 0
-6.35174e-08 -1.22978e-11 0
-6.35088e-08 -8.70556e-12 0
-6.35024e-08 -6.06324e-12 0
-6.34977e-08 -4.11982e-12 0
-6.34943e-08 -2.66419e-12 0
-6.3492e-08 -1.51304e-12 0
-6.34905e-08 -4.85015e-13 0
-6.349e-08 7.08783e-13 0
-6.34905e-08 2.58325e-12 0
-6.34919e-08 5.69878e-12 0
-6.34953e-08 1.05087e-11 0
0.00818086 -9.84297e-08 0
0 -6.42045e-07 0
9.11295e-12 -7.77187e-09 0
1.37111e-08 -2.65298e-08 0
3.34103e-08 -4.89735e-08 0
2.1136e-08 -6.55798e-08 0
3.6231e-08 -3.53846e-08 0
2.7741e-08 -2.32675e-11 0
1.80646e-08 -4.19001e-09 0
-1.41801e-08 -1.6531e-08 0
-3.2931e-08 -2.89413e-08 0
-3.40244e-08 -3.50526e-08 0
-3.20426e-08 -3.36043e-08 0
-3.68952e-08 -2.08191e-08 0
-4.87394e-08 -6.41718e-10 0
-5.75768e-08 1.73864e-08 0
-5.82996e-08 2.71805e-08 0
-5.25099e-08 2.87116e-08 0
-4.46304e-08 2.54923e-08 0
-3.83172e-08 2.07136e-08 0
-3.4885e-08 1.59142e-08 0
-3.37909e-08 1.16122e-08 0
-3.38938e-08 7.99717e-09 0
-3.43044e-08 5.15132e-09 0
-3.45916e-08 3.06141e-09 0
-3.46524e-08 1.63105e-09 0
-3.45338e-08 7.202e-10 0
-3.43178e-08 1.84976e-10 0
-3.40722e-08 -9.82213e-11 0
-3.38388e-08 -2.23975e-10 0
-3.36378e-08 -2.58751e-10 0
-3.34752e-08 -2.46042e-10 0
-3.3349e-08 -2.1243e-10 0
-3.32538e-08 -1.7297e-10 0
-3.31835e-08 -1.35374e-10 0
-3.31322e-08 -1.02968e-10 0
-3.30952e-08 -7.66524e-11 0
-3.30685e-08 -5.61141e-11 0
-3.30493e-08 -4.05289e-11 0
-3.30354e-08 -2.89439e-11 0
-3.30253e-08 -2.04613e-11 0
-3.3018e-08 -1.43126e-11 0
-3.30126e-08 -9.87354e-12 0
-3.30086e-08 -6.6493e-12 0
-3.30057e-08 -4.24656e-12 0
-3.30037e-08 -2.32705e-12 0
-3.30023e-08 -5.46129e-13 0
-3.30015e-08 1.43688e-12 0
-3.30011e-08 3.83511e-12 0
-3.30007e-08 6.69662e-12 0
-3.3001e-08 1.0028e-11 0
0.00910483 -1.00625e-07 0
0 -1.24829e-06 0
5.1321e-12 -1.41663e-08 0
5.7787e-09 -3.82114e-08 0
1.12566e-08 -4.90336e-08 0
-2.80653e-09 -3.91042e-08 0
-7.82673e-12 -1.41294e-08 0
-8.24771e-11 -1.29143e-10 0
1.11791e-10 -1.24972e-10 0
-1.45312e-08 -1.59377e-08 0
-4.4797e-08 -4.49453e-08 0
-5.30706e-08 -6.00043e-08 0
-5.33743e-08 -5.38616e-08 0
-6.14654e-08 -2.92221e-08 0
-7.20225e-08 2.26642e-09 0
-7.823e-08 2.50995e-08 0
-7.71431e-08 3.34195e-08 0
-6.83475e-08 3.0401e-08 0
-5.46727e-08 2.29259e-08 0
-4.08125e-08 1.5755e-08 0
-3.00475e-08 1.02882e-08 0
-2.30263e-08 6.314e-09 0
-1.88305e-08 3.43625e-09 0
-1.63088e-08 1.42663e-09 0
-1.46706e-08 1.34772e-10 0
-1.35083e-08 -5.93856e-10 0
-1.26413e-08 -9.21546e-10 0
-1.19892e-08 -9.94355e-10 0
-1.15054e-08 -9.25532e-10 0
-1.11544e-08 -7.92623e-10 0
-1.09051e-08 -6.43008e-10 0
-1.07314e-08 -5.02157e-10 0
-1.06121e-08 -3.81337e-10 0
-1.05309e-08 -2.83512e-10 0
-1.04759e-08 -2.07357e-10 0
-1.04387e-08 -1.49717e-10 0
-1.04134e-08 -1.06991e-10 0
-1.03961e-08 -7.58182e-11 0
-1.03841e-08 -5.33497e-11 0
-1.03756e-08 -3.73048e-11 0
-1.03694e-08 -2.59237e-11 0
-1.03649e-08 -1.78804e-11 0
-1.03615e-08 -1.21904e-11 0
-1.03589e-08 -8.12465e-12 0
-1.03569e-08 -5.13344e-12 0
-1.03553e-08 -2.80214e-12 0
-1.03539e-08 -8.49199e-13 0
-1.03525e-08 8.66539e-13 0
-1.0351e-08 2.3789e-12 0
-1.03491e-08 3.78132e-12 0
-1.03479e-08 5.50816e-12 0
0.00940431 -5.78009e-08 0
0 -1.12583e-06 0
-5.19275e-12 -1.55103e-08 0
-3.39103e-09 -3.29883e-08 0
-4.62357e-09 -3.85021e-08 0
-1.72029e-08 -4.08946e-08 0
-1.53829e-08 -1.98743e-08 0
-9.73261e-11 9.294e-11 0
1.89353e-11 -1.89353e-11 0
1.02581e-10 -1.20983e-10 0
-2.37939e-08 -2.50037e-08 0
-6.30478e-08 -6.31588e-08 0
-6.54136e-08 -6.49698e-08 0
-6.813e-08 -3.36261e-08 0
-7.01694e-08 3.61392e-09 0
-7.24754e-08 2.91805e-08 0
-7.44527e-08 3.62678e-08 0
-7.07905e-08 2.90239e-08 0
-5.91369e-08 1.71082e-08 0
-4.34886e-08 7.3226e-09 0
-2.9259e-08 1.29509e-09 0
-1.90204e-08 -1.90864e-09 0
-1.25968e-08 -3.42307e-09 0
-8.80539e-09 -3.94323e-09 0
-6.57701e-09 -3.86307e-09 0
-5.23409e-09 -3.4452e-09 0
-4.40338e-09 -2.87995e-09 0
-3.88337e-09 -2.29546e-09 0
-3.55909e-09 -1.765e-09 0
-3.35982e-09 -1.3205e-09 0
-3.2399e-09 -9.67516e-10 0
-3.16944e-09 -6.9769e-10 0
-3.12907e-09 -4.97058e-10 0
-3.1065e-09 -3.50881e-10 0
-3.09414e-09 -2.45968e-10 0
-3.08746e-09 -1.71501e-10 0
-3.08378e-09 -1.19077e-10 0
-3.08163e-09 -8.2394e-11 0
-3.08019e-09 -5.68402e-11 0
-3.07904e-09 -3.90957e-11 0
-3.07799e-09 -2.67973e-11 0
-3.07696e-09 -1.82743e-11 0
-3.07594e-09 -1.23496e-11 0
-3.07492e-09 -8.19802e-12 0
-3.07387e-09 -5.25612e-12 0
-3.07277e-09 -3.16053e-12 0
-3.07154e-09 -1.68573e-12 0
-3.07009e-09 -6.90453e-13 0
-3.0685e-09 -1.11067e-13 0
-3.06673e-09 7.96738e-14 0
-3.06564e-09 2.84376e-13 0
0.00946882 5.01067e-09 0
0 -7.79802e-07 0
-9.27407e-13 -1.00828e-08 0
-3.76256e-09 -2.5525e-08 0
-4.5699e-09 -3.25692e-08 0
-2.60206e-08 -3.0734e-08 0
-3.81577e-08 -1.67474e-08 0
-1.54688e-08 -3.13823e-09 0
-9.39366e-11 9.1961e-11 0
1.07222e-11 -1.07222e-11 0
8.87549e-11 -1.16419e-10 0
-2.89038e-08 -3.67326e-08 0
-4.68895e-08 -6.32218e-08 0
-5.35064e-08 -3.20434e-08 0
-5.1152e-08 6.81709e-09 0
-4.79622e-08 3.31319e-08 0
-5.06579e-08 3.90832e-08 0
-5.42726e-08 2.83712e-08 0
-5.07513e-08 1.23286e-08 0
-4.01778e-08 -1.98938e-10 0
-2.81868e-08 -6.95828e-09 0
-1.89979e-08 -9.40802e-09 0
-1.34909e-08 -9.4533e-09 0
-1.07583e-08 -8.36874e-09 0
-9.64554e-09 -6.87454e-09 0
-9.33566e-09 -5.36162e-09 0
-9.37118e-09 -4.02456e-09 0
-9.52777e-09 -2.93579e-09 0
-9.70585e-09 -2.09684e-09 0
-9.86625e-09 -1.47493e-09 0
-9.99721e-09 -1.02637e-09 0
-1.00985e-08 -7.09007e-10 0
-1.01743e-08 -4.87415e-10 0
-1.02297e-08 -3.34059e-10 0
-1.02694e-08 -2.28529e-10 0
-1.02973e-08 -1.5616e-10 0
-1.03168e-08 -1.06627e-10 0
-1.033e-08 -7.27564e-11 0
-1.03389e-08 -4.96049e-11 0
-1.03446e-08 -3.37805e-11 0
-1.03482e-08 -2.29606e-11 0
-1.03503e-08 -1.55575e-11 0
-1.03513e-08 -1.04901e-11 0
-1.03517e-08 -7.02982e-12 0
-1.03515e-08 -4.69127e-12 0
-1.0351e-08 -3.15781e-12 0
-1.03503e-08 -2.2365e-12 0
-1.03494e-08 -1.83672e-12 0
-1.03484e-08 -2.00761e-12 0
-1.03474e-08 -2.98935e-12 0
-1.03468e-08 -4.71793e-12 0
0.00940428 6.53867e-08 0
0 -5.47209e-07 0
5.39405e-12 -7.6781e-09 0
-2.03866e-09 -1.90922e-08 0
-7.04523e-09 -2.42774e-08 0
-2.72391e-08 -2.05617e-08 0
-4.70939e-08 -7.97064e-09 0
-4.12455e-08 -8.17251e-10 0
-2.13381e-08 -5.4569e-10 0
-1.02717e-10 8.1201e-11 0
8.60261e-11 7.07295e-11 0
5.569e-12 -1.95922e-08 0
-3.01361e-08 -3.27624e-08 0
-5.24449e-08 -1.1182e-08 0
-5.16804e-08 1.55571e-08 0
-3.4518e-08 3.14683e-08 0
-2.29314e-08 3.24839e-08 0
-2.50732e-08 2.15133e-08 0
-3.08977e-08 6.77803e-09 0
-3.20538e-08 -4.47668e-09 0
-2.94223e-08 -1.00875e-08 0
-2.67167e-08 -1.14041e-08 0
-2.56794e-08 -1.04226e-08 0
-2.61313e-08 -8.55392e-09 0
-2.7318e-08 -6.57096e-09 0
-2.86474e-08 -4.82792e-09 0
-2.98215e-08 -3.44032e-09 0
-3.07476e-08 -2.40154e-09 0
-3.14337e-08 -1.65443e-09 0
-3.19239e-08 -1.13084e-09 0
-3.22665e-08 -7.69746e-10 0
-3.25029e-08 -5.23034e-10 0
-3.26648e-08 -3.5527e-10 0
-3.27751e-08 -2.41402e-10 0
-3.285e-08 -1.64126e-10 0
-3.29006e-08 -1.11644e-10 0
-3.29347e-08 -7.59612e-11 0
-3.29575e-08 -5.16757e-11 0
-3.29727e-08 -3.51338e-11 0
-3.29825e-08 -2.38621e-11 0
-3.29889e-08 -1.61836e-11 0
-3.29927e-08 -1.0961e-11 0
-3.2995e-08 -7.42381e-12 0
-3.29962e-08 -5.05292e-12 0
-3.29967e-08 -3.5064e-12 0
-3.29967e-08 -2.5742e-12 0
-3.29965e-08 -2.15997e-12 0
-3.29961e-08 -2.27301e-12 0
-3.29958e-08 -3.07013e-12 0
-3.29956e-08 -5.09065e-12 0
-3.29963e-08 -8.81402e-12 0
0.00910478 1.00953e-07 0
0 -4.66177e-07 0
6.61614e-12 -4.16201e-09 0
-1.23329e-09 -1.13971e-08 0
-1.11116e-08 -1.61756e-08 0
-3.46314e-08 -1.45675e-08 0
-5.6781e-08 -1.89597e-09 0
-5.62575e-08 6.05774e-09 0
-4.71191e-08 -1.10998e-08 0
-2.94003e-08 -1.34261e-08 0
-2.69503e-08 7.64069e-13 0
-2.99315e-08 -2.71114e-09 0
-5.40044e-08 2.80369e-09 0
-7.4896e-08 1.71932e-08 0
-6.7234e-08 2.25871e-08 0
-3.5054e-08 1.75077e-08 0
-1.11931e-08 8.75351e-09 0
-1.31903e-08 1.06828e-09 0
-2.86228e-08 -3.8404e-09 0
-4.13619e-08 -5.90519e-09 0
-4.76094e-08 -6.05352e-09 0
-5.04297e-08 -5.35549e-09 0
-5.25013e-08 -4.43998e-09 0
-5.463e-08 -3.54263e-09 0
-5.67131e-08 -2.73805e-09 0
-5.85247e-08 -2.05668e-09 0
-5.99616e-08 -1.50857e-09 0
-6.10327e-08 -1.08657e-09 0
-6.18002e-08 -7.72408e-10 0
-6.23371e-08 -5.44056e-10 0
-6.27072e-08 -3.80741e-10 0
-6.29604e-08 -2.65194e-10 0
-6.31327e-08 -1.84037e-10 0
-6.32497e-08 -1.27326e-10 0
-6.33289e-08 -8.78501e-11 0
-6.33824e-08 -6.04557e-11 0
-6.34184e-08 -4.1496e-11 0
-6.34425e-08 -2.84068e-11 0
-6.34585e-08 -1.93935e-11 0
-6.34689e-08 -1.32047e-11 0
-6.34756e-08 -8.97073e-12 0
-6.34797e-08 -6.08943e-12 0
-6.34821e-08 -4.14739e-12 0
-6.34835e-08 -2.86676e-12 0
-6.34841e-08 -2.07126e-12 0
-6.34844e-08 -1.66468e-12 0
-6.34845e-08 -1.62895e-12 0
-6.34846e-08 -2.0403e-12 0
-6.3485e-08 -3.0803e-12 0
-6.34861e-08 -5.32726e-12 0
-6.3489e-08 -9.58798e-12 0
0.00818084 8.99524e-08 0
0 -4.82277e-07 0
1.13502e-11 -1.00969e-09 0
-1.02526e-09 -3.74188e-09 0
-1.40277e-08 -6.36049e-09 0
-3.84509e-08 -6.26301e-09 0
-6.08635e-08 -3.70488e-09 0
-6.21259e-08 -4.25639e-10 0
-5.41558e-08 -5.28435e-09 0
-6.25202e-08 -6.57601e-09 0
-5.91875e-08 4.43435e-09 0
-5.38985e-08 1.3153e-08 0
-5.2819e-08 1.66763e-08 0
-5.084e-08 1.52907e-08 0
-3.74946e-08 9.75597e-09 0
-1.55484e-08 1.28049e-09 0
-6.28821e-09 -7.22568e-09 0
-1.81667e-08 -1.11032e-08 0
-3.81531e-08 -9.12946e-09 0
-5.26647e-08 -4.65962e-09 0
-5.92368e-08 -1.18629e-09 0
-6.1348e-08 3.38219e-10 0
-6.20946e-08 5.76223e-10 0
-6.27509e-08 3.37727e-10 0
-6.35338e-08 6.23798e-11 0
-6.43422e-08 -1.12393e-10 0
-6.50676e-08 -1.86419e-10 0
-6.56603e-08 -1.95873e-10 0
-6.61162e-08 -1.73722e-10 0
-6.64534e-08 -1.40939e-10 0
-6.66963e-08 -1.08357e-10 0
-6.68683e-08 -8.04506e-11 0
-6.69886e-08 -5.83289e-11 0
-6.70718e-08 -4.15839e-11 0
-6.7129e-08 -2.928e-11 0
-6.71679e-08 -2.04194e-11 0
-6.71942e-08 -1.41293e-11 0
-6.72117e-08 -9.71159e-12 0
-6.72232e-08 -6.63576e-12 0
-6.72306e-08 -4.51067e-12 0
-6.72352e-08 -3.05409e-12 0
-6.72379e-08 -2.06592e-12 0
-6.72394e-08 -1.40742e-12 0
-6.72401e-08 -9.8628e-13 0
-6.72403e-08 -7.47456e-13 0
-6.72404e-08 -6.66741e-13 0
-6.72404e-08 -7.55845e-13 0
-6.72407e-08 -1.07426e-12 0
-6.72416e-08 -1.69423e-12 0
-6.72436e-08 -2.77151e-12 0
-6.72481e-08 -4.83053e-12 0
0.00576337 3.65883e-08 0
0 0 0
7.22549e-12 0 0
-5.18928e-10 0 0
-7.06581e-09 0 0
-1.81092e-08 0 0
-2.83941e-08 0 0
-3.16476e-08 0 0
-2.83735e-08 0 0
-3.3131e-08 0 0
-3.22396e-08 0 0
-2.39617e-08 0 0
-1.38261e-08 0 0
-6.50046e-09 0 0
-1.34237e-09 0 0
1.81226e-09 0 0
-1.05088e-09 0 0
-9.95734e-09 0 0
-1.95116e-08 0 0
-2.54519e-08 0 0
-2.76261e-08 0 0
-2.78111e-08 0 0
-2.74533e-08 0 0
-2.71757e-08 0 0
-2.70984e-08 0 0
-2.71643e-08 0 0
-2.72952e-08 0 0
-2.74379e-08 0 0
-2.75657e-08 0 0
-2.76694e-08 0 0
-2.77488e-08 0 0
-2.78072e-08 0 0
-2.78491e-08 0 0
-2.78786e-08 0 0
-2.7899e-08 0 0
-2.79129e-08 0 0
-2.79223e-08 0 0
-2.79285e-08 0 0
-2.79325e-08 0 0
-2.7935e-08 0 0
-2.79364e-08 0 0
-2.79372e-08 0 0
-2.79376e-08 0 0
-2.79376e-08 0 0
-2.79376e-08 0 0
-2.79375e-08 0 0
-2.79374e-08 0 0
-2.79376e-08 0 0
-2.79381e-08 0 0
-2.79391e-08 0 0
-2.79414e-08 0 0
0.00201744 0 0
0 0 5.3767e-07
4.76549e-12 0 -6.34715e-10
1.04873e-08 0 5.08408e-09
2.02003e-08 0 2.76403e-08
-5.23809e-08 0 2.28088e-08
-6.93565e-09 0 -2.21925e-10
2.12342e-09 0 -6.37485e-09
6.98751e-09 0 -1.15321e-08
1.2621e-08 0 -1.20225e-08
1.74025e-08 0 -1.03591e-08
2.49885e-08 0 -7.46603e-09
3.11685e-08 0 -3.89104e-09
2.76091e-08 0 -7.96473e-10
1.29136e-08 0 7.2825e-10
-5.64424e-09 0 5.57757e-10
-2.05566e-08 0 -2.69571e-10
-3.02962e-08 0 -6.22984e-10
-3.73052e-08 0 -2.74549e-10
-4.37889e-08 0 3.40888e-10
-5.02672e-08 0 7.98328e-10
-5.62797e-08 0 9.58404e-10
-6.12977e-08 0 8.86374e-10
-6.51028e-08 0 7.03169e-10
-6.77656e-08 0 5.02128e-10
-6.95046e-08 0 3.31121e-10
-7.05678e-08 0 2.04303e-10
-7.11723e-08 0 1.18376e-10
-7.14843e-08 0 6.39701e-11
-7.16205e-08 0 3.1459e-11
-7.1658e-08 0 1.31111e-11
-7.1645e-08 0 3.42852e-12
-7.16099e-08 0 -1.21108e-12
-7.15686e-08 0 -3.06775e-12
-7.15291e-08 0 -3.48804e-12
-7.14947e-08 0 -3.23869e-12
-7.14665e-08 0 -2.73438e-12
-7.14441e-08 0 -2.18443e-12
-7.14266e-08 0 -1.68344e-12
-7.14133e-08 0 -1.26511e-12
-7.14032e-08 0 -9.32858e-13
-7.13956e-08 0 -6.7666e-13
-7.13899e-08 0 -4.8186e-13
-7.13856e-08 0 -3.33258e-13
-7.13824e-08 0 -2.16056e-13
-7.13802e-08 0 -1.17914e-13
-7.13787e-08 0 -2.76998e-14
-7.13779e-08 0 5.84112e-14
-7.13779e-08 0 7.99872e-14
-7.13791e-08 0 2.52912e-13
-7.13829e-08 0 1.96961e-12
0.00571661 0 -1.02523e-08
0.0036 -3.1104e-07 -6.40654e-08
0.00359981 -0.00136763 -1.43879e-05
0.00672675 -0.0038724 0.000104917
0.0135951 -0.00598803 -0.000630773
0.0236083 -0.0143893 -0.00438775
0.0461867 -0.0131094 -0.00489484
0.0496437 -0.00178774 -0.00166499
0.0493921 0.00274443 -0.000186707
0.0443802 0.00505446 0.00053069
0.0387219 0.00521361 0.000492188
0.0335538 0.00455341 0.000215229
0.0292284 0.00365757 -5.1452e-05
0.0258395 0.00272414 -0.000237097
0.023303 0.00187693 -0.000323432
0.0214421 0.00121675 -0.000313954
0.0200811 0.000773285 -0.000239755
0.0190892 0.000503549 -0.000147593
0.0183752 0.000341647 -7.22649e-05
0.0178727 0.000237432 -2.51298e-05
0.0175293 0.000164305 -1.7422e-06
0.0173025 0.000110913 6.90361e-06
0.017158 7.22855e-05 8.26367e-06
0.0170695 4.52666e-05 6.85085e-06
0.0170174 2.71265e-05 4.86419e-06
0.0169883 1.54414e-05 3.1504e-06
0.016973 8.21822e-06 1.91021e-06
0.0169657 3.9431e-06 1.09531e-06
0.0169628 1.53792e-06 5.93612e-07
0.0169622 2.72768e-07 3.00281e-07
0.0169627 -3.26065e-07 1.36822e-07
0.0169636 -5.54543e-07 5.04654e-08
0.0169646 -5.90729e-07 7.97261e-09
0.0169655 -5.37413e-07 -1.06412e-08
0.0169662 -4.51003e-07 -1.69297e-08
0.0169668 -3.60359e-07 -1.73226e-08
0.0169673 -2.78645e-07 -1.52482e-08
0.0169676 -2.10527e-07 -1.24358e-08
0.0169678 -1.56402e-07 -9.6872e-09
0.016968 -1.14767e-07 -7.31896e-09
0.0169682 -8.34878e-08 -5.40841e-09
0.0169683 -6.04249e-08 -3.92779e-09
0.0169683 -4.37097e-08 -2.81657e-09
0.0169684 -3.18334e-08 -2.0131e-09
0.0169684 -2.36589e-08 -1.47242e-09
0.0169685 -1.83995e-08 -1.16214e-09
0.0169685 -1.55418e-08 -9.41199e-10
0.0169685 -1.49938e-08 -4.91241e-10
0.0169685 -1.69124e-08 1.99657e-09
0.0169686 -2.80718e-08 5.94057e-09
0.0169687 -8.6244e-08 -1.43457e-08
0.0169688 -1.34855e-07 -3.64246e-08
0.01 -1.41293e-07 -1.4611e-06
0.0100007 -0.00299079 -0.000586477
0.014809 -0.00991416 -0.000764995
0.0241454 -0.0176993 -0.00131732
0.0383616 -0.0322625 -0.00340264
0.0588523 -0.0244624 -0.000806314
0.0561393 -0.00258993 0.00312286
0.0556149 0.00523424 0.00330171
0.0498493 0.0102846 0.002869
0.0443529 0.0104795 0.00193346
0.0398381 0.00939683 0.000980901
0.0361263 0.00790125 0.000248307
0.0331472 0.00630095 -0.000259327
0.0308484 0.0048135 -0.000526795
0.0290905 0.00356242 -0.000558349
0.0277591 0.00257283 -0.000436982
0.0267758 0.00181799 -0.000272058
0.0260738 0.0012576 -0.000135686
0.0255903 0.000850772 -4.97165e-05
0.0252697 0.000561471 -6.2762e-06
0.0250659 0.000360374 1.05695e-05
0.0249424 0.000224252 1.40297e-05
0.0248716 0.000134797 1.21708e-05
0.0248339 7.78258e-05 8.99139e-06
0.0248159 4.27133e-05 6.09021e-06
0.0248089 2.18239e-05 3.90396e-06
0.0248075 9.89143e-06 2.40659e-06
0.0248089 3.4169e-06 1.43876e-06
0.0248112 1.53379e-07 8.37606e-07
0.0248136 -1.29662e-06 4.75355e-07
0.0248158 -1.77483e-06 2.62594e-07
0.0248176 -1.77083e-06 1.40581e-07
0.0248191 -1.55778e-06 7.22893e-08
0.0248202 -1.28005e-06 3.50836e-08
0.024821 -1.008e-06 1.5468e-08
0.0248216 -7.71243e-07 5.57126e-09
0.0248221 -5.78163e-07 8.99246e-10
0.0248224 -4.27037e-07 -1.05835e-09
0.0248226 -3.12046e-07 -1.66964e-09
0.0248228 -2.26361e-07 -1.658e-09
0.0248229 -1.63587e-07 -1.39276e-09
0.024823 -1.18338e-07 -1.06137e-09
0.024823 -8.63711e-08 -7.56673e-10
0.0248231 -6.45326e-08 -5.17056e-10
0.0248231 -5.07356e-08 -3.57632e-10
0.0248231 -4.38729e-08 5.32725e-11
0.0248232 -4.48327e-08 1.38831e-09
0.0248232 -6.16051e-08 4.8963e-09
0.0248233 -1.08739e-07 6.68624e-09
0.0248234 -2.12874e-07 -3.32884e-08
0.0248235 -2.83925e-07 -7.25367e-08
0.0148 -9.64445e-07 -1.74868e-06
0.0148024 -0.00528374 -0.00112383
0.0203251 -0.0163381 -0.00241873
0.0273497 -0.0285634 -0.00396006
0.0319144 -0.0457349 -0.00573263
0.0304245 -0.0282454 -0.00134714
0.0267173 -1.22454e-05 0.00327258
0.0261857 0.00713754 0.00345058
0.0298297 0.0146419 0.00330227
0.03024 0.0141717 0.00230571
0.0294382 0.0124308 0.00132008
0.0285789 0.0105791 0.000467329
0.027884 0.00859162 -0.000129734
0.0275231 0.00662145 -0.000435027
0.0273999 0.00488658 -0.000471632
0.0274092 0.00347441 -0.00035458
0.0274779 0.00239508 -0.000201011
0.0275602 0.00161082 -7.76405e-05
0.0276342 0.00105953 -3.05607e-06
0.0276954 0.000679726 3.04584e-05
0.0277461 0.000422729 3.8372e-05
0.0277892 0.000252892 3.40741e-05
0.0278258 0.000144074 2.59601e-05
0.0278563 7.68919e-05 1.81038e-05
0.0278808 3.71582e-05 1.19171e-05
0.0278999 1.48335e-05 7.5309e-06
0.0279142 3.10697e-06 4.6137e-06
0.0279248 -2.44796e-06 2.75566e-06
0.0279324 -4.59159e-06 1.60944e-06
0.0279377 -4.97558e-06 9.20218e-07
0.0279415 -4.54556e-06 5.14836e-07
0.0279441 -3.81519e-06 2.81212e-07
0.0279459 -3.04418e-06 1.49259e-07
0.0279471 -2.3494e-06 7.63059e-08
0.027948 -1.77149e-06 3.69449e-08
0.0279485 -1.31343e-06 1.63417e-08
0.0279489 -9.61787e-07 5.99368e-09
0.0279492 -6.97855e-07 1.11604e-09
0.0279494 -5.03058e-07 -9.31997e-10
0.0279495 -3.61192e-07 -1.57518e-09
0.0279496 -2.59095e-07 -1.56218e-09
0.0279497 -1.86566e-07 -1.27954e-09
0.0279497 -1.36021e-07 -9.19393e-10
0.0279498 -1.02097e-07 -5.29649e-10
0.0279498 -8.14483e-08 -5.18684e-11
0.0279498 -7.35025e-08 8.57667e-10
0.0279499 -8.08893e-08 2.56803e-09
0.0279499 -1.09511e-07 3.76961e-09
0.0279499 -1.6575e-07 -5.2637e-09
0.02795 -2.46254e-07 -6.07139e-08
0.02795 -2.91122e-07 -1.07014e-07
0.018 -1.94994e-06 -1.71096e-06
0.0180029 -0.00693823 -0.00188577
0.0207009 -0.0187728 -0.00491172
0.0206074 -0.024625 -0.0063185
0.0160144 -0.0267118 -0.00758843
-1.59014e-06 -0.013931 -0.00429691
9.80204e-05 2.70483e-05 9.09943e-07
-3.40123e-05 3.54166e-05 0.000632181
0.00668137 0.00422883 0.00137038
0.0137668 0.00966835 0.00131378
0.0172199 0.0106133 0.000892126
0.0189289 0.0096249 0.000334219
0.020584 0.00788389 -0.000145168
0.0222862 0.00591354 -0.000368431
0.0238519 0.00418517 -0.000374756
0.0251893 0.00282234 -0.000273463
0.0262707 0.00182999 -0.000148105
0.027098 0.00115315 -4.40406e-05
0.0276987 0.000708687 2.16356e-05
0.0281184 0.000420652 5.07906e-05
0.0284053 0.000235692 5.49208e-05
0.0285997 0.000119792 4.6576e-05
0.0287306 5.04945e-05 3.46493e-05
0.0288182 1.19224e-05 2.37108e-05
0.0288763 -7.34516e-06 1.53122e-05
0.0289143 -1.52426e-05 9.47395e-06
0.0289389 -1.69665e-05 5.66689e-06
0.0289546 -1.57022e-05 3.29383e-06
0.0289646 -1.32689e-05 1.86469e-06
0.0289708 -1.06222e-05 1.02807e-06
0.0289747 -8.20696e-06 5.50505e-07
0.0289771 -6.18659e-06 2.84425e-07
0.0289786 -4.58166e-06 1.39905e-07
0.0289796 -3.3491e-06 6.36872e-08
0.0289802 -2.4244e-06 2.49807e-08
0.0289805 -1.74225e-06 6.36728e-09
0.0289808 -1.24525e-06 -1.80167e-09
0.0289809 -8.86576e-07 -4.75448e-09
0.028981 -6.29703e-07 -5.25274e-09
0.0289811 -4.46972e-07 -4.70729e-09
0.0289811 -3.17908e-07 -3.80725e-09
0.0289811 -2.27645e-07 -2.86993e-09
0.0289811 -1.6563e-07 -2.01409e-09
0.0289812 -1.24782e-07 -1.24449e-09
0.0289812 -1.0096e-07 -5.58379e-10
0.0289812 -9.22037e-08 -3.14223e-11
0.0289812 -9.74928e-08 -1.54425e-10
0.0289812 -1.14192e-07 -3.14255e-09
0.0289812 -1.39448e-07 -2.21757e-08
0.0289811 -1.6354e-07 -8.26319e-08
0.028981 -1.73043e-07 -1.26724e-07
0.0196 -2.79848e-06 -2.59092e-06
0.019601 -0.00581279 -0.00274447
0.0190697 -0.0129709 -0.00645432
0.0160018 -0.0159257 -0.00666282
0.0109987 -0.0148932 -0.0066824
0.00179709 -0.00612848 -0.00501246
7.31819e-05 -6.7219e-05 -0.00128053
3.32067e-05 -3.32067e-05 -3.97875e-08
-3.33645e-05 3.46602e-05 0.000238379
0.0040909 0.00297198 0.000502735
0.00943752 0.00699402 0.000429852
0.0123557 0.00732008 8.72492e-05
0.0155994 0.00559985 -0.000278176
0.0187512 0.00378542 -0.000412251
0.0214493 0.00234586 -0.000389007
0.0236349 0.00129685 -0.00030105
0.0253454 0.000610124 -0.000192722
0.0266263 0.000218805 -8.96065e-05
0.0275352 2.38177e-05 -1.24155e-05
0.0281491 -6.30926e-05 3.0175e-05
0.0285494 -9.64155e-05 4.37948e-05
0.0288044 -0.000103111 4.05434e-05
0.0289641 -9.61273e-05 3.09552e-05
0.0290626 -8.26641e-05 2.10954e-05
0.0291224 -6.72119e-05 1.33188e-05
0.0291581 -5.24481e-05 7.95054e-06
0.029179 -3.96983e-05 4.53742e-06
0.029191 -2.93774e-05 2.48805e-06
0.0291977 -2.13826e-05 1.31039e-06
0.0292014 -1.53774e-05 6.58493e-07
0.0292034 -1.09638e-05 3.10292e-07
0.0292044 -7.7694e-06 1.31403e-07
0.0292049 -5.48245e-06 4.38962e-08
0.0292051 -3.85751e-06 4.09348e-09
0.0292052 -2.70902e-06 -1.17626e-08
0.0292052 -1.90024e-06 -1.62202e-08
0.0292051 -1.33215e-06 -1.56942e-08
0.0292051 -9.33902e-07 -1.3332e-08
0.0292051 -6.55216e-07 -1.05871e-08
0.0292051 -4.60626e-07 -8.06258e-09
0.0292051 -3.25242e-07 -5.95387e-09
0.029205 -2.31713e-07 -4.28793e-09
0.029205 -1.681e-07 -3.03845e-09
0.029205 -1.26241e-07 -2.2172e-09
0.029205 -1.00343e-07 -2.00323e-09
0.029205 -8.55321e-08 -2.63639e-09
0.029205 -7.71363e-08 -4.72394e-09
0.0292049 -6.93514e-08 -9.94548e-09
0.0292049 -5.42845e-08 -3.19051e-08
0.0292048 -2.07586e-08 -8.99376e-08
0.0292047 2.32147e-09 -1.29708e-07
0.0196 -1.33818e-06 -3.5878e-06
0.0195999 -0.003635 -0.00311676
0.0188196 -0.00793177 -0.00648935
0.017581 -0.00787653 -0.00605574
0.0133137 -0.00403114 -0.0055675
0.00922412 0.0027596 -0.00528314
0.00619014 0.00321231 -0.00302802
7.3327e-05 -6.1111e-05 -0.000632982
2.77466e-05 -2.77466e-05 -1.27766e-07
-3.27666e-05 3.39624e-05 8.26943e-05
0.00294268 0.00224522 0.00034312
0.00741579 0.00358435 0.00027123
0.0127678 0.0018107 -0.000111247
0.0174267 0.000442231 -0.000275462
0.0210034 -0.00035392 -0.000303958
0.0236318 -0.000804683 -0.00028445
0.0255307 -0.00098455 -0.000234719
0.0268609 -0.000947892 -0.000159208
0.0277437 -0.000791442 -8.09508e-05
0.0282941 -0.000607718 -2.38286e-05
0.0286186 -0.000446401 5.68007e-06
0.0288012 -0.000320572 1.49334e-05
0.0288995 -0.00022706 1.40865e-05
0.02895 -0.000159053 1.01118e-05
0.0289743 -0.000110329 6.26077e-06
0.0289849 -7.59135e-05 3.4917e-06
0.0289885 -5.19272e-05 1.77581e-06
0.028989 -3.53949e-05 8.12901e-07
0.0289881 -2.40922e-05 3.15147e-07
0.0289868 -1.64034e-05 7.9014e-08
0.0289856 -1.11849e-05 -2.05127e-08
0.0289845 -7.64361e-06 -5.37242e-08
0.0289836 -5.23712e-06 -5.7544e-08
0.028983 -3.59803e-06 -5.01719e-08
0.0289825 -2.47851e-06 -3.99408e-08
0.0289821 -1.71165e-06 -3.02706e-08
0.0289818 -1.18492e-06 -2.2281e-08
0.0289817 -8.22299e-07 -1.61025e-08
0.0289815 -5.7224e-07 -1.14993e-08
0.0289814 -3.99695e-07 -8.14653e-09
0.0289813 -2.80757e-07 -5.74726e-09
0.0289813 -1.99036e-07 -4.09018e-09
0.0289813 -1.43134e-07 -3.06885e-09
0.0289812 -1.04812e-07 -2.68417e-09
0.0289812 -7.76754e-08 -3.08915e-09
0.0289812 -5.61325e-08 -4.31785e-09
0.0289811 -3.46313e-08 -6.7296e-09
0.0289811 -6.12509e-09 -1.16841e-08
0.0289811 4.24069e-08 -3.04858e-08
0.028981 1.25162e-07 -8.14717e-08
0.0289809 1.76453e-07 -1.17009e-07
0.018 -8.63594e-07 -3.56602e-06
0.0180009 -0.00196721 -0.00303905
0.0183391 -0.00374373 -0.00613615
0.018436 -0.00244917 -0.00529502
0.0174714 0.000867489 -0.00424775
0.0172282 0.00724045 -0.00396839
0.0179566 0.0126363 -0.00291647
0.0110532 0.00693508 -0.00141421
7.48583e-05 -4.73638e-05 -0.000412502
-2.58106e-05 -5.5005e-05 5.5367e-07
7.85483e-06 -0.000546255 0.000747606
0.00852968 -0.00255 0.00110626
0.0160588 -0.00425137 0.000521974
0.021155 -0.00418469 0.00025071
0.0243053 -0.0035493 0.000115181
0.0261666 -0.00292049 -1.25376e-05
0.0272284 -0.00235705 -0.000122218
0.0277995 -0.00181416 -0.000165369
0.0280703 -0.00131317 -0.000143154
0.0281661 -0.000902416 -9.47736e-05
0.0281717 -0.000599933 -5.21969e-05
0.0281395 -0.000392006 -2.54021e-05
0.0280977 -0.00025413 -1.15674e-05
0.0280591 -0.000164244 -5.26669e-06
0.028028 -0.000106132 -2.57753e-06
0.0280046 -6.87279e-05 -1.42111e-06
0.0279878 -4.46929e-05 -8.74757e-07
0.027976 -2.92328e-05 -5.74424e-07
0.0279678 -1.92524e-05 -3.85892e-07
0.0279622 -1.27726e-05 -2.59058e-07
0.0279583 -8.53541e-06 -1.72195e-07
0.0279557 -5.74289e-06 -1.13135e-07
0.0279539 -3.88786e-06 -7.35902e-08
0.0279526 -2.64631e-06 -4.75221e-08
0.0279518 -1.80968e-06 -3.05592e-08
0.0279512 -1.24256e-06 -1.96253e-08
0.0279508 -8.56194e-07 -1.26203e-08
0.0279505 -5.91929e-07 -8.14696e-09
0.0279503 -4.10635e-07 -5.29533e-09
0.0279502 -2.86007e-07 -3.48528e-09
0.0279501 -2.00179e-07 -2.36155e-09
0.02795 -1.40826e-07 -1.73245e-09
0.0279499 -9.92117e-08 -1.51571e-09
0.0279499 -6.88348e-08 -1.69163e-09
0.0279499 -4.44194e-08 -2.33814e-09
0.0279498 -2.10213e-08 -3.38392e-09
0.0279498 6.93588e-09 -5.04358e-09
0.0279498 4.69147e-08 -8.34219e-09
0.0279498 1.14812e-07 -1.98482e-08
0.0279498 2.24781e-07 -6.00135e-08
0.0279497 2.90962e-07 -9.09089e-08
0.0148 -4.84965e-07 -3.15759e-06
0.0148015 -0.00100382 -0.00281307
0.0162549 -0.00154082 -0.00540537
0.0178861 0.000147661 -0.00431614
0.0193143 0.0033761 -0.00314431
0.0211419 0.00747295 -0.00290442
0.0249608 0.0129682 -0.00239937
0.0282375 0.0195577 -0.00145795
0.0231825 0.0113716 -0.000302396
0.0236112 1.28525e-10 0.000635029
0.0267754 -0.00665371 0.00156602
0.0304238 -0.0130428 0.00211836
0.0314773 -0.0111132 0.00167457
0.0309604 -0.00792806 0.00123881
0.029855 -0.00533797 0.000811074
0.0286759 -0.00356271 0.000381641
0.0276358 -0.00237623 2.74366e-05
0.0268028 -0.00155667 -0.000164768
0.026178 -0.000987556 -0.000201267
0.0257307 -0.000609016 -0.000157046
0.0254213 -0.000370731 -9.85517e-05
0.0252128 -0.000226119 -5.43643e-05
0.0250752 -0.00013939 -2.77134e-05
0.0249857 -8.71132e-05 -1.34738e-05
0.0249282 -5.52109e-05 -6.37606e-06
0.0248913 -3.54633e-05 -2.97331e-06
0.0248677 -2.30648e-05 -1.37379e-06
0.0248525 -1.51723e-05 -6.27664e-07
0.0248426 -1.00815e-05 -2.80141e-07
0.0248362 -6.75717e-06 -1.1848e-07
0.0248319 -4.56225e-06 -4.39034e-08
0.0248291 -3.09898e-06 -1.03987e-08
0.0248272 -2.11548e-06 3.68658e-09
0.0248259 -1.44997e-06 8.6741e-09
0.0248251 -9.97146e-07 9.53691e-09
0.0248245 -6.8767e-07 8.67663e-09
0.0248241 -4.75429e-07 7.23707e-09
0.0248238 -3.2948e-07 5.73948e-09
0.0248236 -2.28896e-07 4.39641e-09
0.0248235 -1.59399e-07 3.26959e-09
0.0248234 -1.11135e-07 2.34875e-09
0.0248233 -7.71667e-08 1.58739e-09
0.0248232 -5.24315e-08 9.27381e-10
0.0248232 -3.2961e-08 3.14616e-10
0.0248232 -1.52502e-08 -3.34441e-10
0.0248232 4.30538e-09 -9.56551e-10
0.0248232 3.03004e-08 -1.59521e-09
0.0248232 6.85168e-08 -2.88311e-09
0.0248232 1.30384e-07 -7.44008e-09
0.0248232 2.24462e-07 -3.70074e-08
0.0248234 2.79627e-07 -6.29499e-08
0.01 -9.25842e-07 -2.85299e-06
0.0100008 -0.000617373 -0.00229274
0.0113576 -0.000658507 -0.00414181
0.0133141 0.000638436 -0.00295836
0.0158886 0.00261501 -0.001903