# vtk DataFile Version 2.0
Tobias Weinzierl: CPU, Manycore and Cluster Computing
ASCII

DATASET STRUCTURED_POINTS
DIMENSIONS  51 11 6

ORIGIN 0 0 0 

SPACING 0.1 0.1 0.1 

POINT_DATA 3366

VECTORS velocity float
0 0 0
-2.01418e-11 0 0
-1.42749e-08 0 0
-9.02844e-08 0 0
-1.91123e-07 0 0
-8.02873e-08 0 0
-4.22206e-08 0 0
-1.48237e-08 0 0
5.8129e-09 0 0
-1.49351e-09 0 0
-3.28195e-08 0 0
-6.70033e-08 0 0
-8.78008e-08 0 0
-9.32972e-08 0 0
-9.05438e-08 0 0
-8.67164e-08 0 0
-8.49424e-08 0 0
-8.52341e-08 0 0
-8.65939e-08 0 0
-8.81744e-08 0 0
-8.95362e-08 0 0
-9.05449e-08 0 0
-9.1221e-08 0 0
-9.16395e-08 0 0
-9.188e-08 0 0
-9.20072e-08 0 0
-9.20675e-08 0 0
-9.20914e-08 0 0
-9.20976e-08 0 0
-9.20969e-08 0 0
-9.20949e-08 0 0
-9.20942e-08 0 0
-9.20957e-08 0 0
-9.20996e-08 0 0
-9.21054e-08 0 0
-9.21128e-08 0 0
-9.21211e-08 0 0
-9.213e-08 0 0
-9.21391e-08 0 0
-9.21481e-08 0 0
-9.21568e-08 0 0
-9.2165e-08 0 0
-9.21727e-08 0 0
-9.21799e-08 0 0
-9.21864e-08 0 0
-9.21923e-08 0 0
-9.21977e-08 0 0
-9.22029e-08 0 0
-9.22091e-08 0 0
-9.22203e-08 0 0
0.00229503 0 0
0 4.16801e-07 0
-2.8417e-11 -2.43312e-09 0
-1.9013e-08 1.17684e-08 0
-1.53558e-07 3.89268e-08 0
-3.03389e-07 1.8472e-08 0
-1.26854e-07 3.58673e-08 0
-9.404e-08 9.28668e-08 0
-7.59621e-08 7.89131e-08 0
-3.67132e-08 5.07752e-08 0
-2.74563e-08 4.85311e-08 0
-6.26416e-08 5.17915e-08 0
-1.14503e-07 4.39035e-08 0
-1.51057e-07 2.55895e-08 0
-1.63287e-07 8.14871e-09 0
-1.62827e-07 -7.76279e-10 0
-1.62587e-07 -2.1165e-09 0
-1.66807e-07 -4.19528e-10 0
-1.73963e-07 1.21801e-09 0
-1.81528e-07 1.91623e-09 0
-1.87953e-07 1.87719e-09 0
-1.92741e-07 1.49584e-09 0
-1.96003e-07 1.04602e-09 0
-1.98074e-07 6.57942e-10 0
-1.99309e-07 3.70468e-10 0
-2.00001e-07 1.78441e-10 0
-2.0036e-07 6.11486e-11 0
-2.00529e-07 -3.81192e-12 0
-2.00595e-07 -3.50855e-11 0
-2.00611e-07 -4.63086e-11 0
-2.00607e-07 -4.66217e-11 0
-2.00599e-07 -4.17268e-11 0
-2.00593e-07 -3.4938e-11 0
-2.00592e-07 -2.80254e-11 0
-2.00596e-07 -2.18218e-11 0
-2.00605e-07 -1.66281e-11 0
-2.00618e-07 -1.24661e-11 0
-2.00633e-07 -9.22831e-12 0
-2.0065e-07 -6.76165e-12 0
-2.00667e-07 -4.90927e-12 0
-2.00684e-07 -3.52966e-12 0
-2.00701e-07 -2.50227e-12 0
-2.00718e-07 -1.72589e-12 0
-2.00733e-07 -1.11236e-12 0
-2.00747e-07 -5.77115e-13 0
-2.0076e-07 -2.0766e-14 0
-2.00772e-07 7.09295e-13 0
-2.00783e-07 1.87779e-12 0
-2.00793e-07 4.10325e-12 0
-2.00806e-07 9.34302e-12 0
-2.00828e-07 2.13646e-11 0
0.00639695 -1.2651e-07 0
0 -1.05749e-08 0
-1.1117e-11 -1.7336e-09 0
2.20075e-08 -2.28455e-08 0
-5.86852e-08 -9.1861e-08 0
-1.1899e-07 -1.6776e-07 0
1.50956e-08 -6.57447e-08 0
-6.37005e-08 1.00419e-07 0
-1.12955e-07 1.05002e-07 0
-9.98111e-08 5.20948e-08 0
-6.66833e-08 2.13321e-08 0
-7.48615e-08 6.66821e-09 0
-1.09348e-07 9.13479e-09 0
-1.38698e-07 2.32594e-08 0
-1.46923e-07 3.51716e-08 0
-1.43007e-07 3.83768e-08 0
-1.40767e-07 3.50568e-08 0
-1.44775e-07 2.88833e-08 0
-1.52811e-07 2.21401e-08 0
-1.6149e-07 1.59844e-08 0
-1.68774e-07 1.09362e-08 0
-1.74051e-07 7.11353e-09 0
-1.77505e-07 4.3978e-09 0
-1.7959e-07 2.57031e-09 0
-1.80755e-07 1.40008e-09 0
-1.81353e-07 6.87071e-10 0
-1.81623e-07 2.75994e-10 0
-1.81719e-07 5.49442e-11 0
-1.81732e-07 -5.21907e-11 0
-1.81711e-07 -9.46607e-11 0
-1.81682e-07 -1.02886e-10 0
-1.81657e-07 -9.47875e-11 0
-1.8164e-07 -8.03644e-11 0
-1.81633e-07 -6.48208e-11 0
-1.81633e-07 -5.05884e-11 0
-1.81639e-07 -3.85791e-11 0
-1.8165e-07 -2.89286e-11 0
-1.81664e-07 -2.14177e-11 0
-1.81681e-07 -1.56986e-11 0
-1.81698e-07 -1.1408e-11 0
-1.81715e-07 -8.2165e-12 0
-1.81731e-07 -5.84312e-12 0
-1.81748e-07 -4.05241e-12 0
-1.81763e-07 -2.63886e-12 0
-1.81777e-07 -1.40109e-12 0
-1.81789e-07 -1.04135e-13 0
-1.81801e-07 1.60897e-12 0
-1.81811e-07 4.42388e-12 0
-1.81821e-07 9.49421e-12 0
-1.8183e-07 1.80058e-11 0
-1.81846e-07 3.13527e-11 0
0.00876737 -2.20605e-07 0
0 -6.33587e-07 0
-1.15309e-11 -1.9642e-08 0
5.54934e-08 -8.22665e-08 0
1.25394e-09 -1.89667e-07 0
-7.29933e-08 -2.59896e-07 0
6.16666e-08 -1.32928e-07 0
-1.18708e-08 -8.92916e-11 0
-5.18203e-08 -2.25474e-08 0
-1.11109e-07 -7.21398e-08 0
-1.10338e-07 -9.97597e-08 0
-1.24498e-07 -8.39204e-08 0
-1.59828e-07 -3.57249e-08 0
-1.84479e-07 2.09446e-08 0
-1.83421e-07 5.39028e-08 0
-1.64079e-07 5.99779e-08 0
-1.42822e-07 5.26449e-08 0
-1.291e-07 4.17056e-08 0
-1.23497e-07 3.09524e-08 0
-1.22722e-07 2.16431e-08 0
-1.23709e-07 1.42559e-08 0
-1.2483e-07 8.83354e-09 0
-1.25553e-07 5.1204e-09 0
-1.25859e-07 2.73169e-09 0
-1.25888e-07 1.28472e-09 0
-1.25776e-07 4.63278e-10 0
-1.25617e-07 3.34982e-11 0
-1.25461e-07 -1.6466e-10 0
-1.25331e-07 -2.34184e-10 0
-1.25234e-07 -2.37839e-10 0
-1.25167e-07 -2.11863e-10 0
-1.25125e-07 -1.75932e-10 0
-1.25102e-07 -1.39895e-10 0
-1.25094e-07 -1.08054e-10 0
-1.25096e-07 -8.17689e-11 0
-1.25106e-07 -6.09606e-11 0
-1.25119e-07 -4.49423e-11 0
-1.25136e-07 -3.28503e-11 0
-1.25154e-07 -2.38483e-11 0
-1.25173e-07 -1.72107e-11 0
-1.25191e-07 -1.23418e-11 0
-1.25209e-07 -8.76626e-12 0
-1.25225e-07 -6.10523e-12 0
-1.25241e-07 -4.04684e-12 0
-1.25255e-07 -2.30545e-12 0
-1.25267e-07 -5.65749e-13 0
-1.25278e-07 1.53483e-12 0
-1.25287e-07 4.34554e-12 0
-1.25293e-07 8.28637e-12 0
-1.25296e-07 1.41876e-11 0
-1.25304e-07 2.34159e-11 0
0.00946779 -1.97457e-07 0
0 -1.21474e-06 0
-6.23334e-11 -4.53651e-08 0
2.76053e-08 -1.25053e-07 0
-4.18765e-08 -1.65512e-07 0
-1.43451e-07 -1.31816e-07 0
-3.59404e-11 -4.60461e-08 0
-1.74099e-11 -1.17835e-10 0
5.51101e-11 -9.25783e-11 0
-5.38274e-08 -6.01045e-08 0
-1.48492e-07 -1.32374e-07 0
-1.79386e-07 -1.14843e-07 0
-2.02822e-07 -4.38518e-08 0
-2.21888e-07 2.45459e-08 0
-2.21824e-07 5.58944e-08 0
-2.0051e-07 5.43119e-08 0
-1.68958e-07 4.21108e-08 0
-1.41065e-07 3.06876e-08 0
-1.22683e-07 2.16189e-08 0
-1.12394e-07 1.43145e-08 0
-1.06866e-07 8.63066e-09 0
-1.03692e-07 4.57384e-09 0
-1.01658e-07 1.95679e-09 0
-1.00249e-07 4.39475e-10 0
-9.92487e-08 -3.33875e-10 0
-9.85465e-08 -6.52969e-10 0
-9.8066e-08 -7.21188e-10 0
-9.77478e-08 -6.67092e-10 0
-9.75448e-08 -5.65044e-10 0
-9.74215e-08 -4.54272e-10 0
-9.73518e-08 -3.53048e-10 0
-9.73174e-08 -2.68081e-10 0
-9.73058e-08 -2.00235e-10 0
-9.73087e-08 -1.47778e-10 0
-9.73206e-08 -1.08098e-10 0
-9.73377e-08 -7.85461e-11 0
-9.73577e-08 -5.67824e-11 0
-9.7379e-08 -4.08869e-11 0
-9.74006e-08 -2.9348e-11 0
-9.74217e-08 -2.10069e-11 0
-9.7442e-08 -1.499e-11 0
-9.7461e-08 -1.06443e-11 0
-9.74786e-08 -7.47954e-12 0
-9.74945e-08 -5.12177e-12 0
-9.75088e-08 -3.28712e-12 0
-9.75212e-08 -1.77395e-12 0
-9.75314e-08 -4.25601e-13 0
-9.75391e-08 9.86036e-13 0
-9.75436e-08 2.9173e-12 0
-9.75451e-08 6.12263e-12 0
-9.75508e-08 1.13789e-11 0
0.00963081 -1.08328e-07 0
0 -1.08441e-06 0
-9.1834e-11 -4.63276e-08 0
-3.08383e-09 -1.00088e-07 0
-7.34961e-08 -1.32485e-07 0
-1.80781e-07 -1.5342e-07 0
-9.04695e-08 -7.47124e-08 0
-2.96178e-11 1.67696e-11 0
3.79027e-11 -3.79027e-11 0
2.85489e-11 -8.2075e-11 0
-7.8879e-08 -6.47973e-08 0
-1.72527e-07 -1.15525e-07 0
-1.76238e-07 -4.79416e-08 0
-1.96852e-07 3.74686e-08 0
-2.22335e-07 6.84511e-08 0
-2.25021e-07 5.41321e-08 0
-1.97995e-07 3.01581e-08 0
-1.61528e-07 1.40726e-08 0
-1.32674e-07 5.58897e-09 0
-1.1474e-07 9.69088e-10 0
-1.04587e-07 -1.65384e-09 0
-9.88488e-08 -2.93543e-09 0
-9.54876e-08 -3.28305e-09 0
-9.34593e-08 -3.07482e-09 0
-9.22258e-08 -2.61227e-09 0
-9.14848e-08 -2.08897e-09 0
-9.10519e-08 -1.60571e-09 0
-9.08103e-08 -1.20207e-09 0
-9.06852e-08 -8.84057e-10 0
-9.06297e-08 -6.42492e-10 0
-9.06146e-08 -4.63262e-10 0
-9.06223e-08 -3.32305e-10 0
-9.06423e-08 -2.37569e-10 0
-9.06685e-08 -1.69477e-10 0
-9.06973e-08 -1.20736e-10 0
-9.07266e-08 -8.5939e-11 0
-9.07554e-08 -6.11377e-11 0
-9.0783e-08 -4.34804e-11 0
-9.08091e-08 -3.09189e-11 0
-9.08334e-08 -2.19877e-11 0
-9.08559e-08 -1.56403e-11 0
-9.08766e-08 -1.11311e-11 0
-9.08953e-08 -7.93369e-12 0
-9.0912e-08 -5.68436e-12 0
-9.09268e-08 -4.13451e-12 0
-9.09395e-08 -3.10387e-12 0
-9.095e-08 -2.45384e-12 0
-9.09581e-08 -2.09329e-12 0
-9.09632e-08 -1.89903e-12 0
-9.09649e-08 -1.46554e-12 0
-9.09704e-08 -2.83517e-13 0
0.00965692 1.93298e-09 0
0 -7.60255e-07 0
-7.59346e-11 -3.79815e-08 0
-6.48567e-09 -9.15067e-08 0
-7.48459e-08 -1.04627e-07 0
-2.02571e-07 -8.95802e-08 0
-2.05137e-07 -4.98287e-08 0
-6.13575e-08 -1.13475e-08 0
-2.05678e-11 1.34434e-11 0
1.47018e-11 -1.47018e-11 0
-1.72963e-11 -7.43065e-11 0
-7.2604e-08 -5.33995e-08 0
-8.32854e-08 -3.67474e-08 0
-1.07213e-07 7.45869e-08 0
-1.68763e-07 1.06424e-07 0
-2.17888e-07 6.88028e-08 0
-2.14166e-07 2.17727e-08 0
-1.77907e-07 -4.51302e-09 0
-1.42174e-07 -1.34536e-08 0
-1.192e-07 -1.45863e-08 0
-1.07057e-07 -1.30022e-08 0
-1.01198e-07 -1.06099e-08 0
-9.84944e-08 -8.17059e-09 0
-9.72999e-08 -6.03394e-09 0
-9.6819e-08 -4.32657e-09 0
-9.66719e-08 -3.04273e-09 0
-9.66753e-08 -2.11526e-09 0
-9.67409e-08 -1.46201e-09 0
-9.68267e-08 -1.00869e-09 0
-9.69139e-08 -6.96501e-10 0
-9.69946e-08 -4.82065e-10 0
-9.70666e-08 -3.34689e-10 0
-9.71298e-08 -2.3315e-10 0
-9.71851e-08 -1.62946e-10 0
-9.72337e-08 -1.14221e-10 0
-9.72765e-08 -8.02767e-11 0
-9.73145e-08 -5.65486e-11 0
-9.73485e-08 -3.99143e-11 0
-9.7379e-08 -2.82276e-11 0
-9.74065e-08 -2.00068e-11 0
-9.74312e-08 -1.42261e-11 0
-9.74533e-08 -1.01762e-11 0
-9.74732e-08 -7.36818e-12 0
-9.74907e-08 -5.4691e-12 0
-9.75062e-08 -4.262e-12 0
-9.75196e-08 -3.62852e-12 0
-9.75308e-08 -3.55041e-12 0
-9.75397e-08 -4.15373e-12 0
-9.75457e-08 -5.72155e-12 0
-9.75484e-08 -8.39104e-12 0
-9.75544e-08 -1.18856e-11 0
0.00963079 1.10929e-07 0
0 -5.35877e-07 0
-6.6283e-11 -3.16051e-08 0
-1.28088e-08 -7.45791e-08 0
-8.81036e-08 -8.04923e-08 0
-1.99424e-07 -5.04435e-08 0
-2.25441e-07 -1.41682e-08 0
-1.49089e-07 -1.74378e-08 0
-6.94354e-08 -1.62022e-08 0
-4.58614e-11 -1.87574e-11 0
-1.76171e-11 -2.00367e-11 0
-1.88817e-11 -2.97727e-08 0
-5.40659e-08 7.46264e-09 0
-4.38816e-08 1.20371e-07 0
-6.44422e-08 1.47962e-07 0
-1.32042e-07 8.71463e-08 0
-1.75059e-07 1.75732e-08 0
-1.70665e-07 -1.83043e-08 0
-1.48542e-07 -2.71639e-08 0
-1.31411e-07 -2.46514e-08 0
-1.23137e-07 -1.92137e-08 0
-1.20527e-07 -1.39175e-08 0
-1.20458e-07 -9.65211e-09 0
-1.21222e-07 -6.51914e-09 0
-1.22099e-07 -4.34102e-09 0
-1.22849e-07 -2.87571e-09 0
-1.23428e-07 -1.907e-09 0
-1.23857e-07 -1.27083e-09 0
-1.24171e-07 -8.52805e-10 0
-1.24401e-07 -5.76736e-10 0
-1.24572e-07 -3.93047e-10 0
-1.24701e-07 -2.69785e-10 0
-1.24801e-07 -1.86361e-10 0
-1.2488e-07 -1.29443e-10 0
-1.24944e-07 -9.03269e-11 0
-1.24998e-07 -6.32759e-11 0
-1.25043e-07 -4.44703e-11 0
-1.25082e-07 -3.13426e-11 0
-1.25115e-07 -2.21515e-11 0
-1.25145e-07 -1.57079e-11 0
-1.25171e-07 -1.11954e-11 0
-1.25195e-07 -8.05313e-12 0
-1.25215e-07 -5.89978e-12 0
-1.25234e-07 -4.48712e-12 0
-1.2525e-07 -3.67655e-12 0
-1.25264e-07 -3.43683e-12 0
-1.25276e-07 -3.85955e-12 0
-1.25285e-07 -5.23157e-12 0
-1.25293e-07 -8.25009e-12 0
-1.25297e-07 -1.40559e-11 0
-1.25306e-07 -2.33996e-11 0
0.00946773 1.95027e-07 0
0 -4.67773e-07 0
-5.21018e-11 -2.19863e-08 0
-2.59286e-08 -5.53121e-08 0
-1.1466e-07 -6.16387e-08 0
-2.16602e-07 -3.62796e-08 0
-2.42539e-07 3.39865e-09 0
-1.87646e-07 3.05282e-09 0
-1.46016e-07 -5.87869e-08 0
-7.74795e-08 -5.04789e-08 0
-6.86018e-08 -8.11271e-12 0
-1.36653e-07 2.68872e-08 0
-2.30586e-07 6.63981e-08 0
-1.54498e-07 9.37683e-08 0
-4.46261e-08 9.86052e-08 0
-6.02435e-08 6.38017e-08 0
-1.35034e-07 1.946e-08 0
-1.73299e-07 -8.2841e-09 0
-1.76128e-07 -1.74041e-08 0
-1.71479e-07 -1.63831e-08 0
-1.69952e-07 -1.24079e-08 0
-1.7129e-07 -8.60625e-09 0
-1.73577e-07 -5.75057e-09 0
-1.75736e-07 -3.79148e-09 0
-1.7743e-07 -2.49829e-09 0
-1.78655e-07 -1.65614e-09 0
-1.79512e-07 -1.10764e-09 0
-1.80106e-07 -7.47798e-10 0
-1.80518e-07 -5.09319e-10 0
-1.80809e-07 -3.4959e-10 0
-1.81018e-07 -2.41548e-10 0
-1.81172e-07 -1.67829e-10 0
-1.81288e-07 -1.17151e-10 0
-1.81378e-07 -8.20913e-11 0
-1.81449e-07 -5.77063e-11 0
-1.81507e-07 -4.06711e-11 0
-1.81555e-07 -2.87285e-11 0
-1.81597e-07 -2.03344e-11 0
-1.81632e-07 -1.44254e-11 0
-1.81663e-07 -1.02659e-11 0
-1.8169e-07 -7.34588e-12 0
-1.81714e-07 -5.31435e-12 0
-1.81735e-07 -3.93576e-12 0
-1.81754e-07 -3.06536e-12 0
-1.8177e-07 -2.63983e-12 0
-1.81784e-07 -2.69039e-12 0
-1.81797e-07 -3.37846e-12 0
-1.81808e-07 -5.0649e-12 0
-1.81817e-07 -8.65229e-12 0
-1.81825e-07 -1.62995e-11 0
-1.8184e-07 -3.06697e-11 0
0.00876731 2.08694e-07 0
0 -4.91291e-07 0
-4.03132e-11 -1.00322e-08 0
-3.85597e-08 -2.75163e-08 0
-1.29136e-07 -3.10084e-08 0
-2.13561e-07 -1.85543e-08 0
-2.42847e-07 -9.30357e-09 0
-2.06568e-07 -1.56459e-08 0
-1.77697e-07 -5.00011e-08 0
-1.98874e-07 -4.81985e-08 0
-1.79364e-07 2.96883e-08 0
-1.99258e-07 1.07241e-07 0
-2.00201e-07 1.03462e-07 0
-1.26229e-07 2.48175e-08 0
-5.0484e-08 -4.31917e-08 0
-8.04493e-08 -5.88961e-08 0
-1.58684e-07 -3.54101e-08 0
-2.00314e-07 -7.11718e-09 0
-2.04727e-07 6.23292e-09 0
-1.99004e-07 7.35313e-09 0
-1.95209e-07 4.52218e-09 0
-1.94373e-07 1.94475e-09 0
-1.9506e-07 4.71091e-10 0
-1.96185e-07 -1.74816e-10 0
-1.97254e-07 -3.76006e-10 0
-1.98117e-07 -3.82427e-10 0
-1.98767e-07 -3.21735e-10 0
-1.99242e-07 -2.49413e-10 0
-1.99587e-07 -1.85573e-10 0
-1.99839e-07 -1.35103e-10 0
-2.00025e-07 -9.72158e-11 0
-2.00165e-07 -6.95201e-11 0
-2.00273e-07 -4.95549e-11 0
-2.00357e-07 -3.52674e-11 0
-2.00425e-07 -2.50813e-11 0
-2.00481e-07 -1.78329e-11 0
-2.00528e-07 -1.26802e-11 0
-2.00569e-07 -9.02e-12 0
-2.00603e-07 -6.42279e-12 0
-2.00634e-07 -4.58398e-12 0
-2.00661e-07 -3.28899e-12 0
-2.00685e-07 -2.38917e-12 0
-2.00706e-07 -1.78634e-12 0
-2.00724e-07 -1.42394e-12 0
-2.00741e-07 -1.28834e-12 0
-2.00755e-07 -1.4213e-12 0
-2.00768e-07 -1.95418e-12 0
-2.0078e-07 -3.17252e-12 0
-2.00791e-07 -5.71053e-12 0
-2.00803e-07 -1.10729e-11 0
-2.00825e-07 -2.18909e-11 0
0.00639697 1.10811e-07 0
0 0 0
-1.67495e-11 0 0
-2.08956e-08 0 0
-6.26883e-08 0 0
-9.74115e-08 0 0
-1.11041e-07 0 0
-1.06656e-07 0 0
-1.01117e-07 0 0
-1.21423e-07 0 0
-1.10767e-07 0 0
-6.26193e-08 0 0
-1.17915e-08 0 0
7.60004e-09 0 0
-8.53567e-09 0 0
-5.22255e-08 0 0
-9.15053e-08 0 0
-1.06426e-07 0 0
-1.04374e-07 0 0
-9.8249e-08 0 0
-9.37708e-08 0 0
-9.15538e-08 0 0
-9.07825e-08 0 0
-9.0704e-08 0 0
-9.08842e-08 0 0
-9.11219e-08 0 0
-9.13401e-08 0 0
-9.1518e-08 0 0
-9.16561e-08 0 0
-9.17616e-08 0 0
-9.18421e-08 0 0
-9.19043e-08 0 0
-9.19531e-08 0 0
-9.19922e-08 0 0
-9.20241e-08 0 0
-9.20506e-08 0 0
-9.20732e-08 0 0
-9.20926e-08 0 0
-9.21095e-08 0 0
-9.21244e-08 0 0
-9.21376e-08 0 0
-9.21493e-08 0 0
-9.21597e-08 0 0
-9.2169e-08 0 0
-9.21772e-08 0 0
-9.21845e-08 0 0
-9.2191e-08 0 0
-9.2197e-08 0 0
-9.22029e-08 0 0
-9.221e-08 0 0
-9.22223e-08 0 0
0.00229506 0 0
0 0 5.4981e-07
-1.32245e-11 0 1.66405e-08
-9.3104e-09 0 7.84282e-08
-1.54586e-07 0 1.37851e-07
-5.08085e-07 0 -2.85453e-08
-2.05671e-07 0 -1.84849e-07
-7.2128e-08 0 -1.58407e-07
2.53012e-08 0 -1.27018e-07
9.298e-08 0 -6.41734e-08
1.03918e-07 0 -9.96423e-09
5.7959e-08 0 1.36545e-08
-1.50068e-08 0 1.10152e-08
-8.06402e-08 0 6.42461e-10
-1.22848e-07 0 -5.46696e-09
-1.4478e-07 0 -5.86452e-09
-1.57101e-07 0 -3.54338e-09
-1.67058e-07 0 -1.11985e-09
-1.76576e-07 0 3.77637e-10
-1.85128e-07 0 9.69081e-10
-1.92019e-07 0 1.01111e-09
-1.97072e-07 0 8.21958e-10
-2.00507e-07 0 5.87469e-10
-2.027e-07 0 3.87014e-10
-2.04023e-07 0 2.40579e-10
-2.04774e-07 0 1.42887e-10
-2.05174e-07 0 8.15689e-11
-2.05367e-07 0 4.48007e-11
-2.05448e-07 0 2.35753e-11
-2.05473e-07 0 1.17462e-11
-2.05473e-07 0 5.39168e-12
-2.05467e-07 0 2.12463e-12
-2.05461e-07 0 5.42892e-13
-2.05459e-07 0 -1.51972e-13
-2.05463e-07 0 -4.01306e-13
-2.05471e-07 0 -4.41451e-13
-2.05483e-07 0 -3.94224e-13
-2.05498e-07 0 -3.19203e-13
-2.05514e-07 0 -2.43121e-13
-2.05531e-07 0 -1.75924e-13
-2.05548e-07 0 -1.19249e-13
-2.05565e-07 0 -7.06828e-14
-2.05581e-07 0 -2.54986e-14
-2.05596e-07 0 2.31084e-14
-2.0561e-07 0 8.36622e-14
-2.05623e-07 0 1.68649e-13
-2.05635e-07 0 3.02488e-13
-2.05646e-07 0 5.17702e-13
-2.05657e-07 0 1.03495e-12
-2.0567e-07 0 3.348e-12
-2.05693e-07 0 1.13377e-11
0.006375 0 -5.59883e-08
0.0036 -2.21088e-07 -1.9077e-09
0.00359982 -0.0012754 6.97935e-06
0.00681147 -0.00392815 -0.000175085
0.0138547 -0.00697367 -0.0016126
0.0247117 -0.0142023 -0.00504727
0.0461526 -0.0116904 -0.00484605
0.0492808 -0.00120553 -0.00153715
0.048853 0.00305937 3.81192e-05
0.0436463 0.00528449 0.000752275
0.0379587 0.00535629 0.00060816
0.032899 0.00451366 0.000167105
0.0287049 0.00339686 -0.000215451
0.0254242 0.00233898 -0.000385874
0.0230137 0.00151568 -0.000359609
0.0213341 0.000961591 -0.000243921
0.0202041 0.000615389 -0.000131364
0.019463 0.000398402 -5.73674e-05
0.0189884 0.000257467 -1.89735e-05
0.018692 0.000163936 -2.64583e-06
0.0185115 0.000102097 2.70976e-06
0.0184045 6.19914e-05 3.51959e-06
0.0183428 3.66245e-05 2.85184e-06
0.0183083 2.09965e-05 1.9482e-06
0.0182898 1.16209e-05 1.20879e-06
0.0182803 6.14917e-06 6.99938e-07
0.0182758 3.05113e-06 3.81283e-07
0.018274 1.35913e-06 1.94288e-07
0.0182735 4.77492e-07 9.03364e-08
0.0182736 4.88344e-08 3.56084e-08
0.018274 -1.35846e-07 8.65163e-09
0.0182744 -1.95491e-07 -3.34669e-09
0.0182747 -1.95722e-07 -7.7e-09
0.018275 -1.71373e-07 -8.414e-09
0.0182753 -1.39983e-07 -7.58926e-09
0.0182755 -1.09674e-07 -6.26956e-09
0.0182756 -8.36501e-08 -4.93423e-09
0.0182757 -6.26848e-08 -3.77411e-09
0.0182758 -4.64659e-08 -2.84141e-09
0.0182759 -3.42837e-08 -2.12879e-09
0.0182759 -2.5369e-08 -1.61041e-09
0.0182759 -1.90447e-08 -1.2637e-09
0.018276 -1.47877e-08 -1.08158e-09
0.018276 -1.22588e-08 -1.08196e-09
0.018276 -1.13378e-08 -1.3155e-09
0.018276 -1.21632e-08 -1.82311e-09
0.018276 -1.53336e-08 -2.60611e-09
0.0182761 -2.21658e-08 -3.17114e-09
0.0182761 -3.48221e-08 -3.32488e-10
0.0182762 -7.83949e-08 -6.9904e-09
0.0182764 -2.40201e-07 -9.68672e-08
0.0182768 -3.66585e-07 -1.77167e-07
0.01 -1.19677e-07 -1.36381e-06
0.0100009 -0.00304134 -0.000491834
0.0149534 -0.0100493 -0.00089717
0.0240569 -0.0180676 -0.00215074
0.0376117 -0.0310619 -0.00393267
0.0574656 -0.0224653 -0.00103002
0.0551826 -0.00183229 0.00244838
0.0550322 0.00569701 0.0026651
0.0494418 0.0106099 0.0024414
0.0439961 0.01061 0.00158667
0.0394582 0.00939701 0.000557605
0.0355597 0.00778979 -0.000215533
0.0323665 0.00601893 -0.000575945
0.030004 0.00433357 -0.000576325
0.0283711 0.00295085 -0.000402631
0.0272885 0.00193603 -0.00022134
0.0265928 0.0012376 -9.89789e-05
0.0261594 0.000773856 -3.41708e-05
0.0258985 0.000473503 -5.86967e-06
0.025747 0.000283283 3.91312e-06
0.0256627 0.000165458 5.80532e-06
0.0256178 9.40843e-05 4.97576e-06
0.0255955 5.18249e-05 3.57837e-06
0.0255853 2.74043e-05 2.35424e-06
0.0255815 1.36725e-05 1.46649e-06
0.0255808 6.201e-06 8.79734e-07
0.0255814 2.30743e-06 5.13017e-07
0.0255825 4.0234e-07 2.92375e-07
0.0255836 -4.3482e-07 1.6331e-07
0.0255846 -7.24169e-07 8.94936e-08
0.0255854 -7.51294e-07 4.80789e-08
0.025586 -6.67479e-07 2.5248e-08
0.0255865 -5.49009e-07 1.28783e-08
0.0255869 -4.31509e-07 6.2997e-09
0.0255871 -3.29383e-07 2.87616e-09
0.0255873 -2.46531e-07 1.14349e-09
0.0255875 -1.82096e-07 3.00352e-10
0.0255876 -1.33411e-07 -8.58329e-11
0.0255876 -9.74427e-08 -2.46272e-10
0.0255877 -7.1431e-08 -3.05681e-10
0.0255877 -5.31325e-08 -3.37099e-10
0.0255877 -4.08921e-08 -3.92764e-10
0.0255878 -3.36628e-08 -5.19546e-10
0.0255878 -3.10941e-08 -7.74917e-10
0.0255878 -3.3757e-08 -1.13891e-09
0.0255878 -4.35822e-08 -1.25181e-09
0.0255879 -6.75569e-08 -5.8883e-10
0.0255879 -1.25687e-07 3.05154e-09
0.0255881 -2.46297e-07 -1.3344e-08
0.0255883 -4.69771e-07 -1.60816e-07
0.0255885 -6.13885e-07 -2.88871e-07
0.0148 -9.76006e-07 -1.67809e-06
0.0148024 -0.00528906 -0.00104651
0.0201011 -0.0161757 -0.00245835
0.0265813 -0.0278562 -0.00436985
0.0310059 -0.0440432 -0.00543489
0.0295138 -0.0270928 -0.000943884
0.0263104 -1.16255e-05 0.00278862
0.0261484 0.0073544 0.00280517
0.0303659 0.0152208 0.00269187
0.0307777 0.0149042 0.00177219
0.0297196 0.0131168 0.000758581
0.0286138 0.0109637 -3.38274e-05
0.0278041 0.00840219 -0.00040456
0.0274855 0.00589545 -0.000436001
0.0274447 0.00390535 -0.000299383
0.0274966 0.00250259 -0.000148611
0.0275586 0.0015674 -4.73267e-05
0.027611 0.000959845 2.66356e-06
0.0276545 0.000572942 1.97954e-05
0.0276913 0.000332218 2.11207e-05
0.027722 0.000186389 1.6895e-05
0.0277467 0.000100535 1.18799e-05
0.0277657 5.14959e-05 7.75515e-06
0.0277799 2.44101e-05 4.82181e-06
0.0277901 1.00441e-05 2.89538e-06
0.0277973 2.83082e-06 1.69283e-06
0.0278023 -4.93585e-07 9.68369e-07
0.0278057 -1.79044e-06 5.43446e-07
0.0278081 -2.09062e-06 2.99501e-07
0.0278097 -1.94599e-06 1.61996e-07
0.0278107 -1.63926e-06 8.5773e-08
0.0278115 -1.30626e-06 4.42137e-08
0.027812 -1.00537e-06 2.1955e-08
0.0278123 -7.56042e-07 1.02825e-08
0.0278126 -5.59483e-07 4.32691e-09
0.0278127 -4.09407e-07 1.4053e-09
0.0278128 -2.97344e-07 5.98136e-11
0.0278129 -2.15069e-07 -4.90055e-10
0.027813 -1.55547e-07 -6.55724e-10
0.027813 -1.13181e-07 -6.51636e-10
0.027813 -8.37598e-08 -5.9153e-10
0.0278131 -6.43299e-08 -5.41987e-10
0.0278131 -5.31027e-08 -5.42959e-10
0.0278131 -4.94786e-08 -5.97245e-10
0.0278131 -5.46786e-08 -6.55006e-10
0.0278131 -7.34107e-08 -6.79724e-10
0.0278132 -1.13323e-07 -1.45444e-09
0.0278132 -1.82984e-07 -4.39475e-09
0.0278132 -2.91686e-07 -3.89113e-08
0.0278133 -4.47897e-07 -2.15124e-07
0.0278132 -5.38811e-07 -3.59034e-07
0.018 -1.99198e-06 -1.75249e-06
0.0180027 -0.00672522 -0.0018744
0.020434 -0.0180287 -0.00493613
0.0202297 -0.0236059 -0.00649443
0.015878 -0.0257937 -0.00729742
-1.43327e-06 -0.0135005 -0.00386587
0.000100277 3.01064e-05 8.07091e-07
-3.65226e-05 3.82556e-05 0.000523935
0.00704448 0.00469012 0.00110546
0.0146938 0.0107228 0.00100363
0.0181341 0.0116114 0.000572011
0.0197621 0.0100607 5.51722e-05
0.0214607 0.0075487 -0.000275081
0.0232401 0.00500058 -0.00032911
0.0248083 0.00311779 -0.000229626
0.0260126 0.00189811 -0.000103524
0.0268493 0.00113994 -1.36198e-05
0.0273977 0.000669093 2.94421e-05
0.0277481 0.000377856 3.99035e-05
0.0279702 0.000202027 3.49139e-05
0.0281103 0.000100067 2.56032e-05
0.0281981 4.38436e-05 1.70181e-05
0.0282526 1.46805e-05 1.06237e-05
0.0282861 7.63262e-07 6.34749e-06
0.0283066 -5.00368e-06 3.66932e-06
0.028319 -6.67966e-06 2.06478e-06
0.0283265 -6.48026e-06 1.13427e-06
0.028331 -5.55462e-06 6.08373e-07
0.0283337 -4.46112e-06 3.17674e-07
0.0283353 -3.44478e-06 1.60331e-07
0.0283363 -2.5926e-06 7.70494e-08
0.0283369 -1.91724e-06 3.41296e-08
0.0283373 -1.40031e-06 1.27879e-08
0.0283375 -1.0137e-06 2.73461e-09
0.0283376 -7.29167e-07 -1.5733e-09
0.0283377 -5.22217e-07 -3.06801e-09
0.0283378 -3.73066e-07 -3.2671e-09
0.0283378 -2.66421e-07 -2.93371e-09
0.0283379 -1.90803e-07 -2.43676e-09
0.0283379 -1.37806e-07 -1.94602e-09
0.0283379 -1.01436e-07 -1.53728e-09
0.0283379 -7.76035e-08 -1.24717e-09
0.0283379 -6.38385e-08 -1.11323e-09
0.0283379 -5.92712e-08 -1.22892e-09
0.0283379 -6.43303e-08 -1.81243e-09
0.0283379 -7.98308e-08 -3.55285e-09
0.0283379 -1.06211e-07 -8.15025e-09
0.0283379 -1.42782e-07 -1.7025e-08
0.0283378 -1.91589e-07 -6.15657e-08
0.0283378 -2.57209e-07 -2.45575e-07
0.0283376 -2.94681e-07 -3.90661e-07
0.0196 -2.69246e-06 -2.67532e-06
0.0196008 -0.005474 -0.00272327
0.0191067 -0.0123039 -0.00645331
0.0161425 -0.0150312 -0.00684709
0.0112316 -0.0138455 -0.00670339
0.00205412 -0.00564688 -0.00466492
7.55104e-05 -6.94386e-05 -0.001076
3.2916e-05 -3.2916e-05 -4.26376e-08
-3.56667e-05 3.73785e-05 0.000170937
0.0046263 0.00350935 0.000352478
0.0106261 0.00800059 0.000284845
0.0134511 0.00778953 -5.1128e-06
0.0166913 0.0051712 -0.000300733
0.019918 0.00277104 -0.000374815
0.0226931 0.00127501 -0.000303781
0.0247966 0.000522435 -0.000172719
0.0262218 0.000189072 -5.56581e-05
0.0271168 4.31609e-05 1.13143e-05
0.0276577 -2.26814e-05 3.40799e-05
0.0279791 -4.94751e-05 3.32984e-05
0.0281683 -5.52745e-05 2.48275e-05
0.0282785 -5.05744e-05 1.62322e-05
0.028342 -4.18325e-05 9.81207e-06
0.0283782 -3.25926e-05 5.62446e-06
0.0283985 -2.44529e-05 3.09639e-06
0.0284097 -1.79034e-05 1.6458e-06
0.0284159 -1.29014e-05 8.44041e-07
0.0284192 -9.2016e-06 4.14515e-07
0.0284209 -6.51972e-06 1.91209e-07
0.0284218 -4.6005e-06 7.89899e-08
0.0284223 -3.23816e-06 2.50909e-08
0.0284225 -2.27603e-06 9.80059e-10
0.0284226 -1.59865e-06 -8.42845e-09
0.0284226 -1.12264e-06 -1.09321e-08
0.0284226 -7.8855e-07 -1.04543e-08
0.0284226 -5.5427e-07 -8.89907e-09
0.0284226 -3.90152e-07 -7.13994e-09
0.0284226 -2.75379e-07 -5.53995e-09
0.0284225 -1.9539e-07 -4.22087e-09
0.0284225 -1.40039e-07 -3.20196e-09
0.0284225 -1.02324e-07 -2.47483e-09
0.0284225 -7.75013e-08 -2.04965e-09
0.0284225 -6.24002e-08 -2.00088e-09
0.0284225 -5.47394e-08 -2.55505e-09
0.0284225 -5.25362e-08 -4.10945e-09
0.0284225 -5.35975e-08 -7.33589e-09
0.0284225 -5.50625e-08 -1.37449e-08
0.0284224 -5.19182e-08 -2.40041e-08
0.0284223 -3.838e-08 -6.97545e-08
0.0284223 -1.37936e-08 -2.53419e-07
0.0284221 8.21037e-10 -3.97371e-07
0.0196 -1.30216e-06 -3.61102e-06
0.0196 -0.00339392 -0.00307297
0.0189699 -0.00724764 -0.00650412
0.0176975 -0.00696455 -0.00634658
0.0136969 -0.00321173 -0.00572032
0.00975027 0.00319464 -0.00483822
0.00636874 0.00329684 -0.00250744
7.55877e-05 -6.32896e-05 -0.00047787
2.76229e-05 -2.76229e-05 -1.31883e-07
-3.47522e-05 3.65812e-05 5.12598e-05
0.00349535 0.0027505 0.000336464
0.00813569 0.00408746 0.000360239
0.0135091 0.00131214 -1.65844e-05
0.0182282 -0.000741481 -0.000281683
0.0219452 -0.0015533 -0.000378838
0.0245988 -0.00151062 -0.000306747
0.0262821 -0.00113704 -0.000165592
0.0272497 -0.000767854 -5.60796e-05
0.0277752 -0.00050144 -3.22852e-06
0.0280531 -0.000326238 1.23678e-05
0.0281978 -0.000212501 1.24525e-05
0.028272 -0.000138302 8.65311e-06
0.0283092 -8.98544e-05 5.13952e-06
0.0283272 -5.83455e-05 2.77497e-06
0.0283355 -3.79476e-05 1.38814e-06
0.028339 -2.4776e-05 6.3936e-07
0.0283401 -1.62668e-05 2.60121e-07
0.0283403 -1.07515e-05 8.00335e-08
0.02834 -7.15715e-06 1.58751e-09
0.0283396 -4.7986e-06 -2.76137e-08
0.0283393 -3.23922e-06 -3.44358e-08
0.0283389 -2.20028e-06 -3.20742e-08
0.0283387 -1.50296e-06 -2.66975e-08
0.0283385 -1.03175e-06 -2.09897e-08
0.0283383 -7.11438e-07 -1.59742e-08
0.0283382 -4.92611e-07 -1.19237e-08
0.0283381 -3.42541e-07 -8.80102e-09
0.0283381 -2.39376e-07 -6.46461e-09
0.028338 -1.68425e-07 -4.76025e-09
0.028338 -1.19743e-07 -3.56174e-09
0.028338 -8.65339e-08 -2.79305e-09
0.0283379 -6.40288e-08 -2.44784e-09
0.0283379 -4.86756e-08 -2.60856e-09
0.0283379 -3.74997e-08 -3.47136e-09
0.0283379 -2.75044e-08 -5.32391e-09
0.0283379 -1.50102e-08 -8.66548e-09
0.0283378 5.11857e-09 -1.49716e-08
0.0283378 4.20111e-08 -2.44683e-08
0.0283377 1.12205e-07 -6.62205e-08
0.0283377 2.26934e-07 -2.43484e-07
0.0283375 2.95644e-07 -3.84359e-07
0.018 -8.31018e-07 -3.55223e-06
0.0180009 -0.00174931 -0.00300526
0.0184425 -0.00312934 -0.00616617
0.0187058 -0.00161381 -0.00558501
0.0179719 0.00158592 -0.00454677
0.0178645 0.00755625 -0.00380412
0.0184952 0.0126769 -0.00244011
0.0114133 0.00693952 -0.00110482
7.72964e-05 -4.92828e-05 -0.000342356
-2.77468e-05 -5.6808e-05 5.66157e-07
7.83519e-06 -0.00027562 0.000801098
0.00918363 -0.00234402 0.00128442
0.0169666 -0.00481218 0.000729696
0.0218897 -0.0053917 0.000250634
0.0247482 -0.00478377 -0.000144104
0.0263805 -0.0035766 -0.000305716
0.027258 -0.00233339 -0.000255973
0.0276726 -0.00140268 -0.000146207
0.0278365 -0.000818678 -6.63641e-05
0.027884 -0.000477634 -2.61002e-05
0.0278854 -0.000280984 -9.5017e-06
0.0278724 -0.000166772 -3.44862e-06
0.0278575 -9.98536e-05 -1.38667e-06
0.027845 -6.03633e-05 -6.85696e-07
0.0278355 -3.68934e-05 -4.18863e-07
0.0278287 -2.28259e-05 -2.888e-07
0.0278239 -1.43065e-05 -2.07161e-07
0.0278206 -9.08535e-06 -1.48805e-07
0.0278183 -5.84396e-06 -1.05813e-07
0.0278167 -3.80464e-06 -7.44393e-08
0.0278156 -2.50458e-06 -5.19554e-08
0.0278149 -1.66526e-06 -3.61025e-08
0.0278143 -1.11703e-06 -2.50558e-08
0.027814 -7.55112e-07 -1.74141e-08
0.0278137 -5.13963e-07 -1.21473e-08
0.0278135 -3.52003e-07 -8.52175e-09
0.0278134 -2.42523e-07 -6.02719e-09
0.0278133 -1.68149e-07 -4.31571e-09
0.0278132 -1.17435e-07 -3.15674e-09
0.0278132 -8.27195e-08 -2.40778e-09
0.0278132 -5.87377e-08 -1.99819e-09
0.0278131 -4.16887e-08 -1.92077e-09
0.0278131 -2.8546e-08 -2.23375e-09
0.0278131 -1.64737e-08 -3.08433e-09
0.0278131 -2.21409e-09 -4.68198e-09
0.0278131 1.87151e-08 -7.37426e-09
0.0278131 5.29421e-08 -1.25045e-08
0.027813 1.12206e-07 -1.9851e-08
0.027813 2.24877e-07 -5.23609e-08
0.027813 4.18478e-07 -2.12717e-07
0.027813 5.37276e-07 -3.44504e-07
0.0148 -4.79225e-07 -3.1094e-06
0.0148015 -0.000830446 -0.00278511
0.0164055 -0.00103204 -0.00548544
0.0183504 0.000849741 -0.00464242
0.0201661 0.00395242 -0.00349131
0.0222208 0.00761798 -0.00293858
0.0259181 0.0128057 -0.00216697
0.0290853 0.0197275 -0.00121159
0.0237572 0.0116392 -0.00017319
0.0241461 -1.08479e-11 0.000636835
0.0275142 -0.00684712 0.00151403
0.0317981 -0.013531 0.00218902
0.0330926 -0.0116955 0.00196081
0.0322083 -0.00849712 0.00138135
0.0304259 -0.005799 0.000486451
0.0287183 -0.00373182 -0.000176727
0.0274877 -0.00221982 -0.000362176
0.0267137 -0.0012347 -0.000276939
0.026252 -0.000665321 -0.000153951
0.0259809 -0.000358202 -7.33607e-05
0.025822 -0.000195777 -3.2383e-05
0.0257286 -0.000109228 -1.38017e-05
0.0256735 -6.22771e-05 -5.81887e-06
0.0256407 -3.62714e-05 -2.46597e-06
0.0256209 -2.1558e-05 -1.06239e-06
0.0256088 -1.30587e-05 -4.68492e-07
0.0256013 -8.0506e-06 -2.11686e-07
0.0255966 -5.04391e-06 -9.73971e-08
0.0255936 -3.20704e-06 -4.4974e-08
0.0255917 -2.06653e-06 -2.03318e-08
0.0255904 -1.3477e-06 -8.61766e-09
0.0255896 -8.8838e-07 -3.10404e-09
0.025589 -5.91195e-07 -6.18439e-10
0.0255886 -3.96748e-07 3.8822e-10
0.0255884 -2.68261e-07 6.89325e-10
0.0255882 -1.82636e-07 6.72758e-10
0.0255881 -1.2516e-07 5.29108e-10
0.025588 -8.6332e-08 3.45848e-10
0.0255879 -5.99143e-08 1.55135e-10
0.0255879 -4.17142e-08 -4.28384e-11
0.0255879 -2.87895e-08 -2.70986e-10
0.0255878 -1.88959e-08 -5.74852e-10
0.0255878 -1.00487e-08 -1.0284e-09
0.0255878 -1.07635e-10 -1.75342e-09
0.0255878 1.36996e-08 -2.89827e-09
0.0255878 3.55921e-08 -4.64434e-09
0.0255878 7.24155e-08 -7.84943e-09
0.0255878 1.35384e-07 -1.22886e-08
0.0255879 2.5604e-07 -3.37903e-08
0.025588 4.72473e-07 -1.64271e-07
0.0255882 6.08062e-07 -2.75574e-07
0.01 -9.2885e-07 -2.78051e-06
0.0100008 -0.000515896 -0.00229913
0.0115844 -0.000381188 -0.00427394