# vtk DataFile Version 2.0
Tobias Weinzierl: CPU, Manycore and Cluster Computing
ASCII

DATASET STRUCTURED_POINTS
DIMENSIONS  51 11 6

ORIGIN 0 0 0 

SPACING 0.1 0.1 0.1 

POINT_DATA 3366

VECTORS velocity float
0 0 0
3.4994e-12 0 0
6.21297e-09 0 0
6.32644e-09 0 0
-1.85909e-08 0 0
-1.8359e-10 0 0
1.91048e-09 0 0
2.94705e-10 0 0
-1.57989e-09 0 0
-3.12026e-09 0 0
-2.47019e-09 0 0
-2.04964e-09 0 0
-5.27388e-09 0 0
-1.16358e-08 0 0
-1.74763e-08 0 0
-2.03441e-08 0 0
-2.07745e-08 0 0
-2.05545e-08 0 0
-2.08468e-08 0 0
-2.18269e-08 0 0
-2.31691e-08 0 0
-2.45094e-08 0 0
-2.56312e-08 0 0
-2.6466e-08 0 0
-2.70344e-08 0 0
-2.73925e-08 0 0
-2.7601e-08 0 0
-2.77107e-08 0 0
-2.77596e-08 0 0
-2.77735e-08 0 0
-2.77692e-08 0 0
-2.77567e-08 0 0
-2.77418e-08 0 0
-2.77275e-08 0 0
-2.77149e-08 0 0
-2.77046e-08 0 0
-2.76963e-08 0 0
-2.769e-08 0 0
-2.76851e-08 0 0
-2.76814e-08 0 0
-2.76786e-08 0 0
-2.76766e-08 0 0
-2.7675e-08 0 0
-2.76739e-08 0 0
-2.76731e-08 0 0
-2.76725e-08 0 0
-2.76722e-08 0 0
-2.76722e-08 0 0
-2.76725e-08 0 0
-2.76738e-08 0 0
0.00201597 0 0
0 3.87418e-07 0
3.40737e-12 -5.58428e-09 0
1.00893e-08 -1.12576e-08 0
1.44893e-08 -2.25262e-09 0
-1.7923e-08 -1.5892e-08 0
1.49234e-08 -2.04087e-08 0
1.39379e-08 5.57081e-09 0
6.05251e-09 1.45919e-08 0
1.6268e-09 1.50195e-08 0
-2.42125e-09 1.08953e-08 0
-3.94652e-09 6.18677e-09 0
-5.13946e-09 6.65197e-09 0
-1.13544e-08 1.04323e-08 0
-2.21497e-08 1.1523e-08 0
-3.15332e-08 8.15901e-09 0
-3.60199e-08 3.55229e-09 0
-3.74795e-08 8.2123e-10 0
-3.92475e-08 3.46855e-10 0
-4.28008e-08 9.38404e-10 0
-4.76966e-08 1.53116e-09 0
-5.28349e-08 1.72854e-09 0
-5.73505e-08 1.5776e-09 0
-6.08563e-08 1.25407e-09 0
-6.33354e-08 9.01502e-10 0
-6.49582e-08 5.96298e-10 0
-6.59466e-08 3.63811e-10 0
-6.65025e-08 2.01755e-10 0
-6.67832e-08 9.68294e-11 0
-6.68997e-08 3.37091e-11 0
-6.69254e-08 -1.03344e-12 0
-6.69057e-08 -1.77414e-11 0
-6.68672e-08 -2.37488e-11 0
-6.68245e-08 -2.39269e-11 0
-6.67847e-08 -2.13185e-11 0
-6.67507e-08 -1.77024e-11 0
-6.67232e-08 -1.40341e-11 0
-6.67015e-08 -1.07644e-11 0
-6.6685e-08 -8.05311e-12 0
-6.66724e-08 -5.9069e-12 0
-6.66631e-08 -4.26097e-12 0
-6.66561e-08 -3.02564e-12 0
-6.6651e-08 -2.11038e-12 0
-6.66472e-08 -1.43421e-12 0
-6.66445e-08 -9.27942e-13 0
-6.66425e-08 -5.3354e-13 0
-6.66413e-08 -1.95413e-13 0
-6.66408e-08 1.51975e-13 0
-6.66411e-08 5.97345e-13 0
-6.66424e-08 1.68806e-12 0
-6.66462e-08 4.94966e-12 0
0.00575987 -4.54181e-08 0
0 -2.26401e-08 0
1.82849e-12 -4.72981e-09 0
1.07293e-08 -1.66815e-08 0
2.71102e-08 -2.68191e-08 0
2.03168e-08 -5.52834e-08 0
5.09111e-08 -4.60828e-08 0
3.9511e-08 -2.01868e-09 0
2.39462e-08 3.33484e-09 0
4.02484e-09 -3.58782e-09 0
-1.07625e-08 -5.83019e-09 0
-1.63146e-08 -1.91661e-09 0
-1.52703e-08 4.12837e-09 0
-1.78211e-08 8.11815e-09 0
-2.65421e-08 9.7501e-09 0
-3.44211e-08 1.12315e-08 0
-3.73346e-08 1.33626e-08 0
-3.72637e-08 1.50454e-08 0
-3.776e-08 1.53129e-08 0
-4.04741e-08 1.41292e-08 0
-4.49858e-08 1.19725e-08 0
-5.00466e-08 9.41401e-09 0
-5.45944e-08 6.92223e-09 0
-5.81097e-08 4.7862e-09 0
-6.05309e-08 3.11936e-09 0
-6.20393e-08 1.9115e-09 0
-6.28862e-08 1.08921e-09 0
-6.33e-08 5.60672e-10 0
-6.34544e-08 2.4053e-10 0
-6.34673e-08 5.97832e-11 0
-6.34128e-08 -3.26666e-11 0
-6.33337e-08 -7.23036e-11 0
-6.32525e-08 -8.24644e-11 0
-6.31799e-08 -7.7712e-11 0
-6.31195e-08 -6.66347e-11 0
-6.30715e-08 -5.39585e-11 0
-6.30345e-08 -4.20376e-11 0
-6.30065e-08 -3.18493e-11 0
-6.29857e-08 -2.36257e-11 0
-6.29703e-08 -1.72345e-11 0
-6.29591e-08 -1.23957e-11 0
-6.29508e-08 -8.79644e-12 0
-6.29448e-08 -6.14535e-12 0
-6.29405e-08 -4.19218e-12 0
-6.29374e-08 -2.72681e-12 0
-6.29352e-08 -1.56688e-12 0
-6.2934e-08 -5.32145e-13 0
-6.29335e-08 6.64081e-13 0
-6.29341e-08 2.53327e-12 0
-6.29356e-08 5.63291e-12 0
-6.2939e-08 1.04147e-11 0
0.00817758 -9.7736e-08 0
0 -6.42022e-07 0
7.65215e-12 -7.66419e-09 0
1.34605e-08 -2.61723e-08 0
3.30149e-08 -4.83078e-08 0
2.11285e-08 -6.4713e-08 0
3.58038e-08 -3.49314e-08 0
2.74926e-08 -2.2415e-11 0
1.81886e-08 -4.15247e-09 0
-1.35148e-08 -1.64005e-08 0
-3.22426e-08 -2.87288e-08 0
-3.35678e-08 -3.48044e-08 0
-3.16246e-08 -3.34315e-08 0
-3.62848e-08 -2.08622e-08 0
-4.79655e-08 -8.94187e-10 0
-5.68325e-08 1.70731e-08 0
-5.77178e-08 2.69388e-08 0
-5.20962e-08 2.85717e-08 0
-4.43098e-08 2.54218e-08 0
-3.80099e-08 2.06805e-08 0
-3.4551e-08 1.5904e-08 0
-3.34272e-08 1.16177e-08 0
-3.35128e-08 8.0117e-09 0
-3.3918e-08 5.16862e-09 0
-3.4206e-08 3.07716e-09 0
-3.42694e-08 1.64322e-09 0
-3.41529e-08 7.28461e-10 0
-3.39381e-08 1.89906e-10 0
-3.36928e-08 -9.57428e-11 0
-3.34593e-08 -2.23098e-10 0
-3.3258e-08 -2.58798e-10 0
-3.30951e-08 -2.46536e-10 0
-3.29686e-08 -2.13072e-10 0
-3.28733e-08 -1.73598e-10 0
-3.2803e-08 -1.35917e-10 0
-3.27518e-08 -1.03411e-10 0
-3.27149e-08 -7.70085e-11 0
-3.26885e-08 -5.64033e-11 0
-3.26696e-08 -4.07702e-11 0
-3.26561e-08 -2.91505e-11 0
-3.26464e-08 -2.0641e-11 0
-3.26394e-08 -1.44693e-11 0
-3.26344e-08 -1.00094e-11 0
-3.26307e-08 -6.76584e-12 0
-3.26281e-08 -4.34579e-12 0
-3.26263e-08 -2.41173e-12 0
-3.26251e-08 -6.20109e-13 0
-3.26245e-08 1.36947e-12 0
-3.26242e-08 3.77129e-12 0
-3.26238e-08 6.63293e-12 0
-3.26242e-08 9.95507e-12 0
0.00910312 -1.00012e-07 0
0 -1.24841e-06 0
3.69171e-12 -1.39874e-08 0
5.66899e-09 -3.77482e-08 0
1.11659e-08 -4.84645e-08 0
-2.54448e-09 -3.86676e-08 0
-6.97672e-12 -1.39759e-08 0
-1.31402e-10 -1.69288e-10 0
1.52372e-10 -1.66882e-10 0
-1.43327e-08 -1.57601e-08 0
-4.43189e-08 -4.45109e-08 0
-5.25409e-08 -5.95724e-08 0
-5.27345e-08 -5.36867e-08 0
-6.06545e-08 -2.9393e-08 0
-7.11341e-08 1.88309e-09 0
-7.73938e-08 2.47487e-08 0
-7.64709e-08 3.3245e-08 0
-6.78935e-08 3.03807e-08 0
-5.43921e-08 2.29665e-08 0
-4.06055e-08 1.57955e-08 0
-2.98367e-08 1.03152e-08 0
-2.27838e-08 6.3327e-09 0
-1.85598e-08 3.45092e-09 0
-1.60211e-08 1.43774e-09 0
-1.43745e-08 1.41745e-10 0
-1.32078e-08 -5.90915e-10 0
-1.23382e-08 -9.21777e-10 0
-1.16838e-08 -9.9661e-10 0
-1.11983e-08 -9.28765e-10 0
-1.08458e-08 -7.96068e-10 0
-1.05956e-08 -6.46195e-10 0
-1.04212e-08 -5.04857e-10 0
-1.03015e-08 -3.83485e-10 0
-1.02201e-08 -2.85145e-10 0
-1.01652e-08 -2.08559e-10 0
-1.01282e-08 -1.50587e-10 0
-1.01031e-08 -1.07623e-10 0
-1.00861e-08 -7.62879e-11 0
-1.00744e-08 -5.37118e-11 0
-1.00663e-08 -3.75954e-11 0
-1.00606e-08 -2.61642e-11 0
-1.00564e-08 -1.80829e-11 0
-1.00534e-08 -1.23618e-11 0
-1.00511e-08 -8.26931e-12 0
-1.00494e-08 -5.25487e-12 0
-1.0048e-08 -2.90327e-12 0
-1.00469e-08 -9.32032e-13 0
-1.00456e-08 8.0099e-13 0
-1.00442e-08 2.32923e-12 0
-1.00424e-08 3.74259e-12 0
-1.00412e-08 5.46937e-12 0
0.00940378 -5.74616e-08 0
0 -1.12603e-06 0
-6.60242e-12 -1.53224e-08 0
-3.38949e-09 -3.26092e-08 0
-4.56338e-09 -3.80467e-08 0
-1.68593e-08 -4.03441e-08 0
-1.50943e-08 -1.95877e-08 0
-1.4301e-10 1.38386e-10 0
1.39995e-11 -1.39995e-11 0
1.42644e-10 -1.62108e-10 0
-2.35376e-08 -2.47718e-08 0
-6.24491e-08 -6.27103e-08 0
-6.48122e-08 -6.47594e-08 0
-6.75135e-08 -3.38348e-08 0
-6.95265e-08 3.15379e-09 0
-7.17467e-08 2.87678e-08 0
-7.36914e-08 3.61045e-08 0
-7.01629e-08 2.90888e-08 0
-5.87251e-08 1.72571e-08 0
-4.32284e-08 7.44937e-09 0
-2.90456e-08 1.37316e-09 0
-1.87926e-08 -1.86778e-09 0
-1.23405e-08 -3.40478e-09 0
-8.52728e-09 -3.93857e-09 0
-6.28624e-09 -3.86682e-09 0
-4.93672e-09 -3.45367e-09 0
-4.10257e-09 -2.89035e-09 0
-3.58069e-09 -2.30586e-09 0
-3.25537e-09 -1.77428e-09 0
-3.05559e-09 -1.32817e-09 0
-2.93552e-09 -9.73523e-10 0
-2.86517e-09 -7.02195e-10 0
-2.82506e-09 -5.00322e-10 0
-2.80285e-09 -3.53181e-10 0
-2.79091e-09 -2.47557e-10 0
-2.78466e-09 -1.72591e-10 0
-2.78143e-09 -1.19832e-10 0
-2.77971e-09 -8.29315e-11 0
-2.77871e-09 -5.72403e-11 0
-2.778e-09 -3.94085e-11 0
-2.77739e-09 -2.70518e-11 0
-2.77678e-09 -1.84866e-11 0
-2.77614e-09 -1.25281e-11 0
-2.77545e-09 -8.34773e-12 0
-2.7747e-09 -5.37994e-12 0
-2.77384e-09 -3.26039e-12 0
-2.77281e-09 -1.76337e-12 0
-2.7715e-09 -7.47663e-13 0
-2.77001e-09 -1.49324e-13 0
-2.7683e-09 5.7355e-14 0
-2.76724e-09 2.71178e-13 0
0.00946867 5.03614e-09 0
0 -7.79873e-07 0
-2.48093e-12 -9.94303e-09 0
-3.75452e-09 -2.51791e-08 0
-4.50093e-09 -3.21508e-08 0
-2.5533e-08 -3.03652e-08 0
-3.74735e-08 -1.65715e-08 0
-1.52298e-08 -3.11947e-09 0
-1.40052e-10 1.3673e-10 0
5.92862e-12 -5.92862e-12 0
1.28624e-10 -1.56676e-10 0
-2.86373e-08 -3.64919e-08 0
-4.65617e-08 -6.29762e-08 0
-5.32321e-08 -3.22594e-08 0
-5.09509e-08 6.2791e-09 0
-4.7625e-08 3.25913e-08 0
-5.00463e-08 3.8829e-08 0
-5.35549e-08 2.84394e-08 0
-5.01631e-08 1.25494e-08 0
-3.9772e-08 1.19139e-11 0
-2.7882e-08 -6.8178e-09 0
-1.87132e-08 -9.33295e-09 0
-1.31928e-08 -9.4226e-09 0
-1.04443e-08 -8.36444e-09 0
-9.32254e-09 -6.88412e-09 0
-9.00985e-09 -5.37687e-09 0
-9.04597e-09 -4.04057e-09 0
-9.20451e-09 -2.95007e-09 0
-9.38484e-09 -2.10844e-09 0
-9.54733e-09 -1.4838e-09 0
-9.6801e-09 -1.03287e-09 0
-9.78296e-09 -7.13608e-10 0
-9.86001e-09 -4.90588e-10 0
-9.91641e-09 -3.36202e-10 0
-9.95696e-09 -2.29957e-10 0
-9.98568e-09 -1.57109e-10 0
-1.00058e-08 -1.07268e-10 0
-1.00196e-08 -7.32073e-11 0
-1.0029e-08 -4.99403e-11 0
-1.00352e-08 -3.40453e-11 0
-1.00393e-08 -2.31797e-11 0
-1.00418e-08 -1.57432e-11 0
-1.00432e-08 -1.06485e-11 0
-1.00439e-08 -7.16381e-12 0
-1.0044e-08 -4.80261e-12 0
-1.00438e-08 -3.24791e-12 0
-1.00432e-08 -2.30648e-12 0
-1.00425e-08 -1.88717e-12 0
-1.00416e-08 -2.03766e-12 0
-1.00406e-08 -2.99737e-12 0
-1.00401e-08 -4.70461e-12 0
0.00940375 6.50908e-08 0
0 -5.47254e-07 0
3.70062e-12 -7.5661e-09 0
-2.01989e-09 -1.8826e-08 0
-6.89972e-09 -2.39667e-08 0
-2.67128e-08 -2.03353e-08 0
-4.63007e-08 -7.91167e-09 0
-4.06535e-08 -7.96111e-10 0
-2.10729e-08 -5.13506e-10 0
-1.49084e-10 1.24384e-10 0
1.24782e-10 1.16276e-10 0
3.46114e-12 -1.94847e-08 0
-2.98665e-08 -3.27189e-08 0
-5.20991e-08 -1.14369e-08 0
-5.16222e-08 1.50957e-08 0
-3.46685e-08 3.09761e-08 0
-2.28485e-08 3.21846e-08 0
-2.46148e-08 2.14957e-08 0
-3.02947e-08 6.94038e-09 0
-3.15106e-08 -4.28213e-09 0
-2.89653e-08 -9.94021e-09 0
-2.6298e-08 -1.1317e-08 0
-2.52652e-08 -1.03819e-08 0
-2.57136e-08 -8.54223e-09 0
-2.69001e-08 -6.57459e-09 0
-2.82333e-08 -4.83781e-09 0
-2.94132e-08 -3.45135e-09 0
-3.03452e-08 -2.41135e-09 0
-3.10366e-08 -1.66224e-09 0
-3.15309e-08 -1.13666e-09 0
-3.18767e-08 -7.73908e-10 0
-3.21156e-08 -5.25917e-10 0
-3.22793e-08 -3.57218e-10 0
-3.2391e-08 -2.42693e-10 0
-3.2467e-08 -1.64973e-10 0
-3.25186e-08 -1.12202e-10 0
-3.25534e-08 -7.63405e-11 0
-3.25769e-08 -5.19494e-11 0
-3.25926e-08 -3.53472e-11 0
-3.2603e-08 -2.40408e-11 0
-3.26097e-08 -1.634e-11 0
-3.26141e-08 -1.11001e-11 0
-3.26167e-08 -7.54684e-12 0
-3.26182e-08 -5.16005e-12 0
-3.2619e-08 -3.59749e-12 0
-3.26193e-08 -2.64906e-12 0
-3.26192e-08 -2.21808e-12 0
-3.2619e-08 -2.3133e-12 0
-3.26188e-08 -3.08994e-12 0
-3.26187e-08 -5.08271e-12 0
-3.26193e-08 -8.7674e-12 0
0.00910308 1.00377e-07 0
0 -4.66166e-07 0
4.81881e-12 -4.0967e-09 0
-1.19935e-09 -1.12224e-08 0
-1.08686e-08 -1.5946e-08 0
-3.3997e-08 -1.43959e-08 0
-5.58992e-08 -1.90139e-09 0
-5.55147e-08 6.00771e-09 0
-4.65506e-08 -1.09109e-08 0
-2.90501e-08 -1.32444e-08 0
-2.66234e-08 5.36087e-13 0
-2.96074e-08 -2.82043e-09 0
-5.34429e-08 2.46911e-09 0
-7.4194e-08 1.68193e-08 0
-6.69224e-08 2.23976e-08 0
-3.52434e-08 1.74695e-08 0
-1.13021e-08 8.76289e-09 0
-1.28178e-08 1.07758e-09 0
-2.79265e-08 -3.83529e-09 0
-4.06281e-08 -5.8967e-09 0
-4.69451e-08 -6.03787e-09 0
-4.98166e-08 -5.33584e-09 0
-5.19057e-08 -4.42213e-09 0
-5.40374e-08 -3.53019e-09 0
-5.61218e-08 -2.73138e-09 0
-5.79368e-08 -2.05427e-09 0
-5.93782e-08 -1.50863e-09 0
-6.04541e-08 -1.08774e-09 0
-6.12259e-08 -7.73888e-10 0
-6.17662e-08 -5.45443e-10 0
-6.2139e-08 -3.81882e-10 0
-6.23943e-08 -2.66061e-10 0
-6.25682e-08 -1.8466e-10 0
-6.26865e-08 -1.27756e-10 0
-6.27668e-08 -8.81413e-11 0
-6.28212e-08 -6.06553e-11 0
-6.28579e-08 -4.16414e-11 0
-6.28826e-08 -2.8524e-11 0
-6.28991e-08 -1.94979e-11 0
-6.291e-08 -1.33037e-11 0
-6.29171e-08 -9.06622e-12 0
-6.29216e-08 -6.18042e-12 0
-6.29244e-08 -4.23193e-12 0
-6.29261e-08 -2.94293e-12 0
-6.2927e-08 -2.13756e-12 0
-6.29275e-08 -1.71992e-12 0
-6.29278e-08 -1.67174e-12 0
-6.29281e-08 -2.06859e-12 0
-6.29286e-08 -3.0904e-12 0
-6.29297e-08 -5.30794e-12 0
-6.29326e-08 -9.51701e-12 0
0.00817755 8.93155e-08 0
0 -4.82232e-07 0
9.45524e-12 -9.87385e-10 0
-9.7116e-10 -3.66715e-09 0
-1.37176e-08 -6.24912e-09 0
-3.77799e-08 -6.17247e-09 0
-5.99774e-08 -3.66443e-09 0
-6.13557e-08 -4.04262e-10 0
-5.35294e-08 -5.18265e-09 0
-6.17901e-08 -6.48907e-09 0
-5.85035e-08 4.35714e-09 0
-5.33456e-08 1.29625e-08 0
-5.23637e-08 1.64352e-08 0
-5.04376e-08 1.50782e-08 0
-3.73412e-08 9.67709e-09 0
-1.5624e-08 1.39359e-09 0
-6.16425e-09 -6.99974e-09 0
-1.76042e-08 -1.09243e-08 0
-3.73329e-08 -9.07751e-09 0
-5.1843e-08 -4.69454e-09 0
-5.85071e-08 -1.23815e-09 0
-6.06892e-08 3.04027e-10 0
-6.14673e-08 5.61866e-10 0
-6.21323e-08 3.34877e-10 0
-6.29161e-08 6.39482e-11 0
-6.37242e-08 -1.10059e-10 0
-6.44499e-08 -1.84614e-10 0
-6.50437e-08 -1.9479e-10 0
-6.55009e-08 -1.73191e-10 0
-6.58395e-08 -1.40741e-10 0
-6.60838e-08 -1.08329e-10 0
-6.6257e-08 -8.04915e-11 0
-6.63783e-08 -5.83859e-11 0
-6.64625e-08 -4.16356e-11 0
-6.65204e-08 -2.93219e-11 0
-6.65601e-08 -2.04549e-11 0
-6.6587e-08 -1.41637e-11 0
-6.66051e-08 -9.74916e-12 0
-6.66171e-08 -6.67831e-12 0
-6.66249e-08 -4.55787e-12 0
-6.66299e-08 -3.10413e-12 0
-6.66331e-08 -2.11645e-12 0
-6.66349e-08 -1.45618e-12 0
-6.66359e-08 -1.03141e-12 0
-6.66365e-08 -7.87574e-13 0
-6.66367e-08 -7.00769e-13 0
-6.6637e-08 -7.82638e-13 0
-6.66374e-08 -1.09216e-12 0
-6.66384e-08 -1.70047e-12 0
-6.66404e-08 -2.75941e-12 0
-6.66449e-08 -4.78536e-12 0
0.00575989 3.62676e-08 0
0 0 0
6.25547e-12 0 0
-4.88102e-10 0 0
-6.90953e-09 0 0
-1.77981e-08 0 0
-2.79929e-08 0 0
-3.12672e-08 0 0
-2.80498e-08 0 0
-3.27526e-08 0 0
-3.18837e-08 0 0
-2.37349e-08 0 0
-1.37473e-08 0 0
-6.51391e-09 0 0
-1.41973e-09 0 0
1.75476e-09 0 0
-9.43877e-10 0 0
-9.65328e-09 0 0
-1.91136e-08 0 0
-2.50663e-08 0 0
-2.72892e-08 0 0
-2.75125e-08 0 0
-2.71742e-08 0 0
-2.69037e-08 0 0
-2.6828e-08 0 0
-2.68936e-08 0 0
-2.70241e-08 0 0
-2.71667e-08 0 0
-2.72947e-08 0 0
-2.73987e-08 0 0
-2.74784e-08 0 0
-2.75372e-08 0 0
-2.75796e-08 0 0
-2.76094e-08 0 0
-2.76302e-08 0 0
-2.76445e-08 0 0
-2.76541e-08 0 0
-2.76606e-08 0 0
-2.76648e-08 0 0
-2.76675e-08 0 0
-2.76692e-08 0 0
-2.76702e-08 0 0
-2.76707e-08 0 0
-2.76709e-08 0 0
-2.7671e-08 0 0
-2.7671e-08 0 0
-2.76711e-08 0 0
-2.76713e-08 0 0
-2.76718e-08 0 0
-2.76729e-08 0 0
-2.76752e-08 0 0
0.00201599 0 0
0 0 5.3763e-07
3.41096e-12 0 -6.24996e-10
1.0241e-08 0 4.93833e-09
1.99969e-08 0 2.70601e-08
-5.11666e-08 0 2.24056e-08
-6.27943e-09 0 -8.90006e-11
2.53839e-09 0 -6.04549e-09
7.15909e-09 0 -1.10979e-08
1.26712e-08 0 -1.16009e-08
1.72979e-08 0 -1.00013e-08
2.46816e-08 0 -7.25374e-09
3.08572e-08 0 -3.8446e-09
2.75756e-08 0 -8.4246e-10
1.32437e-08 0 6.83161e-10
-5.08531e-09 0 5.53069e-10
-1.99314e-08 0 -2.50407e-10
-2.96687e-08 0 -6.07106e-10
-3.66678e-08 0 -2.70855e-10
-4.31275e-08 0 3.37604e-10
-4.95852e-08 0 7.94829e-10
-5.55905e-08 0 9.57616e-10
-6.06134e-08 0 8.88071e-10
-6.44298e-08 0 7.06048e-10
-6.71054e-08 0 5.05078e-10
-6.88555e-08 0 3.33562e-10
-6.99275e-08 0 2.06082e-10
-7.05384e-08 0 1.1956e-10
-7.08547e-08 0 6.47034e-11
-7.09939e-08 0 3.18828e-11
-7.10333e-08 0 1.33385e-11
-7.10215e-08 0 3.5393e-12
-7.09872e-08 0 -1.16489e-12
-7.09465e-08 0 -3.05431e-12
-7.09074e-08 0 -3.48906e-12
-7.08734e-08 0 -3.24439e-12
-7.08455e-08 0 -2.73997e-12
-7.08234e-08 0 -2.18794e-12
-7.08064e-08 0 -1.68435e-12
-7.07935e-08 0 -1.26359e-12
-7.07838e-08 0 -9.29386e-13
-7.07766e-08 0 -6.71806e-13
-7.07712e-08 0 -4.76192e-13
-7.07673e-08 0 -3.27307e-13
-7.07645e-08 0 -2.1031e-13
-7.07624e-08 0 -1.12818e-13
-7.07611e-08 0 -2.37639e-14
-7.07605e-08 0 6.07997e-14
-7.07606e-08 0 8.0976e-14
-7.07618e-08 0 2.48024e-13
-7.07656e-08 0 1.9386e-12
0.00571292 0 -1.00721e-08
0.0036 -3.11045e-07 -6.40813e-08
0.00359981 -0.00136823 -1.46692e-05
0.00672649 -0.00387356 0.000105036
0.0135954 -0.00598543 -0.00062789
0.0236058 -0.01439 -0.00438486
0.0461888 -0.0131148 -0.00489409
0.0496466 -0.00179038 -0.00166442
0.049395 0.00274268 -0.000186239
0.0443841 0.00505339 0.000531314
0.0387272 0.00521261 0.000492769
0.0335598 0.00455221 0.000215456
0.0292339 0.00365697 -5.12856e-05
0.0258438 0.00272495 -0.00023663
0.0233064 0.00187889 -0.000322885
0.0214447 0.00121889 -0.000313817
0.0200828 0.000774921 -0.000240145
0.0190896 0.000504635 -0.00014821
0.0183741 0.000342429 -7.27852e-05
0.0178699 0.000238098 -2.54246e-05
0.017525 0.000164908 -1.84211e-06
0.017297 0.000111434 6.91675e-06
0.0171516 7.27001e-05 8.32124e-06
0.0170623 4.5572e-05 6.91343e-06
0.0170098 2.73363e-05 4.91549e-06
0.0169804 1.55767e-05 3.18699e-06
0.016965 8.3e-06 1.9341e-06
0.0169576 3.989e-06 1.10991e-06
0.0169547 1.5611e-06 6.02023e-07
0.0169541 2.82414e-07 3.04833e-07
0.0169546 -3.23936e-07 1.39093e-07
0.0169555 -5.56182e-07 5.14562e-08
0.0169564 -5.93929e-07 8.28647e-09
0.0169573 -5.40964e-07 -1.06563e-08
0.0169581 -4.54306e-07 -1.70827e-08
0.0169587 -3.63169e-07 -1.75145e-08
0.0169591 -2.80907e-07 -1.54323e-08
0.0169595 -2.12282e-07 -1.25934e-08
0.0169597 -1.57726e-07 -9.81382e-09
0.0169599 -1.15746e-07 -7.41665e-09
0.01696 -8.41993e-08 -5.48164e-09
0.0169601 -6.09337e-08 -3.98135e-09
0.0169602 -4.40674e-08 -2.85469e-09
0.0169603 -3.20794e-08 -2.03909e-09
0.0169603 -2.38215e-08 -1.48846e-09
0.0169603 -1.84982e-08 -1.16957e-09
0.0169604 -1.55881e-08 -9.40873e-10
0.0169604 -1.49897e-08 -4.83813e-10
0.0169604 -1.68551e-08 1.99603e-09
0.0169604 -2.78765e-08 5.95038e-09
0.0169605 -8.55105e-08 -1.404e-08
0.0169607 -1.33694e-07 -3.58445e-08
0.01 -1.41261e-07 -1.46108e-06
0.0100007 -0.00299079 -0.000586932
0.0148083 -0.00991486 -0.000765631
0.0241456 -0.0176992 -0.0013154
0.038365 -0.0322673 -0.00340132
0.0588595 -0.0244699 -0.000806553
0.0561454 -0.00259287 0.00312458
0.0556196 0.00523106 0.00330456
0.0498534 0.0102804 0.00287246
0.0443572 0.0104757 0.00193658
0.0398422 0.0093946 0.000983266
0.0361301 0.00790095 0.000250477
0.0331513 0.00630212 -0.000257103
0.0308533 0.00481569 -0.000525285
0.0290957 0.00356548 -0.00055826
0.0277636 0.00257657 -0.00043806
0.0267788 0.00182199 -0.000273484
0.0260749 0.00126142 -0.000136824
0.0255896 0.00085413 -5.03654e-05
0.0252675 0.000564218 -6.52379e-06
0.0250625 0.000362483 1.05563e-05
0.0249381 0.000225778 1.41151e-05
0.0248667 0.000135842 1.22763e-05
0.0248287 7.85044e-05 9.08274e-06
0.0248104 4.31307e-05 6.15837e-06
0.0248033 2.20658e-05 3.9507e-06
0.0248019 1.00212e-05 2.43693e-06
0.0248032 3.47863e-06 1.45769e-06
0.0248055 1.76205e-07 8.49032e-07
0.024808 -1.29442e-06 4.82048e-07
0.0248102 -1.78233e-06 2.66395e-07
0.0248121 -1.78185e-06 1.42664e-07
0.0248135 -1.5691e-06 7.33806e-08
0.0248146 -1.29018e-06 3.56198e-08
0.0248155 -1.01642e-06 1.57046e-08
0.0248161 -7.77911e-07 5.65387e-09
0.0248165 -5.83278e-07 9.0813e-10
0.0248168 -4.30869e-07 -1.08052e-09
0.0248171 -3.14864e-07 -1.70136e-09
0.0248172 -2.28402e-07 -1.68922e-09
0.0248174 -1.65046e-07 -1.41934e-09
0.0248174 -1.19365e-07 -1.082e-09
0.0248175 -8.70801e-08 -7.71353e-10
0.0248175 -6.50043e-08 -5.26008e-10
0.0248176 -5.10234e-08 -3.61333e-10
0.0248176 -4.40055e-08 5.20581e-11
0.0248176 -4.48003e-08 1.3876e-09
0.0248177 -6.13154e-08 4.88531e-09
0.0248178 -1.07993e-07 6.71693e-09
0.0248179 -2.11356e-07 -3.27702e-08
0.024818 -2.81925e-07 -7.15833e-08
0.0148 -9.64424e-07 -1.74874e-06
0.0148024 -0.00528392 -0.00112405
0.0203262 -0.0163396 -0.00241936
0.0273534 -0.028568 -0.00395932
0.0319195 -0.0457434 -0.00573365
0.0304292 -0.0282506 -0.00134916
0.0267206 -1.2248e-05 0.00327341
0.0261879 0.00713616 0.00345292
0.0298285 0.0146383 0.00330555
0.0302374 0.0141672 0.00230877
0.0294358 0.012426 0.00132306
0.0285777 0.0105748 0.000470493
0.0278844 0.00858948 -0.000126925
0.027524 0.00662298 -0.000433554
0.0274003 0.00489145 -0.00047184
0.0274088 0.003481 -0.00035587
0.0274769 0.0024017 -0.00020251
0.027559 0.00161654 -7.87698e-05
0.0276331 0.00106411 -3.64683e-06
0.0276945 0.000683223 3.03095e-05
0.0277455 0.000425288 3.84804e-05
0.0277888 0.000254671 3.42812e-05
0.0278256 0.00014524 2.61707e-05
0.0278563 7.76063e-05 1.8277e-05
0.027881 3.7561e-05 1.20445e-05
0.0279002 1.50353e-05 7.61828e-06
0.0279147 3.18795e-06 4.67084e-06
0.0279254 -2.43394e-06 2.7917e-06
0.027933 -4.61063e-06 1.63152e-06
0.0279384 -5.00772e-06 9.33388e-07
0.0279422 -4.57998e-06 5.22497e-07
0.0279449 -3.84665e-06 2.85553e-07
0.0279467 -3.07065e-06 1.51647e-07
0.0279479 -2.37056e-06 7.7574e-08
0.0279488 -1.78783e-06 3.7587e-08
0.0279494 -1.32574e-06 1.66443e-08
0.0279498 -9.70878e-07 6.11897e-09
0.02795 -7.04477e-07 1.15343e-09
0.0279502 -5.07825e-07 -9.34708e-10
0.0279504 -3.64589e-07 -1.59343e-09
0.0279505 -2.61492e-07 -1.58395e-09
0.0279505 -1.88237e-07 -1.29941e-09
0.0279506 -1.37164e-07 -9.35383e-10
0.0279506 -1.0285e-07 -5.41446e-10
0.0279506 -8.18986e-08 -6.02529e-11
0.0279507 -7.36832e-08 8.50142e-10
0.0279507 -8.07777e-08 2.56738e-09
0.0279507 -1.09045e-07 3.79052e-09
0.0279508 -1.64858e-07 -5.13147e-09
0.0279508 -2.4484e-07 -6.00114e-08
0.0279508 -2.89417e-07 -1.05838e-07
0.018 -1.94972e-06 -1.71074e-06
0.0180029 -0.0069394 -0.00188566
0.0207024 -0.0187771 -0.00491196
0.0206097 -0.0246316 -0.0063186
0.0160157 -0.0267172 -0.00758912
-1.59065e-06 -0.0139329 -0.00429785
9.80088e-05 2.70323e-05 9.10244e-07
-3.39984e-05 3.54012e-05 0.000632715
0.0066793 0.00422633 0.00137184
0.0137612 0.00966187 0.00131557
0.0172141 0.0106054 0.000894024
0.0189241 0.00961854 0.000336278
0.0205795 0.00788164 -0.000143534
0.0222811 0.00591659 -0.000367775
0.0238461 0.00419199 -0.000375094
0.0251832 0.00283023 -0.000274441
0.026265 0.00183685 -0.000149285
0.0270937 0.00115821 -4.50353e-05
0.0276963 0.00071215 2.10494e-05
0.0281178 0.000422959 5.06231e-05
0.0284062 0.000237185 5.50385e-05
0.0286018 0.000120694 4.68196e-05
0.0287336 5.09691e-05 3.49059e-05
0.0288219 1.21074e-05 2.39258e-05
0.0288805 -7.33729e-06 1.54714e-05
0.0289188 -1.53282e-05 9.58288e-06
0.0289437 -1.70898e-05 5.73744e-06
0.0289596 -1.58303e-05 3.33765e-06
0.0289696 -1.3385e-05 1.89097e-06
0.0289759 -1.07195e-05 1.04334e-06
0.0289799 -8.28465e-06 5.59114e-07
0.0289823 -6.24647e-06 2.89121e-07
0.0289838 -4.62666e-06 1.42369e-07
0.0289848 -3.3823e-06 6.49151e-08
0.0289854 -2.44855e-06 2.5546e-08
0.0289857 -1.75961e-06 6.59175e-09
0.028986 -1.25763e-06 -1.74301e-09
0.0289861 -8.9534e-07 -4.76937e-09
0.0289862 -6.3587e-07 -5.29463e-09
0.0289863 -4.51287e-07 -4.7541e-09
0.0289863 -3.20909e-07 -3.84949e-09
0.0289864 -2.29713e-07 -2.9043e-09
0.0289864 -1.67031e-07 -2.04026e-09
0.0289864 -1.25696e-07 -1.26278e-09
0.0289864 -1.01499e-07 -5.68069e-10
0.0289864 -9.24343e-08 -2.98378e-11
0.0289864 -9.74573e-08 -1.25557e-10
0.0289864 -1.13927e-07 -3.06207e-09
0.0289864 -1.38986e-07 -2.19551e-08
0.0289864 -1.62815e-07 -8.1833e-08
0.0289863 -1.72148e-07 -1.25456e-07
0.0196 -2.79884e-06 -2.59042e-06
0.019601 -0.00581466 -0.00274451
0.0190695 -0.0129749 -0.00645474
0.0160009 -0.0159308 -0.00666296
0.0109971 -0.0148986 -0.00668228
0.00179593 -0.00613088 -0.00501321
7.31692e-05 -6.72068e-05 -0.00128116
3.32084e-05 -3.32084e-05 -3.97995e-08
-3.33516e-05 3.46452e-05 0.000238786
0.00408785 0.0029685 0.000503673
0.00942984 0.00698596 0.000430802
0.0123483 0.00731294 8.79983e-05
0.0155921 0.00559787 -0.000277782
0.0187441 0.00378927 -0.00041226
0.0214422 0.00235352 -0.0003892
0.0236276 0.00130507 -0.000301426
0.0253386 0.000616326 -0.000193405
0.0266211 0.000222259 -9.04698e-05
0.0275323 2.51836e-05 -1.31384e-05
0.0281488 -6.28814e-05 2.97977e-05
0.0285512 -9.6734e-05 4.37437e-05
0.0288077 -0.000103647 4.06811e-05
0.0289686 -9.67341e-05 3.11512e-05
0.0290679 -8.32594e-05 2.12745e-05
0.0291282 -6.77475e-05 1.34543e-05
0.0291642 -5.29004e-05 8.04228e-06
0.0291853 -4.00619e-05 4.59505e-06
0.0291974 -2.96588e-05 2.52223e-06
0.0292043 -2.15941e-05 1.32971e-06
0.029208 -1.5533e-05 6.68909e-07
0.02921 -1.10763e-05 3.15626e-07
0.029211 -7.84975e-06 1.33956e-07
0.0292115 -5.53931e-06 4.49942e-08
0.0292117 -3.89747e-06 4.46956e-09
0.0292118 -2.73697e-06 -1.17187e-08
0.0292118 -1.91971e-06 -1.63101e-08
0.0292118 -1.34567e-06 -1.58227e-08
0.0292117 -9.43275e-07 -1.34572e-08
0.0292117 -6.61698e-07 -1.06935e-08
0.0292117 -4.65097e-07 -8.14677e-09
0.0292117 -3.28314e-07 -6.01747e-09
0.0292117 -2.33811e-07 -4.33391e-09
0.0292117 -1.69513e-07 -3.06947e-09
0.0292116 -1.27169e-07 -2.23396e-09
0.0292116 -1.00925e-07 -2.00372e-09
0.0292116 -8.58738e-08 -2.6173e-09
0.0292116 -7.73167e-08 -4.67111e-09
0.0292116 -6.94356e-08 -9.8376e-09
0.0292115 -5.43403e-08 -3.16637e-08
0.0292115 -2.07817e-08 -8.91163e-08
0.0292113 2.3355e-09 -1.28409e-07
0.0196 -1.33848e-06 -3.58763e-06
0.0195999 -0.00363609 -0.00311697
0.0188186 -0.00793508 -0.00648983
0.0175799 -0.00788137 -0.00605533
0.0133117 -0.00403591 -0.00556682
0.0092218 0.00275673 -0.0052843
0.00618937 0.00321159 -0.00302995
7.33147e-05 -6.1099e-05 -0.000633752
2.77474e-05 -2.77474e-05 -1.27748e-07
-3.27552e-05 3.3948e-05 8.28976e-05
0.00293901 0.0022408 0.000343294
0.00741002 0.00357739 0.00027084
0.0127612 0.00180869 -0.000112187
0.0174202 0.000446017 -0.000276373
0.0209975 -0.000346075 -0.000304111
0.0236265 -0.000796228 -0.000283931
0.0255261 -0.000978778 -0.000234321
0.0268578 -0.000945874 -0.000159396
0.0277426 -0.000792168 -8.15045e-05
0.0282951 -0.000609675 -2.43363e-05
0.0286213 -0.000448573 5.40901e-06
0.028805 -0.000322518 1.4868e-05
0.0289041 -0.000228655 1.41259e-05
0.028955 -0.000160298 1.01787e-05
0.0289795 -0.000111269 6.31874e-06
0.0289902 -7.66038e-05 3.53126e-06
0.0289938 -5.24234e-05 1.79915e-06
0.0289943 -3.57455e-05 8.25146e-07
0.0289934 -2.43368e-05 3.20794e-07
0.0289921 -1.65726e-05 8.11396e-08
0.0289908 -1.13013e-05 -2.00757e-08
0.0289898 -7.72334e-06 -5.39873e-08
0.0289889 -5.29166e-06 -5.80213e-08
0.0289882 -3.63532e-06 -5.06501e-08
0.0289877 -2.504e-06 -4.03433e-08
0.0289874 -1.72908e-06 -3.05822e-08
0.0289871 -1.19685e-06 -2.25113e-08
0.0289869 -8.30461e-07 -1.62678e-08
0.0289868 -5.77826e-07 -1.16157e-08
0.0289867 -4.03516e-07 -8.22729e-09
0.0289866 -2.83365e-07 -5.80209e-09
0.0289865 -2.0081e-07 -4.1256e-09
0.0289865 -1.44337e-07 -3.08871e-09
0.0289865 -1.05627e-07 -2.68956e-09
0.0289864 -7.82329e-08 -3.07926e-09
0.0289864 -5.65319e-08 -4.29205e-09
0.0289864 -3.49533e-08 -6.67612e-09
0.0289863 -6.45201e-09 -1.15809e-08
0.0289863 4.19526e-08 -3.02603e-08
0.0289862 1.24449e-07 -8.06716e-08
0.0289861 1.75582e-07 -1.15726e-07
0.018 -8.63641e-07 -3.56609e-06
0.0180009 -0.00196814 -0.00303925
0.0183387 -0.00374653 -0.00613652
0.0184347 -0.00245343 -0.00529457
0.0174691 0.000863198 -0.00424651
0.0172253 0.00723792 -0.00396843
0.017954 0.0126356 -0.00291827
0.0110512 0.00693509 -0.00141577
7.4845e-05 -4.73529e-05 -0.00041291
-2.57995e-05 -5.4995e-05 5.53699e-07
7.85526e-06 -0.000548584 0.000747407
0.00852576 -0.00255355 0.00110556
0.0160518 -0.00425168 0.000520544
0.0211468 -0.00418109 0.000248962
0.0242985 -0.00354295 0.000114485
0.0261626 -0.00291377 -1.14743e-05
0.027227 -0.00235275 -0.000120396
0.0278003 -0.00181344 -0.000164162
0.0280723 -0.00131507 -0.000142924
0.0281688 -0.000905335 -9.50911e-05
0.0281745 -0.000602767 -5.25992e-05
0.0281421 -0.000394323 -2.56924e-05
0.0281 -0.000255877 -1.17331e-05
0.028061 -0.000165504 -5.3509e-06
0.0280296 -0.000107015 -2.61906e-06
0.028006 -6.93363e-05 -1.4425e-06
0.0279891 -4.51069e-05 -8.86807e-07
0.0279771 -2.95124e-05 -5.81833e-07
0.0279689 -1.94406e-05 -3.90694e-07
0.0279632 -1.28992e-05 -2.62223e-07
0.0279593 -8.62068e-06 -1.74271e-07
0.0279566 -5.80044e-06 -1.14476e-07
0.0279548 -3.92681e-06 -7.44404e-08
0.0279535 -2.67274e-06 -4.80512e-08
0.0279526 -1.82765e-06 -3.08827e-08
0.027952 -1.25479e-06 -1.98199e-08
0.0279516 -8.6454e-07 -1.27354e-08
0.0279513 -5.97625e-07 -8.21376e-09
0.0279511 -4.14524e-07 -5.33316e-09
0.027951 -2.88662e-07 -3.50568e-09
0.0279509 -2.01991e-07 -2.37113e-09
0.0279508 -1.42063e-07 -1.73461e-09
0.0279508 -1.00062e-07 -1.51199e-09
0.0279507 -6.94286e-08 -1.68187e-09
0.0279507 -4.48541e-08 -2.32076e-09
0.0279507 -2.13769e-08 -3.35769e-09
0.0279506 6.58079e-09 -4.99713e-09
0.0279506 4.64632e-08 -8.25592e-09
0.0279506 1.14081e-07 -1.96644e-08
0.0279506 2.23473e-07 -5.93037e-08
0.0279506 2.89279e-07 -8.97464e-08
0.0148 -4.84985e-07 -3.15773e-06
0.0148015 -0.00100451 -0.00281335
0.0162544 -0.00154298 -0.0054056
0.0178842 0.00014423 -0.00431534
0.0193104 0.00337256 -0.00314269
0.0211366 0.00747126 -0.00290352
0.0249557 0.0129687 -0.00239988
0.0282327 0.019557 -0.00145909
0.0231793 0.0113702 -0.000303098
0.0236082 1.96702e-10 0.00063483
0.0267717 -0.00665402 0.00156573
0.0304163 -0.013042 0.00211812
0.0314676 -0.01111 0.00167388
0.030951 -0.00792409 0.00123706
0.029848 -0.00533494 0.000809725
0.028672 -0.00356118 0.000382541
0.0276345 -0.00237634 3.00129e-05
0.026803 -0.0015581 -0.000162482
0.0261782 -0.000989564 -0.000200262
0.0257302 -0.000610921 -0.000157028
0.0254198 -0.000372238 -9.89024e-05
0.0252103 -0.000227219 -5.47154e-05
0.0250718 -0.000140168 -2.79559e-05
0.0249817 -8.76595e-05 -1.36159e-05
0.0249236 -5.55923e-05 -6.4521e-06
0.0248864 -3.57285e-05 -3.01185e-06
0.0248626 -2.32484e-05 -1.3926e-06
0.0248472 -1.52992e-05 -6.36537e-07
0.0248373 -1.01691e-05 -2.8415e-07
0.0248308 -6.81766e-06 -1.2016e-07
0.0248265 -4.60398e-06 -4.44965e-08
0.0248237 -3.12777e-06 -1.05065e-08
0.0248217 -2.13534e-06 3.77735e-09
0.0248204 -1.46365e-06 8.82997e-09
0.0248196 -1.00657e-06 9.69855e-09
0.024819 -6.94149e-07 8.82032e-09
0.0248186 -4.7988e-07 7.35575e-09
0.0248183 -3.32534e-07 5.83348e-09
0.0248181 -2.30988e-07 4.46901e-09
0.0248179 -1.60831e-07 3.3249e-09
0.0248178 -1.12115e-07 2.3908e-09
0.0248178 -7.78407e-08 1.61982e-09
0.0248177 -5.29009e-08 9.53359e-10
0.0248177 -3.33008e-08 3.37369e-10
0.0248177 -1.55201e-08 -3.11452e-10
0.0248177 4.04974e-09 -9.3068e-10
0.0248176 2.99915e-08 -1.55766e-09
0.0248176 6.80585e-08 -2.82133e-09
0.0248177 1.29575e-07 -7.3147e-09
0.0248177 2.22949e-07 -3.64577e-08
0.0248178 2.77656e-07 -6.2025e-08
0.01 -9.25847e-07 -2.85327e-06
0.0100008 -0.000617745 -0.0022929
0.0113568 -0.000659627 -0.00414167
0.0133114 0.000636773 -0.00295726