# vtk DataFile Version 2.0
Tobias Weinzierl: CPU, Manycore and Cluster Computing
ASCII

DATASET STRUCTURED_POINTS
DIMENSIONS  51 11 6

ORIGIN 0 0 0 

SPACING 0.1 0.1 0.1 

POINT_DATA 3366

VECTORS velocity float
0 0 0
5.05164e-12 0 0
9.74438e-09 0 0
6.2098e-10 0 0
-4.79007e-08 0 0
-1.49649e-08 0 0
-9.62684e-09 0 0
-1.09478e-08 0 0
-9.90646e-09 0 0
-5.43566e-09 0 0
-2.103e-09 0 0
-6.17433e-09 0 0
-1.70116e-08 0 0
-2.80876e-08 0 0
-3.41298e-08 0 0
-3.51675e-08 0 0
-3.42248e-08 0 0
-3.36913e-08 0 0
-3.42347e-08 0 0
-3.55078e-08 0 0
-3.69749e-08 0 0
-3.828e-08 0 0
-3.92818e-08 0 0
-3.99765e-08 0 0
-4.042e-08 0 0
-4.06815e-08 0 0
-4.08217e-08 0 0
-4.08866e-08 0 0
-4.09079e-08 0 0
-4.09063e-08 0 0
-4.08942e-08 0 0
-4.08786e-08 0 0
-4.08632e-08 0 0
-4.08496e-08 0 0
-4.08384e-08 0 0
-4.08295e-08 0 0
-4.08227e-08 0 0
-4.08175e-08 0 0
-4.08137e-08 0 0
-4.08109e-08 0 0
-4.08088e-08 0 0
-4.08073e-08 0 0
-4.08063e-08 0 0
-4.08056e-08 0 0
-4.08051e-08 0 0
-4.08049e-08 0 0
-4.08049e-08 0 0
-4.08053e-08 0 0
-4.08061e-08 0 0
-4.08086e-08 0 0
0.00208007 0 0
0 3.90944e-07 0
5.26574e-12 -9.50148e-09 0
1.72399e-08 -1.52671e-08 0
7.74503e-09 1.53213e-09 0
-5.99313e-08 -1.89149e-08 0
-5.51592e-09 -2.12106e-08 0
-6.14374e-09 2.46174e-08 0
-1.80059e-08 3.70631e-08 0
-2.18321e-08 2.84791e-08 0
-1.82273e-08 1.69847e-08 0
-1.33178e-08 1.27693e-08 0
-1.79552e-08 1.66567e-08 0
-3.41468e-08 1.93697e-08 0
-5.17334e-08 1.51291e-08 0
-6.13263e-08 7.25374e-09 0
-6.35849e-08 1.528e-09 0
-6.4343e-08 -2.43626e-10 0
-6.72427e-08 3.29459e-10 0
-7.23838e-08 1.31457e-09 0
-7.83346e-08 1.82953e-09 0
-8.37981e-08 1.81696e-09 0
-8.81323e-08 1.50464e-09 0
-9.12346e-08 1.10539e-09 0
-9.32836e-08 7.40231e-10 0
-9.45437e-08 4.55123e-10 0
-9.52631e-08 2.53971e-10 0
-9.56366e-08 1.22954e-10 0
-9.58027e-08 4.39033e-11 0
-9.58526e-08 2.94684e-13 0
-9.58434e-08 -2.07728e-11 0
-9.58082e-08 -2.84795e-11 0
-9.57654e-08 -2.89151e-11 0
-9.57242e-08 -2.58703e-11 0
-9.56885e-08 -2.15516e-11 0
-9.56594e-08 -1.714e-11 0
-9.56365e-08 -1.31921e-11 0
-9.5619e-08 -9.90751e-12 0
-9.56059e-08 -7.29836e-12 0
-9.55962e-08 -5.29012e-12 0
-9.55891e-08 -3.77787e-12 0
-9.55839e-08 -2.65519e-12 0
-9.55802e-08 -1.82685e-12 0
-9.55776e-08 -1.21222e-12 0
-9.55758e-08 -7.43532e-13 0
-9.55747e-08 -3.61707e-13 0
-9.55742e-08 -2.06205e-15 0
-9.55745e-08 4.15093e-13 0
-9.55757e-08 1.03255e-12 0
-9.55783e-08 2.71634e-12 0
-9.55847e-08 7.60706e-12 0
0.00591203 -6.2738e-08 0
0 -2.29085e-08 0
2.13308e-12 -8.05384e-09 0
2.13427e-08 -2.56165e-08 0
3.58196e-08 -4.48052e-08 0
1.19993e-08 -9.53058e-08 0
6.12189e-08 -7.58691e-08 0
3.40978e-08 2.96257e-09 0
-2.65188e-09 1.74405e-08 0
-3.38117e-08 1.1904e-08 0
-4.02753e-08 1.15441e-08 0
-3.29389e-08 1.25258e-08 0
-2.97856e-08 1.12062e-08 0
-4.01344e-08 9.86086e-09 0
-5.46883e-08 1.14855e-08 0
-6.17059e-08 1.55282e-08 0
-6.14394e-08 1.90964e-08 0
-6.01677e-08 2.02294e-08 0
-6.18573e-08 1.89104e-08 0
-6.65847e-08 1.60434e-08 0
-7.26156e-08 1.25772e-08 0
-7.831e-08 9.21313e-09 0
-8.28142e-08 6.35232e-09 0
-8.59614e-08 4.13775e-09 0
-8.79515e-08 2.54356e-09 0
-8.90953e-08 1.46323e-09 0
-8.96815e-08 7.70291e-10 0
-8.99305e-08 3.49983e-10 0
-8.99923e-08 1.10992e-10 0
-8.99611e-08 -1.35448e-11 0
-8.98916e-08 -6.96469e-11 0
-8.98134e-08 -8.73619e-11 0
-8.97407e-08 -8.53472e-11 0
-8.9679e-08 -7.45841e-11 0
-8.96295e-08 -6.11346e-11 0
-8.95912e-08 -4.80605e-11 0
-8.95622e-08 -3.6688e-11 0
-8.95406e-08 -2.74022e-11 0
-8.95248e-08 -2.01223e-11 0
-8.95132e-08 -1.45714e-11 0
-8.95049e-08 -1.04187e-11 0
-8.94989e-08 -7.3487e-12 0
-8.94946e-08 -5.08727e-12 0
-8.94916e-08 -3.40578e-12 0
-8.94896e-08 -2.11009e-12 0
-8.94883e-08 -1.02199e-12 0
-8.94879e-08 6.07968e-14 0
-8.94883e-08 1.50532e-12 0
-8.94897e-08 3.96434e-12 0
-8.9492e-08 8.12154e-12 0
-8.94971e-08 1.45136e-11 0
0.00832068 -1.27387e-07 0
0 -6.42452e-07 0
7.87638e-12 -1.25121e-08 0
2.59308e-08 -4.26125e-08 0
4.74332e-08 -8.01061e-08 0
1.55657e-08 -1.06905e-07 0
5.17698e-08 -5.69275e-08 0
3.06187e-08 -4.07489e-11 0
4.4063e-09 -6.02625e-09 0
-4.47763e-08 -2.34282e-08 0
-5.76921e-08 -4.04712e-08 0
-5.02525e-08 -4.72446e-08 0
-5.21933e-08 -4.00309e-08 0
-6.72831e-08 -1.6466e-08 0
-8.36023e-08 1.14763e-08 0
-8.82781e-08 3.00015e-08 0
-8.13452e-08 3.59183e-08 0
-6.96921e-08 3.35404e-08 0
-5.97143e-08 2.79266e-08 0
-5.40297e-08 2.17794e-08 0
-5.20472e-08 1.60753e-08 0
-5.20518e-08 1.11926e-08 0
-5.26547e-08 7.30911e-09 0
-5.31617e-08 4.44025e-09 0
-5.33817e-08 2.46637e-09 0
-5.33556e-08 1.19893e-09 0
-5.31842e-08 4.42053e-10 0
-5.29551e-08 2.79118e-11 0
-5.27242e-08 -1.7119e-10 0
-5.25198e-08 -2.44522e-10 0
-5.23522e-08 -2.50327e-10 0
-5.22213e-08 -2.24257e-10 0
-5.21223e-08 -1.86698e-10 0
-5.20492e-08 -1.48357e-10 0
-5.1996e-08 -1.14166e-10 0
-5.19578e-08 -8.58303e-11 0
-5.19306e-08 -6.34046e-11 0
-5.19112e-08 -4.62031e-11 0
-5.18975e-08 -3.32991e-11 0
-5.18877e-08 -2.37728e-11 0
-5.18809e-08 -1.68171e-11 0
-5.1876e-08 -1.17686e-11 0
-5.18725e-08 -8.09946e-12 0
-5.18701e-08 -5.3932e-12 0
-5.18684e-08 -3.31111e-12 0
-5.18674e-08 -1.53902e-12 0
-5.18668e-08 2.67014e-13 0
-5.18666e-08 2.4284e-12 0
-5.18666e-08 5.11977e-12 0
-5.18661e-08 8.45999e-12 0
-5.18669e-08 1.2739e-11 0
0.009182 -1.25332e-07 0
0 -1.24239e-06 0
-1.33016e-12 -2.19127e-08 0
1.11887e-08 -5.85675e-08 0
1.26823e-08 -7.42921e-08 0
-2.02084e-08 -5.79055e-08 0
-1.47857e-11 -2.02908e-08 0
-3.06256e-10 -3.51235e-10 0
3.19368e-10 -3.46232e-10 0
-2.28903e-08 -2.42849e-08 0
-6.53272e-08 -6.42397e-08 0
-7.72766e-08 -7.71866e-08 0
-8.39424e-08 -5.82245e-08 0
-9.86143e-08 -1.93903e-08 0
-1.10562e-07 1.82559e-08 0
-1.12739e-07 3.72448e-08 0
-1.03586e-07 3.81382e-08 0
-8.61814e-08 3.0309e-08 0
-6.72683e-08 2.16051e-08 0
-5.22801e-08 1.47422e-08 0
-4.26187e-08 9.62384e-09 0
-3.70423e-08 5.77153e-09 0
-3.3843e-08 2.96083e-09 0
-3.18502e-08 1.06652e-09 0
-3.04736e-08 -7.43146e-11 0
-2.94617e-08 -6.61051e-10 0
-2.87074e-08 -8.84466e-10 0
-2.81524e-08 -8.96437e-10 0
-2.7753e-08 -8.0267e-10 0
-2.7472e-08 -6.68995e-10 0
-2.7278e-08 -5.32081e-10 0
-2.7146e-08 -4.09572e-10 0
-2.70573e-08 -3.07854e-10 0
-2.69979e-08 -2.27319e-10 0
-2.69584e-08 -1.65592e-10 0
-2.6932e-08 -1.19369e-10 0
-2.69144e-08 -8.53401e-11 0
-2.69025e-08 -6.06065e-11 0
-2.68944e-08 -4.27993e-11 0
-2.68889e-08 -3.00665e-11 0
-2.68851e-08 -2.10013e-11 0
-2.68824e-08 -1.45535e-11 0
-2.68805e-08 -9.94636e-12 0
-2.68791e-08 -6.60081e-12 0
-2.6878e-08 -4.0751e-12 0
-2.68772e-08 -2.04159e-12 0
-2.68764e-08 -2.9523e-13 0
-2.68753e-08 1.2589e-12 0
-2.6874e-08 2.69566e-12 0
-2.68719e-08 4.27298e-12 0
-2.68709e-08 6.61763e-12 0
0.00943746 -7.12155e-08 0
0 -1.11673e-06 0
-1.55941e-11 -2.33454e-08 0
-2.96371e-09 -4.88e-08 0
-9.32434e-09 -5.85468e-08 0
-3.79587e-08 -6.59617e-08 0
-2.99475e-08 -3.28755e-08 0
-3.15013e-10 3.05598e-10 0
1.37646e-11 -1.37646e-11 0
3.02868e-10 -3.35871e-10 0
-3.51187e-08 -3.47737e-08 0
-8.87464e-08 -8.02736e-08 0
-9.15289e-08 -6.97041e-08 0
-9.52708e-08 -2.11163e-08 0
-1.00213e-07 2.34205e-08 0
-1.06991e-07 4.33002e-08 0
-1.08034e-07 3.92101e-08 0
-9.63223e-08 2.46711e-08 0
-7.5998e-08 1.15693e-08 0
-5.60547e-08 3.4941e-09 0
-4.14857e-08 -7.52456e-10 0
-3.24461e-08 -2.85502e-09 0
-2.7209e-08 -3.74958e-09 0
-2.41753e-08 -3.89468e-09 0
-2.23594e-08 -3.58718e-09 0
-2.12378e-08 -3.05588e-09 0
-2.05356e-08 -2.4638e-09 0
-2.00977e-08 -1.90845e-09 0
-1.98288e-08 -1.43535e-09 0
-1.9667e-08 -1.0563e-09 0
-1.95722e-08 -7.64986e-10 0
-1.9518e-08 -5.47519e-10 0
-1.94881e-08 -3.88509e-10 0
-1.9472e-08 -2.73949e-10 0
-1.94639e-08 -1.92283e-10 0
-1.94599e-08 -1.34505e-10 0
-1.94582e-08 -9.38461e-11 0
-1.94576e-08 -6.53412e-11 0
-1.94574e-08 -4.54073e-11 0
-1.94574e-08 -3.14875e-11 0
-1.94574e-08 -2.17699e-11 0
-1.94573e-08 -1.49756e-11 0
-1.94572e-08 -1.0204e-11 0
-1.9457e-08 -6.82797e-12 0
-1.94567e-08 -4.4257e-12 0
-1.94562e-08 -2.72576e-12 0
-1.94554e-08 -1.54692e-12 0
-1.94544e-08 -7.73541e-13 0
-1.94532e-08 -3.6517e-13 0
-1.94514e-08 -2.15433e-13 0
-1.94506e-08 2.02209e-13 0
0.00948834 4.01505e-09 0
0 -7.76212e-07 0
-9.23798e-12 -1.62528e-08 0
-3.65645e-09 -4.06566e-08 0
-9.63201e-09 -5.04003e-08 0
-5.26139e-08 -4.62147e-08 0
-7.19713e-08 -2.44277e-08 0
-2.64496e-08 -4.20701e-09 0
-3.1024e-10 3.00958e-10 0
1.90409e-12 -1.90409e-12 0
2.79797e-10 -3.25941e-10 0
-3.9998e-08 -4.52021e-08 0
-5.98729e-08 -6.90619e-08 0
-6.33218e-08 -1.73374e-08 0
-6.18273e-08 3.26904e-08 0
-7.04687e-08 5.37964e-08 0
-8.48014e-08 4.45165e-08 0
-8.7851e-08 2.18757e-08 0
-7.56306e-08 2.75586e-09 0
-5.77776e-08 -7.50489e-09 0
-4.30909e-08 -1.11109e-08 0
-3.4013e-08 -1.12612e-08 0
-2.93268e-08 -9.92948e-09 0
-2.72153e-08 -8.10468e-09 0
-2.63972e-08 -6.27686e-09 0
-2.61682e-08 -4.67825e-09 0
-2.61838e-08 -3.38998e-09 0
-2.62861e-08 -2.4074e-09 0
-2.64061e-08 -1.68597e-09 0
-2.65164e-08 -1.16995e-09 0
-2.66079e-08 -8.07297e-10 0
-2.66798e-08 -5.55317e-10 0
-2.67344e-08 -3.81445e-10 0
-2.6775e-08 -2.61925e-10 0
-2.68047e-08 -1.79907e-10 0
-2.68261e-08 -1.23645e-10 0
-2.68414e-08 -8.50323e-11 0
-2.68521e-08 -5.85079e-11 0
-2.68597e-08 -4.02663e-11 0
-2.68649e-08 -2.77048e-11 0
-2.68684e-08 -1.90427e-11 0
-2.68707e-08 -1.30635e-11 0
-2.68723e-08 -8.93956e-12 0
-2.68731e-08 -6.11226e-12 0
-2.68736e-08 -4.20766e-12 0
-2.68737e-08 -2.98441e-12 0
-2.68735e-08 -2.3052e-12 0
-2.68731e-08 -2.1324e-12 0
-2.68726e-08 -2.59054e-12 0
-2.68717e-08 -3.9343e-12 0
-2.68714e-08 -5.99398e-12 0
0.00943743 7.71365e-08 0
0 -5.44913e-07 0
-8.80543e-13 -1.26125e-08 0
-2.91066e-09 -3.08666e-08 0
-1.56467e-08 -3.77335e-08 0
-5.49922e-08 -2.97124e-08 0
-8.51932e-08 -1.00749e-08 0
-6.78895e-08 -2.45861e-09 0
-3.3093e-08 -2.6182e-09 0
-3.23915e-10 2.78004e-10 0
2.72738e-10 2.69164e-10 0
1.62302e-12 -2.29447e-08 0
-4.31888e-08 -3.22497e-08 0
-6.37359e-08 3.70095e-09 0
-4.88368e-08 4.04725e-08 0
-3.13869e-08 5.43342e-08 0
-3.75714e-08 4.22172e-08 0
-5.38841e-08 1.81181e-08 0
-6.03539e-08 -2.10596e-09 0
-5.63899e-08 -1.25207e-08 0
-5.02102e-08 -1.52222e-08 0
-4.64892e-08 -1.39753e-08 0
-4.55292e-08 -1.13278e-08 0
-4.61447e-08 -8.55228e-09 0
-4.73067e-08 -6.17007e-09 0
-4.84692e-08 -4.32102e-09 0
-4.94296e-08 -2.97004e-09 0
-5.01554e-08 -2.01972e-09 0
-5.06791e-08 -1.36652e-09 0
-5.10473e-08 -9.23333e-10 0
-5.13028e-08 -6.24458e-10 0
-5.14789e-08 -4.23224e-10 0
-5.16e-08 -2.87584e-10 0
-5.1683e-08 -1.95927e-10 0
-5.17401e-08 -1.33799e-10 0
-5.17793e-08 -9.15547e-11 0
-5.18062e-08 -6.27465e-11 0
-5.18246e-08 -4.30513e-11 0
-5.18372e-08 -2.95581e-11 0
-5.18458e-08 -2.03001e-11 0
-5.18516e-08 -1.39443e-11 0
-5.18555e-08 -9.5866e-12 0
-5.18581e-08 -6.61414e-12 0
-5.18598e-08 -4.61586e-12 0
-5.18608e-08 -3.32623e-12 0
-5.18615e-08 -2.59508e-12 0
-5.18618e-08 -2.37857e-12 0
-5.1862e-08 -2.7337e-12 0
-5.18623e-08 -3.91195e-12 0
-5.18624e-08 -6.64942e-12 0
-5.18635e-08 -1.15318e-11 0
0.00918195 1.24404e-07 0
0 -4.66563e-07 0
2.97979e-12 -7.20194e-09 0
-3.41347e-09 -1.95402e-08 0
-2.46622e-08 -2.644e-08 0
-6.6765e-08 -2.14775e-08 0
-9.79569e-08 -1.14582e-09 0
-8.91305e-08 7.62524e-09 0
-7.23113e-08 -2.034e-08 0
-4.47789e-08 -2.17354e-08 0
-3.93694e-08 8.50857e-14 0
-4.30119e-08 4.20866e-09 0
-8.37946e-08 1.85493e-08 0
-1.07868e-07 3.08708e-08 0
-7.50579e-08 2.98954e-08 0
-2.52528e-08 2.17262e-08 0
-1.51593e-08 1.16241e-08 0
-3.94841e-08 2.43087e-09 0
-6.34664e-08 -3.98371e-09 0
-7.39244e-08 -6.97958e-09 0
-7.65572e-08 -7.39586e-09 0
-7.77272e-08 -6.52047e-09 0
-7.94677e-08 -5.23734e-09 0
-8.16094e-08 -3.97618e-09 0
-8.36524e-08 -2.9075e-09 0
-8.53293e-08 -2.07353e-09 0
-8.65915e-08 -1.45572e-09 0
-8.74955e-08 -1.01282e-09 0
-8.81252e-08 -7.01404e-10 0
-8.85574e-08 -4.84738e-10 0
-8.88523e-08 -3.34753e-10 0
-8.9053e-08 -2.31135e-10 0
-8.91897e-08 -1.59589e-10 0
-8.92829e-08 -1.10185e-10 0
-8.93467e-08 -7.60626e-11 0
-8.93902e-08 -5.24919e-11 0
-8.94201e-08 -3.62096e-11 0
-8.94405e-08 -2.49638e-11 0
-8.94544e-08 -1.71998e-11 0
-8.94639e-08 -1.18445e-11 0
-8.94703e-08 -8.15743e-12 0
-8.94746e-08 -5.62998e-12 0
-8.94775e-08 -3.9161e-12 0
-8.94794e-08 -2.78752e-12 0
-8.94807e-08 -2.10593e-12 0
-8.94816e-08 -1.80868e-12 0
-8.94824e-08 -1.91897e-12 0
-8.94832e-08 -2.56005e-12 0
-8.94843e-08 -4.01297e-12 0
-8.9486e-08 -7.21092e-12 0
-8.94902e-08 -1.34126e-11 0
0.00832065 1.17008e-07 0
0 -4.84259e-07 0
1.03548e-11 -2.17915e-09 0
-4.69016e-09 -7.51546e-09 0
-3.08454e-08 -1.15574e-08 0
-7.14203e-08 -9.97921e-09 0
-1.01393e-07 -5.07645e-09 0
-9.59845e-08 -1.50252e-09 0
-8.20461e-08 -1.06193e-08 0
-9.51918e-08 -1.20288e-08 0
-8.83104e-08 6.04034e-09 0
-7.79442e-08 2.23308e-08 0
-7.62094e-08 3.0819e-08 0
-7.18345e-08 2.65262e-08 0
-4.34513e-08 1.10345e-08 0
-1.43611e-08 -7.42945e-09 0
-2.01011e-08 -1.84898e-08 0
-5.09974e-08 -1.73031e-08 0
-7.73365e-08 -9.15555e-09 0
-8.86182e-08 -2.03216e-09 0
-9.07945e-08 1.11608e-09 0
-9.05533e-08 1.50752e-09 0
-9.05685e-08 9.30243e-10 0
-9.11584e-08 3.2552e-10 0
-9.20166e-08 -4.76747e-11 0
-9.28724e-08 -2.12257e-10 0
-9.35975e-08 -2.50672e-10 0
-9.41611e-08 -2.29358e-10 0
-9.45782e-08 -1.87497e-10 0
-9.48783e-08 -1.44153e-10 0
-9.50904e-08 -1.06832e-10 0
-9.52389e-08 -7.73603e-11 0
-9.53422e-08 -5.51746e-11 0
-9.54139e-08 -3.89484e-11 0
-9.54633e-08 -2.72958e-11 0
-9.54975e-08 -1.90283e-11 0
-9.55209e-08 -1.3211e-11 0
-9.5537e-08 -9.14249e-12 0
-9.5548e-08 -6.31042e-12 0
-9.55555e-08 -4.34738e-12 0
-9.55605e-08 -2.99355e-12 0
-9.55639e-08 -2.06783e-12 0
-9.55661e-08 -1.44699e-12 0
-9.55676e-08 -1.0518e-12 0
-9.55686e-08 -8.38851e-13 0
-9.55695e-08 -7.97793e-13 0
-9.55703e-08 -9.62639e-13 0
-9.55714e-08 -1.42789e-12 0
-9.55732e-08 -2.33676e-12 0
-9.55763e-08 -4.06092e-12 0
-9.55832e-08 -7.51322e-12 0
0.00591206 5.10785e-08 0
0 0 0
7.42588e-12 0 0
-2.59965e-09 0 0
-1.54669e-08 0 0
-3.32481e-08 0 0
-4.65908e-08 0 0
-4.82987e-08 0 0
-4.28232e-08 0 0
-5.0436e-08 0 0
-4.8948e-08 0 0
-3.49307e-08 0 0
-1.75057e-08 0 0
-5.32135e-09 0 0
2.38619e-09 0 0
1.9536e-09 0 0
-1.04823e-08 0 0
-2.733e-08 0 0
-3.87316e-08 0 0
-4.26749e-08 0 0
-4.2482e-08 0 0
-4.12712e-08 0 0
-4.03621e-08 0 0
-3.99567e-08 0 0
-3.9897e-08 0 0
-4.00044e-08 0 0
-4.01642e-08 0 0
-4.03197e-08 0 0
-4.04497e-08 0 0
-4.05503e-08 0 0
-4.0625e-08 0 0
-4.06789e-08 0 0
-4.07172e-08 0 0
-4.07442e-08 0 0
-4.07629e-08 0 0
-4.07759e-08 0 0
-4.07849e-08 0 0
-4.0791e-08 0 0
-4.07952e-08 0 0
-4.0798e-08 0 0
-4.07999e-08 0 0
-4.08012e-08 0 0
-4.0802e-08 0 0
-4.08025e-08 0 0
-4.08029e-08 0 0
-4.08032e-08 0 0
-4.08036e-08 0 0
-4.08042e-08 0 0
-4.08051e-08 0 0
-4.08069e-08 0 0
-4.08106e-08 0 0
0.0020801 0 0
0 0 5.39998e-07
6.8018e-12 0 -2.42352e-10
1.99223e-08 0 1.46517e-08
1.8346e-08 0 5.61134e-08
-1.24982e-07 0 3.45014e-08
-4.42908e-08 0 -1.70626e-08
-1.91532e-08 0 -2.8634e-08
-3.17236e-09 0 -3.67828e-08
1.12269e-08 0 -3.39906e-08
2.79155e-08 0 -2.47875e-08
4.26203e-08 0 -1.203e-08
4.17396e-08 0 -1.74744e-09
2.1086e-08 0 2.54425e-09
-8.85559e-09 0 1.98975e-09
-3.42376e-08 0 -1.73223e-10
-4.9996e-08 0 -1.43223e-09
-5.94264e-08 0 -1.23186e-09
-6.69373e-08 0 -3.18835e-10
-7.43267e-08 0 5.02727e-10
-8.13859e-08 0 9.11438e-10
-8.74386e-08 0 9.55948e-10
-9.21151e-08 0 8.0298e-10
-9.54311e-08 0 5.91872e-10
-9.762e-08 0 3.98763e-10
-9.89736e-08 0 2.50711e-10
-9.97554e-08 0 1.48478e-10
-1.0017e-07 0 8.28418e-11
-1.00362e-07 0 4.30633e-11
-1.00428e-07 0 2.01878e-11
-1.00428e-07 0 7.74593e-12
-1.00398e-07 0 1.44123e-12
-1.00357e-07 0 -1.41929e-12
-1.00317e-07 0 -2.44843e-12
-1.00281e-07 0 -2.57253e-12
-1.00251e-07 0 -2.30056e-12
-1.00228e-07 0 -1.89736e-12
-1.0021e-07 0 -1.49039e-12
-1.00196e-07 0 -1.13297e-12
-1.00186e-07 0 -8.40614e-13
-1.00178e-07 0 -6.10849e-13
-1.00173e-07 0 -4.33743e-13
-1.00169e-07 0 -2.97107e-13
-1.00166e-07 0 -1.88321e-13
-1.00164e-07 0 -9.46692e-14
-1.00163e-07 0 -4.68234e-15
-1.00163e-07 0 9.59024e-14
-1.00163e-07 0 2.04145e-13
-1.00164e-07 0 2.55916e-13
-1.00166e-07 0 7.12095e-13
-1.00173e-07 0 3.64173e-12
0.00587336 0 -1.89362e-08
0.0036 -3.06405e-07 -6.03823e-08
0.00359981 -0.00133758 -5.64665e-07
0.00673696 -0.00382973 8.97426e-05
0.0135918 -0.00613736 -0.000788014
0.0237532 -0.0143683 -0.00453722
0.0461236 -0.0128485 -0.00493093
0.0495409 -0.00166368 -0.00168626
0.0492711 0.00281398 -0.000197973
0.0441993 0.00509728 0.000524092
0.0384932 0.00526138 0.000497068
0.0333244 0.00459953 0.00022543
0.0290392 0.00365941 -5.86666e-05
0.0256948 0.00266327 -0.000265325
0.0231898 0.00178239 -0.000348476
0.021359 0.00113065 -0.000314444
0.0200414 0.000714146 -0.000218564
0.0191077 0.000465675 -0.000121201
0.0184597 0.000313554 -5.27573e-05
0.0180214 0.0002129 -1.52207e-05
0.0177339 0.000142411 1.10643e-06
0.0175514 9.25933e-05 6.10094e-06
0.0174394 5.81648e-05 6.21832e-06
0.0173731 3.51777e-05 4.79601e-06
0.0173355 2.03858e-05 3.24843e-06
0.0173151 1.12123e-05 2.02968e-06
0.0173049 5.73536e-06 1.1938e-06
0.0173003 2.60117e-06 6.65339e-07
0.0172987 8.99394e-07 3.50027e-07
0.0172986 4.15792e-08 1.70801e-07
0.0172991 -3.39488e-07 7.36946e-08
0.0172999 -4.65216e-07 2.39817e-08
0.0173006 -4.64353e-07 5.03238e-10
0.0173013 -4.0867e-07 -9.10236e-09
0.0173018 -3.36038e-07 -1.17898e-08
0.0173022 -2.64885e-07 -1.13236e-08
0.0173026 -2.0295e-07 -9.64967e-09
0.0173028 -1.52423e-07 -7.7127e-09
0.017303 -1.12858e-07 -5.92602e-09
0.0173031 -8.27421e-08 -4.43458e-09
0.0173032 -6.03032e-08 -3.25762e-09
0.0173033 -4.38878e-08 -2.36544e-09
0.0173033 -3.21112e-08 -1.71975e-09
0.0173034 -2.38943e-08 -1.29059e-09
0.0173034 -1.84687e-08 -1.07168e-09
0.0173034 -1.53544e-08 -1.0571e-09
0.0173035 -1.4339e-08 -1.13564e-09
0.0173035 -1.56798e-08 -9.79651e-10
0.0173035 -1.97403e-08 1.83653e-09
0.0173036 -3.70695e-08 4.86166e-09
0.0173037 -1.1861e-07 -2.93129e-08
0.0173039 -1.85566e-07 -6.38997e-08
0.01 -1.4209e-07 -1.45841e-06
0.0100008 -0.00299099 -0.000561755
0.0148445 -0.00989287 -0.000742791
0.0241364 -0.0177325 -0.00142859
0.0382043 -0.0320508 -0.00347937
0.0585342 -0.0241068 -0.000810401
0.0558858 -0.00243552 0.0030162
0.0554299 0.00538774 0.00314924
0.0496875 0.0104464 0.00272027
0.0441949 0.0105906 0.00182299
0.0397016 0.00943553 0.000895906
0.0359933 0.00788146 0.000154703
0.0329812 0.00624297 -0.000354361
0.0306447 0.00471923 -0.000578923
0.0288828 0.00342979 -0.000546694
0.0275918 0.00241419 -0.000384685
0.0266772 0.00165475 -0.000215282
0.0260512 0.00110771 -9.54569e-05
0.0256376 0.000724253 -2.91063e-05
0.0253748 0.000461729 3.7005e-07
0.0252147 0.000286385 9.92871e-06
0.0251219 0.000172362 1.07272e-05
0.0250712 0.000100268 8.5969e-06
0.0250455 5.59911e-05 6.06021e-06
0.025034 2.96214e-05 3.97286e-06
0.02503 1.44477e-05 2.4836e-06
0.0250298 6.0726e-06 1.49978e-06
0.0250312 1.70141e-06 8.80923e-07
0.0250332 -3.92115e-07 5.0498e-07
0.025035 -1.24409e-06 2.8277e-07
0.0250366 -1.45774e-06 1.54484e-07
0.025038 -1.37208e-06 8.20333e-08
0.025039 -1.16944e-06 4.20198e-08
0.0250398 -9.42007e-07 2.04589e-08
0.0250403 -7.31944e-07 9.18125e-09
0.0250408 -5.54931e-07 3.51081e-09
0.0250411 -4.13499e-07 8.22912e-10
0.0250413 -3.04342e-07 -3.26432e-10
0.0250414 -2.22133e-07 -7.14086e-10
0.0250416 -1.61379e-07 -7.47363e-10
0.0250416 -1.17232e-07 -6.3612e-10
0.0250417 -8.57624e-08 -4.92903e-10
0.0250417 -6.3988e-08 -3.78333e-10
0.0250418 -4.98222e-08 -3.3047e-10
0.0250418 -4.21151e-08 -3.51306e-10
0.0250418 -4.06447e-08 -4.60104e-11
0.0250419 -4.78586e-08 1.20416e-09
0.0250419 -7.50488e-08 5.09455e-09
0.025042 -1.40909e-07 4.54355e-09
0.0250421 -2.76302e-07 -5.77461e-08
0.0250423 -3.66687e-07 -1.16531e-07
0.0148 -9.65541e-07 -1.7448e-06
0.0148024 -0.00527765 -0.00110939
0.0202794 -0.0162752 -0.00239277
0.0271855 -0.0283721 -0.00400641
0.0316993 -0.0453687 -0.00567745
0.0302127 -0.0280136 -0.00124657
0.0265805 -1.21192e-05 0.0032159
0.0261172 0.00719338 0.00332583
0.029916 0.0147862 0.00315337
0.0303752 0.0143531 0.00217706
0.0295416 0.0126204 0.00119147
0.0286184 0.01074 0.00033173
0.0278651 0.00864184 -0.000237529
0.0274943 0.00651488 -0.000476357
0.0273967 0.00465925 -0.000446325
0.0274366 0.00320262 -0.000296205
0.0275202 0.00213958 -0.000144145
0.0276006 0.00139793 -4.00338e-05
0.0276653 0.00089289 1.34382e-05
0.0277165 0.000554911 3.20441e-05
0.0277588 0.000333493 3.2488e-05
0.0277945 0.000192444 2.60735e-05
0.0278242 0.00010554 1.86228e-05
0.0278483 5.39701e-05 1.23958e-05
0.027867 2.46506e-05 7.86933e-06
0.0278811 8.83548e-06 4.82647e-06
0.0278914 9.05229e-07 2.88139e-06
0.0278988 -2.61639e-06 1.68158e-06
0.027904 -3.80215e-06 9.61484e-07
0.0279077 -3.84176e-06 5.38946e-07
0.0279102 -3.38911e-06 2.95892e-07
0.0279119 -2.7842e-06 1.58671e-07
0.0279131 -2.18989e-06 8.26492e-08
0.0279139 -1.67341e-06 4.13869e-08
0.0279145 -1.25321e-06 1.95261e-08
0.0279149 -9.25017e-07 8.29979e-09
0.0279152 -6.75637e-07 2.78521e-09
0.0279153 -4.89831e-07 2.64656e-10
0.0279155 -3.53454e-07 -7.34785e-10
0.0279156 -2.54618e-07 -9.9427e-10
0.0279156 -1.83905e-07 -9.18971e-10
0.0279157 -1.34177e-07 -7.17966e-10
0.0279157 -1.00291e-07 -4.91855e-10
0.0279157 -7.8828e-08 -2.47384e-10
0.0279158 -6.81412e-08 1.06386e-10
0.0279158 -6.95212e-08 9.25072e-10
0.0279158 -8.75536e-08 2.18337e-09
0.0279158 -1.29293e-07 2.44217e-09
0.0279159 -2.01446e-07 -1.14977e-08
0.0279159 -3.02332e-07 -9.25363e-08
0.0279159 -3.58906e-07 -1.60055e-07
0.018 -1.95926e-06 -1.72203e-06
0.0180029 -0.00688699 -0.00188773
0.0206366 -0.0185888 -0.00490095
0.0205108 -0.024352 -0.00632371
0.015965 -0.026486 -0.0075525
-1.56553e-06 -0.0138453 -0.00424306
9.84897e-05 2.77191e-05 8.94268e-07
-3.45788e-05 3.60536e-05 0.000607284
0.00676968 0.00433542 0.00130597
0.0139995 0.00993663 0.00123743
0.0174556 0.0109195 0.000811226
0.0191295 0.00984383 0.000250279
0.0207849 0.00791573 -0.000204173
0.0225115 0.00573863 -0.000383229
0.0241015 0.00389152 -0.000350587
0.0254402 0.00252022 -0.000228347
0.0264841 0.00158594 -0.000101071
0.0272431 0.00097915 -9.3916e-06
0.0277666 0.000590134 3.83136e-05
0.0281173 0.00034125 5.22746e-05
0.0283494 0.000184536 4.7746e-05
0.0285025 8.95162e-05 3.66159e-05
0.028603 3.51263e-05 2.53662e-05
0.0286684 6.36309e-06 1.64404e-05
0.0287106 -7.13808e-06 1.01649e-05
0.0287375 -1.21423e-05 6.06428e-06
0.0287544 -1.27993e-05 3.51414e-06
0.028765 -1.15001e-05 1.98482e-06
0.0287716 -9.531e-06 1.09373e-06
0.0287756 -7.52682e-06 5.87142e-07
0.0287781 -5.7595e-06 3.05625e-07
0.0287797 -4.3124e-06 1.52744e-07
0.0287806 -3.17927e-06 7.18279e-08
0.0287812 -2.31761e-06 3.03461e-08
0.0287816 -1.67553e-06 1.00021e-08
0.0287818 -1.20398e-06 6.99951e-10
0.028782 -8.61392e-07 -3.02352e-09
0.0287821 -6.14579e-07 -4.0609e-09
0.0287821 -4.38023e-07 -3.90226e-09
0.0287822 -3.12611e-07 -3.28685e-09
0.0287822 -2.24324e-07 -2.56387e-09
0.0287822 -1.63097e-07 -1.88574e-09
0.0287822 -1.21947e-07 -1.29828e-09
0.0287823 -9.65204e-08 -8.06689e-10
0.0287823 -8.476e-08 -4.56396e-10
0.0287823 -8.60858e-08 -4.47235e-10
0.0287823 -1.00097e-07 -1.81034e-09
0.0287823 -1.2434e-07 -6.76861e-09
0.0287823 -1.56558e-07 -3.14398e-08
0.0287822 -1.91206e-07 -1.17814e-07
0.0287821 -2.07795e-07 -1.83252e-07
0.0196 -2.78042e-06 -2.61315e-06
0.0196009 -0.00573029 -0.00274161
0.0190796 -0.0127992 -0.00643841
0.0160409 -0.0157054 -0.00666826
0.0110586 -0.014656 -0.00669285
0.00184796 -0.00602228 -0.0049707
7.3695e-05 -6.77081e-05 -0.00124679
3.31293e-05 -3.31293e-05 -3.96411e-08
-3.3885e-05 3.52727e-05 0.000221151
0.00422011 0.0031152 0.000463525
0.00975246 0.00730695 0.000390522
0.0126552 0.00756212 5.77585e-05
0.0158912 0.00561433 -0.000291601
0.0190399 0.0035767 -0.000409953
0.0217479 0.00202349 -0.00037837
0.0239411 0.00099593 -0.000279565
0.0256194 0.000410537 -0.000158879
0.0268189 0.000121722 -5.37274e-05
0.0276238 -7.83958e-06 1.25494e-05
0.0281406 -6.28068e-05 3.98525e-05
0.028464 -8.24184e-05 4.20885e-05
0.0286633 -8.35783e-05 3.36354e-05
0.0287844 -7.51008e-05 2.33214e-05
0.0288571 -6.25817e-05 1.48088e-05
0.0289 -4.95206e-05 8.85012e-06
0.028925 -3.77802e-05 5.05162e-06
0.0289392 -2.80857e-05 2.77415e-06
0.0289472 -2.04997e-05 1.46834e-06
0.0289516 -1.47718e-05 7.46252e-07
0.028954 -1.05503e-05 3.59863e-07
0.0289552 -7.48977e-06 1.60038e-07
0.0289558 -5.2957e-06 6.08431e-08
0.0289561 -3.7346e-06 1.43528e-08
0.0289562 -2.62943e-06 -5.43295e-09
0.0289563 -1.84964e-06 -1.22588e-08
0.0289563 -1.30064e-06 -1.31924e-08
0.0289563 -9.14745e-07 -1.17472e-08
0.0289562 -6.4387e-07 -9.58894e-09
0.0289562 -4.54056e-07 -7.4486e-09
0.0289562 -3.21423e-07 -5.60101e-09
0.0289562 -2.29259e-07 -4.11487e-09
0.0289562 -1.6598e-07 -2.98826e-09
0.0289562 -1.23688e-07 -2.21665e-09
0.0289562 -9.69714e-08 -1.88779e-09
0.0289562 -8.17831e-08 -2.26543e-09
0.0289561 -7.43721e-08 -3.67224e-09
0.0289561 -7.08479e-08 -7.16391e-09
0.0289561 -6.57932e-08 -1.43661e-08
0.028956 -5.13647e-08 -4.15682e-08
0.028956 -1.94564e-08 -1.25729e-07
0.0289558 1.79863e-09 -1.87415e-07
0.0196 -1.32598e-06 -3.59594e-06
0.0196 -0.00358443 -0.00310671
0.0188603 -0.00778065 -0.00647216
0.0176224 -0.00766155 -0.00608639
0.0133998 -0.00382655 -0.00560324
0.00932855 0.00287595 -0.0052206
0.0062256 0.00323848 -0.00293225
7.38223e-05 -6.15939e-05 -0.000597698
2.77089e-05 -2.77089e-05 -1.28709e-07
-3.32187e-05 3.45513e-05 7.42459e-05
0.00309243 0.00241345 0.000337571
0.00764154 0.00382698 0.00029099
0.0130178 0.00182948 -7.27813e-05
0.0176627 0.000227548 -0.000248417
0.0212217 -0.000699219 -0.000311758
0.0238456 -0.00111989 -0.00030876
0.0257218 -0.00115591 -0.00024135
0.0269871 -0.000972291 -0.000141034
0.02778 -0.000731189 -5.50658e-05
0.028246 -0.000521081 -5.51687e-06
0.0285074 -0.000363457 1.31899e-05
0.0286487 -0.000251199 1.53444e-05
0.0287226 -0.000172426 1.16912e-05
0.0287596 -0.00011755 7.42915e-06
0.0287771 -7.96631e-05 4.22087e-06
0.0287845 -5.37681e-05 2.19789e-06
0.0287871 -3.62264e-05 1.04925e-06
0.0287875 -2.44167e-05 4.46013e-07
0.0287869 -1.64909e-05 1.51455e-07
0.028786 -1.11735e-05 1.9736e-08
0.0287852 -7.59977e-06 -3.1298e-08
0.0287845 -5.19014e-06 -4.50629e-08
0.0287839 -3.55878e-06 -4.32773e-08
0.0287835 -2.44944e-06 -3.61932e-08
0.0287831 -1.69178e-06 -2.82912e-08
0.0287829 -1.17224e-06 -2.12873e-08
0.0287827 -8.14734e-07 -1.56508e-08
0.0287826 -5.68066e-07 -1.13399e-08
0.0287825 -3.97591e-07 -8.14201e-09
0.0287824 -2.7976e-07 -5.82102e-09
0.0287824 -1.98501e-07 -4.18262e-09
0.0287823 -1.4274e-07 -3.11095e-09
0.0287823 -1.04657e-07 -2.58219e-09
0.0287823 -7.84057e-08 -2.68416e-09
0.0287823 -5.91745e-08 -3.61742e-09
0.0287822 -4.23496e-08 -5.45998e-09
0.0287822 -2.28613e-08 -9.06754e-09
0.0287822 6.61903e-09 -1.58329e-08
0.0287821 6.06064e-08 -3.95104e-08
0.0287821 1.53249e-07 -1.16575e-07
0.028782 2.10308e-07 -1.74276e-07
0.018 -8.59562e-07 -3.56348e-06
0.0180009 -0.00192348 -0.00302994
0.0183606 -0.00361456 -0.00612369
0.0184953 -0.00225856 -0.00532642
0.0175766 0.00105137 -0.00430973
0.0173609 0.00734031 -0.00396006
0.0180752 0.0126562 -0.00282779
0.0111403 0.00693383 -0.00134348
7.53976e-05 -4.77903e-05 -0.000394884
-2.62471e-05 -5.53902e-05 5.54706e-07
7.83731e-06 -0.000460293 0.000756963
0.00869477 -0.0024347 0.00114
0.0163458 -0.00427904 0.000586445
0.0214598 -0.00437348 0.000312624
0.0245289 -0.00384099 0.000112872
0.0262781 -0.00319066 -8.2587e-05
0.0272483 -0.00248895 -0.000197239
0.0277572 -0.00179312 -0.000198087
0.0279899 -0.00120549 -0.000137742
0.0280684 -0.000776466 -7.58753e-05
0.0280724 -0.000490566 -3.57507e-05
0.0280477 -0.000308102 -1.53198e-05
0.0280171 -0.000193477 -6.38007e-06
0.0279897 -0.000121805 -2.8054e-06
0.0279681 -7.70343e-05 -1.40893e-06
0.0279523 -4.90382e-05 -8.23876e-07
0.027941 -3.14728e-05 -5.34474e-07
0.0279332 -2.03877e-05 -3.62308e-07
0.0279277 -1.33363e-05 -2.47471e-07
0.027924 -8.80807e-06 -1.6782e-07
0.0279215 -5.87041e-06 -1.12606e-07
0.0279197 -3.94494e-06 -7.48627e-08
0.0279185 -2.67047e-06 -4.94567e-08
0.0279177 -1.81927e-06 -3.25708e-08
0.0279171 -1.24623e-06 -2.14462e-08
0.0279167 -8.57789e-07 -1.41546e-08
0.0279164 -5.92985e-07 -9.38543e-09
0.0279162 -4.11652e-07 -6.26729e-09
0.0279161 -2.87068e-07 -4.23178e-09
0.027916 -2.01271e-07 -2.9177e-09
0.0279159 -1.42022e-07 -2.11137e-09
0.0279159 -1.00801e-07 -1.7107e-09
0.0279158 -7.14327e-08 -1.68921e-09
0.0279158 -4.91022e-08 -2.08731e-09
0.0279158 -2.95664e-08 -3.02365e-09
0.0279158 -8.32538e-09 -4.45929e-09
0.0279157 2.02765e-08 -7.06664e-09
0.0279157 6.45377e-08 -1.18648e-08
0.0279157 1.43869e-07 -2.74434e-08
0.0279157 2.76954e-07 -9.18591e-08
0.0279157 3.58041e-07 -1.43718e-07
0.0148 -4.83582e-07 -3.15045e-06
0.0148015 -0.0009712 -0.00280147
0.0162831 -0.0014398 -0.00540143
0.0179782 0.000303066 -0.00436231
0.0194922 0.00352744 -0.00322149
0.0213821 0.00753509 -0.00293773
0.0251878 0.0129387 -0.00236738
0.0284438 0.0195922 -0.00140491
0.0233246 0.0114333 -0.000271187
0.023745 2.2129e-10 0.000645981
0.026948 -0.00666076 0.00157452
0.0307419 -0.0131184 0.00212115
0.0318745 -0.0112679 0.00171187
0.0313297 -0.00807829 0.00131981
0.0301146 -0.00544229 0.000840847
0.0287966 -0.003613 0.000301456
0.0276533 -0.00236372 -9.75631e-05
0.0267832 -0.00149335 -0.000247731
0.026173 -0.000906014 -0.000223518
0.0257651 -0.000535483 -0.000145886
0.0254998 -0.000314415 -8.02578e-05
0.0253304 -0.000185941 -4.00367e-05
0.0252236 -0.000111482 -1.88974e-05
0.0251568 -6.792e-05 -8.66602e-06
0.025115 -4.20725e-05 -3.92681e-06
0.0250888 -2.64907e-05 -1.77617e-06
0.0250724 -1.69402e-05 -8.05355e-07
0.0250619 -1.09879e-05 -3.65092e-07
0.0250551 -7.21749e-06 -1.63499e-07
0.0250507 -4.79306e-06 -7.03487e-08
0.0250478 -3.21288e-06 -2.72493e-08
0.0250459 -2.1707e-06 -7.63606e-09
0.0250446 -1.47633e-06 8.31826e-10
0.0250437 -1.00969e-06 4.0184e-09
0.0250432 -6.93824e-07 4.76275e-09
0.0250427 -4.78741e-07 4.45092e-09
0.0250425 -3.31575e-07 3.75315e-09
0.0250423 -2.30485e-07 2.98076e-09
0.0250421 -1.60805e-07 2.26362e-09
0.025042 -1.12565e-07 1.64015e-09
0.025042 -7.88718e-08 1.10147e-09
0.0250419 -5.48097e-08 6.10962e-10
0.0250419 -3.66647e-08 1.19389e-10
0.0250419 -2.13137e-08 -4.38428e-10
0.0250419 -5.69894e-09 -1.15625e-09
0.0250418 1.37588e-08 -1.97288e-09
0.0250418 4.21884e-08 -3.21726e-09
0.0250418 8.65639e-08 -5.46537e-09
0.0250419 1.62948e-07 -1.2901e-08
0.025042 2.86807e-07 -6.23366e-08
0.0250421 3.61443e-07 -1.05759e-07
0.01 -9.25752e-07 -2.83946e-06
0.0100008 -0.00059936 -0.00228722
0.0113965 -0.000605405 -0.00415344
0.0134414 0.000714097 -0.0030135