# vtk DataFile Version 2.0
Tobias Weinzierl: CPU, Manycore and Cluster Computing
ASCII

DATASET STRUCTURED_POINTS
DIMENSIONS  51 11 6

ORIGIN 0 0 0 

SPACING 0.1 0.1 0.1 

POINT_DATA 3366

VECTORS velocity float
0 0 0
1.1155e-12 0 0
2.70829e-09 0 0
4.32947e-09 0 0
-7.35678e-09 0 0
4.81035e-09 0 0
6.13727e-09 0 0
4.75774e-09 0 0
3.92245e-09 0 0
2.32314e-09 0 0
8.26053e-10 0 0
2.37617e-10 0 0
-7.44597e-10 0 0
-3.53139e-09 0 0
-7.38924e-09 0 0
-1.04111e-08 0 0
-1.17662e-08 0 0
-1.20857e-08 0 0
-1.23533e-08 0 0
-1.30626e-08 0 0
-1.41746e-08 0 0
-1.54266e-08 0 0
-1.65798e-08 0 0
-1.7508e-08 0 0
-1.81844e-08 0 0
-1.86389e-08 0 0
-1.89226e-08 0 0
-1.90859e-08 0 0
-1.91705e-08 0 0
-1.92067e-08 0 0
-1.92154e-08 0 0
-1.92099e-08 0 0
-1.91983e-08 0 0
-1.91852e-08 0 0
-1.91728e-08 0 0
-1.91621e-08 0 0
-1.91534e-08 0 0
-1.91466e-08 0 0
-1.91414e-08 0 0
-1.91375e-08 0 0
-1.91346e-08 0 0
-1.91325e-08 0 0
-1.9131e-08 0 0
-1.913e-08 0 0
-1.91292e-08 0 0
-1.91288e-08 0 0
-1.91285e-08 0 0
-1.91285e-08 0 0
-1.91287e-08 0 0
-1.91295e-08 0 0
0.00197056 0 0
0 3.86513e-07 0
4.61332e-13 -2.5798e-09 0
4.19176e-09 -6.28891e-09 0
9.40588e-09 -1.96598e-09 0
-4.5375e-09 -9.77302e-09 0
1.77793e-08 -1.29527e-08 0
1.90327e-08 4.30221e-10 0
1.44714e-08 3.82968e-09 0
1.26459e-08 4.32872e-09 0
1.02974e-08 4.00474e-09 0
7.10445e-09 2.24278e-09 0
4.36023e-09 1.83202e-09 0
7.02503e-10 4.25804e-09 0
-5.46566e-09 6.87329e-09 0
-1.25154e-08 6.77566e-09 0
-1.75475e-08 4.34395e-09 0
-2.00076e-08 1.85868e-09 0
-2.16049e-08 7.06066e-10 0
-2.40229e-08 7.30419e-10 0
-2.76835e-08 1.16921e-09 0
-3.20401e-08 1.47527e-09 0
-3.63116e-08 1.49223e-09 0
-3.99445e-08 1.29178e-09 0
-4.27187e-08 9.98666e-10 0
-4.46618e-08 7.06385e-10 0
-4.59242e-08 4.62054e-10 0
-4.6686e-08 2.78947e-10 0
-4.71078e-08 1.52388e-10 0
-4.73141e-08 7.0879e-11 0
-4.73926e-08 2.2102e-11 0
-4.74012e-08 -4.50842e-12 0
-4.73759e-08 -1.70364e-11 0
-4.73377e-08 -2.12147e-11 0
-4.72979e-08 -2.08619e-11 0
-4.72619e-08 -1.83722e-11 0
-4.72317e-08 -1.51495e-11 0
-4.72076e-08 -1.19481e-11 0
-4.71889e-08 -9.12093e-12 0
-4.71749e-08 -6.78862e-12 0
-4.71645e-08 -4.94845e-12 0
-4.71568e-08 -3.54058e-12 0
-4.71513e-08 -2.48566e-12 0
-4.71474e-08 -1.70445e-12 0
-4.71446e-08 -1.12543e-12 0
-4.71427e-08 -6.87234e-13 0
-4.71416e-08 -3.35671e-13 0
-4.7141e-08 -9.82214e-15 0
-4.71412e-08 3.67246e-13 0
-4.71421e-08 1.15689e-12 0
-4.71447e-08 3.42416e-12 0
0.00564931 -3.33107e-08 0
0 -2.15858e-08 0
7.14649e-14 -2.38484e-09 0
4.72249e-09 -9.78062e-09 0
1.61951e-08 -1.56535e-08 0
1.69238e-08 -3.06899e-08 0
3.55132e-08 -2.58924e-08 0
3.03104e-08 -1.98197e-09 0
2.63764e-08 4.89723e-10 0
1.9729e-08 -5.40912e-09 0
1.1424e-08 -1.08093e-08 0
2.88374e-09 -1.16089e-08 0
-1.46497e-09 -6.6756e-09 0
-3.96398e-09 6.49994e-10 0
-9.04805e-09 6.0582e-09 0
-1.53681e-08 8.77448e-09 0
-1.96829e-08 1.03422e-08 0
-2.13903e-08 1.15308e-08 0
-2.22206e-08 1.20834e-08 0
-2.39204e-08 1.17434e-08 0
-2.70334e-08 1.05853e-08 0
-3.10709e-08 8.88177e-09 0
-3.51952e-08 6.96264e-09 0
-3.87491e-08 5.11769e-09 0
-4.14367e-08 3.53676e-09 0
-4.3259e-08 2.29854e-09 0
-4.43738e-08 1.39755e-09 0
-4.49805e-08 7.82474e-10 0
-4.52571e-08 3.87144e-10 0
-4.53384e-08 1.48795e-10 0
-4.5316e-08 1.59748e-11 0
-4.52469e-08 -4.98478e-11 0
-4.5164e-08 -7.56785e-11 0
-4.50843e-08 -7.93981e-11 0
-4.50152e-08 -7.22125e-11 0
-4.4959e-08 -6.07326e-11 0
-4.4915e-08 -4.85733e-11 0
-4.48815e-08 -3.74976e-11 0
-4.48566e-08 -2.81908e-11 0
-4.48383e-08 -2.07573e-11 0
-4.48251e-08 -1.50223e-11 0
-4.48156e-08 -1.07043e-11 0
-4.48089e-08 -7.50558e-12 0
-4.48041e-08 -5.15498e-12 0
-4.48008e-08 -3.41996e-12 0
-4.47986e-08 -2.10157e-12 0
-4.47973e-08 -1.01877e-12 0
-4.47968e-08 7.024e-14 0
-4.47972e-08 1.58162e-12 0
-4.47984e-08 3.98979e-12 0
-4.48009e-08 7.712e-12 0
0.00807283 -7.51273e-08 0
0 -6.41186e-07 0
3.88574e-12 -4.58572e-09 0
6.79868e-09 -1.59052e-08 0
2.04342e-08 -2.95519e-08 0
1.85256e-08 -4.03086e-08 0
2.25441e-08 -2.20873e-08 0
1.74228e-08 -1.14654e-11 0
1.66629e-08 -2.55221e-09 0
3.36424e-09 -1.18441e-08 0
-9.34751e-09 -2.23839e-08 0
-1.54462e-08 -2.77917e-08 0
-1.69254e-08 -2.79663e-08 0
-1.8192e-08 -2.09474e-08 0
-2.45117e-08 -7.66403e-09 0
-3.24403e-08 7.07253e-09 0
-3.7149e-08 1.81842e-08 0
-3.69348e-08 2.30277e-08 0
-3.31308e-08 2.25304e-08 0
-2.83187e-08 1.929e-08 0
-2.45521e-08 1.53355e-08 0
-2.25349e-08 1.15856e-08 0
-2.19088e-08 8.32642e-09 0
-2.19748e-08 5.64337e-09 0
-2.21886e-08 3.55907e-09 0
-2.229e-08 2.04223e-09 0
-2.22261e-08 1.01311e-09 0
-2.204e-08 3.66289e-10 0
-2.17952e-08 -4.54032e-12 0
-2.15425e-08 -1.90636e-10 0
-2.13126e-08 -2.62128e-10 0
-2.11191e-08 -2.68533e-10 0
-2.09648e-08 -2.42334e-10 0
-2.08462e-08 -2.03334e-10 0
-2.07577e-08 -1.62617e-10 0
-2.06928e-08 -1.25676e-10 0
-2.06461e-08 -9.46637e-11 0
-2.06128e-08 -6.98929e-11 0
-2.05893e-08 -5.07838e-11 0
-2.05728e-08 -3.64122e-11 0
-2.05612e-08 -2.5806e-11 0
-2.05531e-08 -1.80851e-11 0
-2.05475e-08 -1.25122e-11 0
-2.05436e-08 -8.49495e-12 0
-2.0541e-08 -5.56508e-12 0
-2.05392e-08 -3.33877e-12 0
-2.05382e-08 -1.4581e-12 0
-2.05377e-08 4.32177e-13 0
-2.05376e-08 2.60769e-12 0
-2.05375e-08 5.15162e-12 0
-2.05379e-08 7.93331e-12 0
0.00905173 -7.94246e-08 0
0 -1.25185e-06 0
1.92382e-12 -8.69461e-09 0
2.79051e-09 -2.38523e-08 0
7.59511e-09 -3.12155e-08 0
2.65835e-09 -2.5267e-08 0
-3.13246e-12 -9.21613e-09 0
-3.5553e-11 -6.26985e-11 0
5.44503e-11 -5.97958e-11 0
-7.64125e-09 -1.01348e-08 0
-2.79908e-08 -3.05609e-08 0
-3.50897e-08 -4.47935e-08 0
-3.34346e-08 -4.58796e-08 0
-3.63348e-08 -3.25218e-08 0
-4.33439e-08 -9.68672e-09 0
-4.9884e-08 1.20367e-08 0
-5.2933e-08 2.5289e-08 0
-5.08854e-08 2.81504e-08 0
-4.37578e-08 2.39427e-08 0
-3.37551e-08 1.74405e-08 0
-2.39368e-08 1.15868e-08 0
-1.62744e-08 7.18115e-09 0
-1.11176e-08 4.04137e-09 0
-7.88067e-09 1.85348e-09 0
-5.82897e-09 3.99077e-10 0
-4.44173e-09 -4.80469e-10 0
-3.43679e-09 -9.29432e-10 0
-2.68117e-09 -1.08301e-09 0
-2.1106e-09 -1.056e-09 0
-1.68607e-09 -9.34908e-10 0
-1.37698e-09 -7.77818e-10 0
-1.15685e-09 -6.19399e-10 0
-1.00314e-09 -4.77465e-10 0
-8.97535e-10 -3.58984e-10 0
-8.25894e-10 -2.64672e-10 0
-7.77734e-10 -1.92119e-10 0
-7.45546e-10 -1.37711e-10 0
-7.24092e-10 -9.77009e-11 0
-7.0979e-10 -6.87211e-11 0
-7.00229e-10 -4.79769e-11 0
-6.93805e-10 -3.32598e-11 0
-6.89457e-10 -2.28818e-11 0
-6.86492e-10 -1.55811e-11 0
-6.84459e-10 -1.04251e-11 0
-6.83058e-10 -6.71998e-12 0
-6.82077e-10 -3.94299e-12 0
-6.81338e-10 -1.71793e-12 0
-6.80591e-10 1.80735e-13 0
-6.79621e-10 1.82523e-12 0
-6.78297e-10 3.23598e-12 0
-6.77357e-10 4.63326e-12 0
0.00939407 -4.58484e-08 0
0 -1.13191e-06 0
-4.71933e-12 -9.55321e-09 0
-2.89681e-09 -2.08163e-08 0
-3.13747e-09 -2.42977e-08 0
-8.57923e-09 -2.44731e-08 0
-7.50894e-09 -1.14407e-08 0
-4.47171e-11 4.23988e-11 0
1.20591e-11 -1.20591e-11 0
4.99774e-11 -5.89215e-11 0
-1.51935e-08 -1.70389e-08 0
-4.27859e-08 -4.676e-08 0
-4.53875e-08 -5.49515e-08 0
-4.76349e-08 -3.7447e-08 0
-4.94192e-08 -1.03033e-08 0
-4.99515e-08 1.41055e-08 0
-5.03395e-08 2.7841e-08 0
-4.92704e-08 2.88574e-08 0
-4.38923e-08 2.15226e-08 0
-3.40228e-08 1.22124e-08 0
-2.25742e-08 4.82071e-09 0
-1.26102e-08 1.63893e-10 0
-5.4371e-09 -2.37168e-09 0
-8.45278e-10 -3.54083e-09 0
1.92965e-09 -3.86779e-09 0
3.58704e-09 -3.6904e-09 0
4.59046e-09 -3.24205e-09 0
5.20835e-09 -2.68676e-09 0
5.59139e-09 -2.13102e-09 0
5.82717e-09 -1.63394e-09 0
5.9696e-09 -1.22012e-09 0
6.05325e-09 -8.92393e-10 0
6.10061e-09 -6.4215e-10 0
6.12618e-09 -4.56207e-10 0
6.13911e-09 -3.20867e-10 0
6.145e-09 -2.23899e-10 0
6.1472e-09 -1.55258e-10 0
6.14759e-09 -1.07114e-10 0
6.14722e-09 -7.35819e-11 0
6.14663e-09 -5.03486e-11 0
6.14607e-09 -3.43081e-11 0
6.14563e-09 -2.32533e-11 0
6.14534e-09 -1.56273e-11 0
6.1452e-09 -1.0338e-11 0
6.14521e-09 -6.62905e-12 0
6.1454e-09 -3.99924e-12 0
6.14582e-09 -2.13931e-12 0
6.14658e-09 -8.65587e-13 0
6.14771e-09 -7.91317e-14 0
6.1491e-09 2.2608e-13 0
6.15004e-09 3.2143e-13 0
0.00947283 5.89329e-09 0
0 -7.81897e-07 0
-2.35802e-12 -5.86389e-09 0
-3.084e-09 -1.49254e-08 0
-2.82525e-09 -1.94437e-08 0
-1.29239e-08 -1.90127e-08 0
-1.8977e-08 -1.12042e-08 0
-8.30781e-09 -2.57285e-09 0
-4.25437e-11 4.22529e-11 0
7.73248e-12 -7.73248e-12 0
4.29611e-11 -5.69934e-11 0
-1.97476e-08 -2.75289e-08 0
-3.53074e-08 -5.20756e-08 0
-4.27068e-08 -3.55892e-08 0
-4.32919e-08 -8.20151e-09 0
-3.90752e-08 1.53715e-08 0
-3.50954e-08 2.79118e-08 0
-3.36927e-08 2.73956e-08 0
-3.17025e-08 1.81189e-08 0
-2.61132e-08 7.03258e-09 0
-1.79444e-08 -1.30741e-09 0
-1.01148e-08 -5.92992e-09 0
-4.4772e-09 -7.71127e-09 0
-1.23155e-09 -7.77875e-09 0
2.65415e-10 -6.96196e-09 0
7.46437e-10 -5.78627e-09 0
7.34893e-10 -4.56381e-09 0
5.30638e-10 -3.46133e-09 0
2.81706e-10 -2.54813e-09 0
5.13154e-11 -1.83393e-09 0
-1.39396e-10 -1.29767e-09 0
-2.88168e-10 -9.06718e-10 0
-4.00099e-10 -6.27731e-10 0
-4.82309e-10 -4.31694e-10 0
-5.41664e-10 -2.95457e-10 0
-5.8397e-10 -2.01512e-10 0
-6.13814e-10 -1.37081e-10 0
-6.34683e-10 -9.3056e-11 0
-6.49158e-10 -6.30486e-11 0
-6.59114e-10 -4.26278e-11 0
-6.65898e-10 -2.87417e-11 0
-6.7046e-10 -1.92989e-11 0
-6.73469e-10 -1.28734e-11 0
-6.75383e-10 -8.5028e-12 0
-6.76507e-10 -5.54697e-12 0
-6.77043e-10 -3.58827e-12 0
-6.77134e-10 -2.36377e-12 0
-6.76828e-10 -1.7284e-12 0
-6.76197e-10 -1.66321e-12 0
-6.75419e-10 -2.35713e-12 0
-6.75008e-10 -3.80546e-12 0
0.00939404 5.49732e-08 0
0 -5.48429e-07 0
1.73719e-12 -4.28182e-09 0
-1.32171e-09 -1.09392e-08 0
-3.16098e-09 -1.45733e-08 0
-1.27926e-08 -1.31756e-08 0
-2.4129e-08 -5.83009e-09 0
-2.30959e-08 -3.22347e-10 0
-1.28201e-08 2.47755e-10 0
-4.80478e-11 3.64558e-11 0
4.221e-11 2.91853e-11 0
4.60717e-12 -1.52249e-08 0
-2.18472e-08 -2.96242e-08 0
-4.0092e-08 -1.78794e-08 0
-4.57228e-08 2.63801e-09 0
-3.73182e-08 1.7204e-08 0
-2.36416e-08 2.23801e-08 0
-1.55932e-08 1.89636e-08 0
-1.44568e-08 1.03573e-08 0
-1.50739e-08 1.30828e-09 0
-1.43962e-08 -4.99508e-09 0
-1.30049e-08 -7.98545e-09 0
-1.22501e-08 -8.55619e-09 0
-1.25788e-08 -7.79028e-09 0
-1.3682e-08 -6.4696e-09 0
-1.50769e-08 -5.05614e-09 0
-1.64178e-08 -3.78448e-09 0
-1.75421e-08 -2.74534e-09 0
-1.84128e-08 -1.94731e-09 0
-1.90547e-08 -1.35974e-09 0
-1.95135e-08 -9.39426e-10 0
-1.9835e-08 -6.44521e-10 0
-2.00574e-08 -4.40219e-10 0
-2.02102e-08 -2.99814e-10 0
-2.03146e-08 -2.03796e-10 0
-2.03858e-08 -1.38325e-10 0
-2.04342e-08 -9.37606e-11 0
-2.0467e-08 -6.34616e-11 0
-2.04892e-08 -4.28786e-11 0
-2.05042e-08 -2.89062e-11 0
-2.05142e-08 -1.94294e-11 0
-2.05209e-08 -1.30114e-11 0
-2.05253e-08 -8.67984e-12 0
-2.05281e-08 -5.78021e-12 0
-2.05299e-08 -3.87769e-12 0
-2.0531e-08 -2.69415e-12 0
-2.05315e-08 -2.07501e-12 0
-2.05317e-08 -1.97931e-12 0
-2.05317e-08 -2.49983e-12 0
-2.05318e-08 -4.01778e-12 0
-2.05323e-08 -6.8691e-12 0
0.00905169 8.11855e-08 0
0 -4.65813e-07 0
1.88186e-12 -2.25251e-09 0
-3.10365e-10 -6.24052e-09 0
-4.57332e-09 -9.19886e-09 0
-1.67066e-08 -8.97374e-09 0
-3.04594e-08 -1.72606e-09 0
-3.29054e-08 4.35186e-09 0
-2.87931e-08 -5.38657e-09 0
-1.806e-08 -7.70165e-09 0
-1.5778e-08 1.87939e-13 0
-1.76054e-08 -5.08203e-09 0
-3.58641e-08 -6.45183e-09 0
-5.33547e-08 4.24563e-09 0
-5.47551e-08 1.42993e-08 0
-3.79616e-08 1.56723e-08 0
-1.64797e-08 1.02702e-08 0
-6.34927e-09 3.05817e-09 0
-9.76118e-09 -2.5968e-09 0
-1.83557e-08 -5.40506e-09 0
-2.54298e-08 -5.82508e-09 0
-2.97685e-08 -5.0762e-09 0
-3.25965e-08 -4.08845e-09 0
-3.49264e-08 -3.22519e-09 0
-3.70611e-08 -2.52804e-09 0
-3.89557e-08 -1.95976e-09 0
-4.05259e-08 -1.49328e-09 0
-4.17492e-08 -1.11623e-09 0
-4.26592e-08 -8.19727e-10 0
-4.33146e-08 -5.93051e-10 0
-4.37766e-08 -4.23893e-10 0
-4.40978e-08 -3.00042e-10 0
-4.43192e-08 -2.10684e-10 0
-4.4471e-08 -1.46943e-10 0
-4.45747e-08 -1.01884e-10 0
-4.46454e-08 -7.02673e-11 0
-4.46935e-08 -4.82228e-11 0
-4.47261e-08 -3.29369e-11 0
-4.47481e-08 -2.23902e-11 0
-4.4763e-08 -1.51476e-11 0
-4.47729e-08 -1.01983e-11 0
-4.47796e-08 -6.83629e-12 0
-4.47839e-08 -4.57306e-12 0
-4.47867e-08 -3.07613e-12 0
-4.47886e-08 -2.12809e-12 0
-4.47897e-08 -1.59975e-12 0
-4.47905e-08 -1.43753e-12 0
-4.47911e-08 -1.67404e-12 0
-4.47917e-08 -2.43052e-12 0
-4.47928e-08 -4.05561e-12 0
-4.47951e-08 -7.00685e-12 0
0.00807282 6.88614e-08 0
0 -4.80897e-07 0
4.49315e-12 -4.22781e-10 0
2.49882e-10 -1.69127e-09 0
-5.64478e-09 -3.12511e-09 0
-1.90644e-08 -3.39272e-09 0
-3.38098e-08 -2.22164e-09 0
-3.7487e-08 2.983e-10 0
-3.37445e-08 -2.18141e-09 0
-3.88494e-08 -3.98769e-09 0
-3.64113e-08 1.39611e-09 0
-3.40315e-08 6.44325e-09 0
-3.7045e-08 9.37328e-09 0
-3.84096e-08 9.48818e-09 0
-3.20056e-08 7.15529e-09 0
-1.75767e-08 3.40856e-09 0
-5.13761e-09 -1.33348e-09 0
-4.53184e-09 -5.28128e-09 0
-1.43364e-08 -6.41323e-09 0
-2.62096e-08 -4.89674e-09 0
-3.45797e-08 -2.56523e-09 0
-3.89757e-08 -8.55394e-10 0
-4.10588e-08 -6.88107e-11 0
-4.2236e-08 1.0953e-10 0
-4.3152e-08 4.1355e-11 0
-4.39771e-08 -6.51432e-11 0
-4.47104e-08 -1.34812e-10 0
-4.53263e-08 -1.59749e-10 0
-4.58168e-08 -1.53927e-10 0
-4.61916e-08 -1.32708e-10 0
-4.64694e-08 -1.06786e-10 0
-4.66708e-08 -8.20411e-11 0
-4.68144e-08 -6.1005e-11 0
-4.69156e-08 -4.42876e-11 0
-4.69862e-08 -3.15697e-11 0
-4.70351e-08 -2.21821e-11 0
-4.70687e-08 -1.54027e-11 0
-4.70917e-08 -1.05873e-11 0
-4.71072e-08 -7.21153e-12 0
-4.71177e-08 -4.87087e-12 0
-4.71247e-08 -3.26436e-12 0
-4.71293e-08 -2.17417e-12 0
-4.71322e-08 -1.44668e-12 0
-4.71342e-08 -9.7725e-13 0
-4.71354e-08 -6.99792e-13 0
-4.71362e-08 -5.79764e-13 0
-4.71369e-08 -6.12161e-13 0
-4.71375e-08 -8.29082e-13 0
-4.71385e-08 -1.26743e-12 0
-4.71402e-08 -1.97373e-12 0
-4.71435e-08 -3.22978e-12 0
0.00564933 2.64262e-08 0
0 0 0
3.22345e-12 0 0
1.94887e-10 0 0
-2.8243e-09 0 0
-9.04308e-09 0 0
-1.60083e-08 0 0
-1.9371e-08 0 0
-1.77712e-08 0 0
-2.07954e-08 0 0
-2.06339e-08 0 0
-1.64216e-08 0 0
-1.10114e-08 0 0
-6.52108e-09 0 0
-3.15459e-09 0 0
-1.23887e-10 0 0
7.86721e-10 0 0
-2.25398e-09 0 0
-7.8936e-09 0 0
-1.31502e-08 0 0
-1.63787e-08 0 0
-1.77626e-08 0 0
-1.81534e-08 0 0
-1.82118e-08 0 0
-1.82424e-08 0 0
-1.83245e-08 0 0
-1.84476e-08 0 0
-1.85833e-08 0 0
-1.87102e-08 0 0
-1.88176e-08 0 0
-1.89029e-08 0 0
-1.89678e-08 0 0
-1.90157e-08 0 0
-1.90502e-08 0 0
-1.90747e-08 0 0
-1.90918e-08 0 0
-1.91036e-08 0 0
-1.91117e-08 0 0
-1.91172e-08 0 0
-1.91208e-08 0 0
-1.91232e-08 0 0
-1.91248e-08 0 0
-1.91257e-08 0 0
-1.91264e-08 0 0
-1.91267e-08 0 0
-1.9127e-08 0 0
-1.91272e-08 0 0
-1.91275e-08 0 0
-1.9128e-08 0 0
-1.91289e-08 0 0
-1.91305e-08 0 0
0.00197058 0 0
0 0 5.36726e-07
2.99188e-13 0 -1.27024e-10
3.404e-09 0 1.96201e-09
1.09637e-08 0 1.20325e-08
-2.35482e-08 0 9.29357e-09
7.12286e-09 0 -5.39935e-10
1.28916e-08 0 -3.76213e-10
1.19137e-08 0 -1.61349e-09
1.34755e-08 0 -1.89276e-09
1.55159e-08 0 -9.06987e-10
1.84814e-08 0 -1.55916e-10
2.26708e-08 0 -2.60042e-10
2.45473e-08 0 -4.87725e-10
2.00614e-08 0 -2.27354e-10
9.85403e-09 0 1.05301e-10
-1.4658e-09 0 3.42711e-11
-1.04689e-08 0 -1.82763e-10
-1.70608e-08 0 -1.17744e-10
-2.26791e-08 0 2.47623e-10
-2.8244e-08 0 6.53292e-10
-3.37311e-08 0 8.89893e-10
-3.86916e-08 0 9.14166e-10
-4.27542e-08 0 7.90822e-10
-4.58003e-08 0 6.06936e-10
-4.79172e-08 0 4.25539e-10
-4.9292e-08 0 2.77196e-10
-5.01269e-08 0 1.69082e-10
-5.05963e-08 0 9.6476e-11
-5.08333e-08 0 5.07941e-11
-5.09313e-08 0 2.3699e-11
-5.09518e-08 0 8.59576e-12
-5.09334e-08 0 8.1445e-13
-5.0899e-08 0 -2.72535e-12
-5.0861e-08 0 -3.94923e-12
-5.08257e-08 0 -4.00505e-12
-5.07956e-08 0 -3.5445e-12
-5.07713e-08 0 -2.91668e-12
-5.07523e-08 0 -2.29377e-12
-5.07379e-08 0 -1.74937e-12
-5.07272e-08 0 -1.30514e-12
-5.07193e-08 0 -9.57476e-13
-5.07136e-08 0 -6.92259e-13
-5.07095e-08 0 -4.92634e-13
-5.07066e-08 0 -3.41889e-13
-5.07047e-08 0 -2.25583e-13
-5.07034e-08 0 -1.33938e-13
-5.07028e-08 0 -6.17018e-14
-5.07028e-08 0 -4.89158e-14
-5.07036e-08 0 -6.68253e-15
-5.07061e-08 0 9.50491e-13
0.00559481 0 -5.0024e-09
0.0036 -3.09821e-07 -6.35835e-08
0.0035998 -0.00138342 -2.13772e-05
0.00671751 -0.00390835 0.000106553
0.0136051 -0.00592255 -0.000554674
0.0235431 -0.014418 -0.00431315
0.0462672 -0.0132682 -0.00487865
0.0497538 -0.00186375 -0.00164825
0.0494932 0.0026881 -0.000171197
0.0445014 0.00501401 0.00055421
0.0388821 0.00517974 0.000523653
0.0337489 0.00451383 0.000240144
0.0294261 0.00362859 -3.53951e-05
0.02601 0.00273411 -0.000220811
0.0234403 0.00192883 -0.000306737
0.0215509 0.00128508 -0.000307743
0.0201594 0.000832159 -0.000249643
0.0191272 0.000545252 -0.000166922
0.0183629 0.000371562 -9.05788e-05
0.0178053 0.000262218 -3.66619e-05
0.0174088 0.000186718 -6.29424e-06
0.0171359 0.00013074 6.93118e-06
0.0169548 8.86118e-05 1.03676e-05
0.0168394 5.7695e-05 9.39006e-06
0.0167688 3.59315e-05 7.05965e-06
0.0167277 2.12869e-05 4.77523e-06
0.0167052 1.18623e-05 3.00205e-06
0.0166937 6.06334e-06 1.77892e-06
0.0166888 2.66557e-06 9.96598e-07
0.0166872 7.90586e-07 5.23824e-07
0.0166875 -1.59278e-07 2.51922e-07
0.0166884 -5.73104e-07 1.03328e-07
0.0166896 -6.94181e-07 2.70882e-08
0.0166907 -6.6856e-07 -8.50025e-09
0.0166917 -5.79939e-07 -2.23424e-08
0.0166925 -4.73509e-07 -2.52833e-08
0.0166931 -3.71616e-07 -2.3297e-08
0.0166936 -2.83668e-07 -1.95169e-08
0.0166939 -2.12178e-07 -1.54763e-08
0.0166942 -1.56305e-07 -1.18418e-08
0.0166944 -1.13837e-07 -8.83417e-09
0.0166945 -8.22296e-08 -6.4612e-09
0.0166946 -5.91135e-08 -4.64759e-09
0.0166947 -4.24918e-08 -3.29789e-09
0.0166947 -3.07919e-08 -2.32284e-09
0.0166948 -2.28607e-08 -1.65285e-09
0.0166948 -1.78715e-08 -1.13486e-09
0.0166948 -1.53861e-08 -4.43402e-10
0.0166948 -1.53452e-08 1.789e-09
0.0166949 -2.19977e-08 5.83722e-09
0.0166949 -6.27247e-08 -5.58843e-09
0.016695 -9.74043e-08 -1.92724e-08
0.01 -1.4009e-07 -1.45948e-06
0.0100007 -0.0029902 -0.000597356
0.0147917 -0.00993895 -0.000784216
0.0241563 -0.0177068 -0.00126801
0.0384701 -0.0324173 -0.00336843
0.0590751 -0.0246894 -0.000816914
0.0563335 -0.00267432 0.00316173
0.0557757 0.00514734 0.00337
0.0499947 0.0101565 0.00296698
0.0445074 0.0103393 0.00204036
0.0399932 0.00928514 0.00107171
0.0362753 0.00785233 0.000326084
0.0333012 0.00631681 -0.000184738
0.0310204 0.00487762 -0.000471135
0.0292743 0.00366145 -0.000545002
0.0279269 0.00269646 -0.000465149
0.026898 0.00195324 -0.000318715
0.0261342 0.00139064 -0.000177684
0.0255871 0.000971113 -7.64734e-05
0.0252096 0.000663065 -1.821e-05
0.0249596 0.000440955 8.42989e-06
0.0248014 0.000284483 1.66435e-05
0.0247065 0.000177329 1.61979e-05
0.0246532 0.000106261 1.27678e-05
0.0246261 6.07139e-05 9.03996e-06
0.0246143 3.25691e-05 5.99108e-06
0.0246109 1.58633e-05 3.79352e-06
0.0246118 6.41054e-06 2.32031e-06
0.0246144 1.39127e-06 1.37858e-06
0.0246175 -1.02415e-06 7.97152e-07
0.0246205 -1.98182e-06 4.48155e-07
0.024623 -2.17446e-06 2.43949e-07
0.024625 -2.00443e-06 1.27465e-07
0.0246265 -1.69442e-06 6.28449e-08
0.0246277 -1.35972e-06 2.81745e-08
0.0246286 -1.05401e-06 1.03746e-08
0.0246292 -7.97281e-07 1.81355e-09
0.0246297 -5.92366e-07 -1.86116e-09
0.02463 -4.34273e-07 -3.0697e-09
0.0246302 -3.15247e-07 -3.11725e-09
0.0246304 -2.27302e-07 -2.68006e-09
0.0246305 -1.63346e-07 -2.09709e-09
0.0246306 -1.17584e-07 -1.53372e-09
0.0246307 -8.55264e-08 -1.05117e-09
0.0246307 -6.39448e-08 -6.71732e-10
0.0246307 -5.07455e-08 -1.56018e-10
0.0246308 -4.54522e-08 1.15505e-09
0.0246308 -5.32087e-08 4.28456e-09
0.0246309 -8.47651e-08 7.15128e-09
0.0246309 -1.62317e-07 -1.78786e-08
0.024631 -2.16675e-07 -4.36071e-08
0.0148 -9.63635e-07 -1.75033e-06
0.0148024 -0.00529017 -0.00112808
0.0203597 -0.0163891 -0.00243709
0.0274686 -0.0287152 -0.00394334
0.0320803 -0.0460078 -0.0057584
0.0305707 -0.0284111 -0.00140008
0.0268186 -1.23153e-05 0.0032899
0.026265 0.00709339 0.00350745
0.0298155 0.0145191 0.00339597
0.0301813 0.0140089 0.0024043
0.0293775 0.0122595 0.00141794
0.0285428 0.0104194 0.000569484
0.0278939 0.00849541 -3.40559e-05
0.0275586 0.00664042 -0.000374586
0.0274282 0.00502482 -0.000464784
0.0274089 0.00368803 -0.000389883
0.0274491 0.00262626 -0.000251476
0.0275162 0.00181981 -0.000120943
0.0275888 0.0012311 -2.93839e-05
0.0276558 0.000813137 2.0614e-05
0.0277147 0.000522183 3.9636e-05
0.0277659 0.000323662 4.06469e-05
0.0278104 0.000191719 3.37595e-05
0.0278485 0.000106946 2.50293e-05
0.02788 5.46745e-05 1.72664e-05
0.0279054 2.39934e-05 1.13319e-05
0.0279251 7.07281e-06 7.16785e-06
0.02794 -1.46526e-06 4.40338e-06
0.0279509 -5.15088e-06 2.63845e-06
0.0279588 -6.19971e-06 1.54499e-06
0.0279643 -5.9401e-06 8.84262e-07
0.0279682 -5.12882e-06 4.93863e-07
0.0279709 -4.17023e-06 2.68122e-07
0.0279728 -3.26107e-06 1.40472e-07
0.0279741 -2.48177e-06 7.00493e-08
0.027975 -1.85177e-06 3.23264e-08
0.0279756 -1.36146e-06 1.288e-08
0.027976 -9.89862e-07 3.39748e-09
0.0279763 -7.13676e-07 -8.14672e-10
0.0279765 -5.11455e-07 -2.34601e-09
0.0279766 -3.65208e-07 -2.58631e-09
0.0279767 -2.60649e-07 -2.2624e-09
0.0279768 -1.86895e-07 -1.74715e-09
0.0279768 -1.35971e-07 -1.18146e-09
0.0279768 -1.02387e-07 -5.56257e-10
0.0279769 -8.34766e-08 3.77128e-10
0.0279769 -7.9641e-08 2.19715e-09
0.0279769 -9.50404e-08 4.02799e-09
0.027977 -1.35427e-07 -1.41343e-09
0.027977 -1.97143e-07 -3.89723e-08
0.027977 -2.31808e-07 -7.04864e-08
0.018 -1.94355e-06 -1.70458e-06
0.018003 -0.00697445 -0.00188135
0.0207474 -0.0189064 -0.00491908
0.020681 -0.0248378 -0.00632647
0.0160601 -0.0268878 -0.00760931
-1.60157e-06 -0.0139915 -0.00432158
9.76934e-05 2.65825e-05 9.18617e-07
-3.36066e-05 3.4972e-05 0.000647425
0.0066162 0.00414789 0.00141469
0.013582 0.0094526 0.00137056
0.0170227 0.0103404 0.000953117
0.018769 0.00938276 0.000402384
0.0204395 0.00776294 -8.63735e-05
0.0221295 0.00597153 -0.000338457
0.023671 0.00439171 -0.000377897
0.0249891 0.00309481 -0.000300736
0.0260737 0.00208753 -0.000186251
0.0269349 0.00135399 -8.01668e-05
0.0275917 0.000849397 -3.1942e-06
0.0280734 0.000514467 4.01911e-05
0.0284167 0.000296261 5.57819e-05
0.0286571 0.000156713 5.37747e-05
0.0288239 7.04765e-05 4.37219e-05
0.0289387 2.0233e-05 3.20203e-05
0.0290171 -6.4163e-06 2.18317e-05
0.0290698 -1.84019e-05 1.41285e-05
0.0291049 -2.19231e-05 8.78277e-06
0.029128 -2.10333e-05 5.28207e-06
0.0291429 -1.8204e-05 3.08519e-06
0.0291524 -1.48247e-05 1.75227e-06
0.0291584 -1.15983e-05 9.66529e-07
0.0291622 -8.8228e-06 5.15496e-07
0.0291646 -6.5756e-06 2.6338e-07
0.0291661 -4.82656e-06 1.26475e-07
0.0291671 -3.50203e-06 5.46635e-08
0.0291676 -2.51862e-06 1.86973e-08
0.029168 -1.79915e-06 1.90485e-09
0.0291682 -1.27865e-06 -4.99366e-09
0.0291684 -9.05387e-07 -7.03373e-09
0.0291685 -6.39644e-07 -6.86505e-09
0.0291685 -4.517e-07 -5.82591e-09
0.0291686 -3.19759e-07 -4.55834e-09
0.0291686 -2.2813e-07 -3.34149e-09
0.0291686 -1.6588e-07 -2.23858e-09
0.0291686 -1.25914e-07 -1.2204e-09
0.0291687 -1.04147e-07 -3.21559e-10
0.0291687 -9.83361e-08 3.63451e-10
0.0291687 -1.05489e-07 -8.81442e-10
0.0291687 -1.22692e-07 -1.50074e-08
0.0291686 -1.37407e-07 -5.72066e-08
0.0291685 -1.41205e-07 -8.68107e-08
0.0196 -2.80852e-06 -2.57591e-06
0.019601 -0.00587065 -0.00274492
0.0190629 -0.0130974 -0.0064683
0.01597 -0.0160908 -0.00667281
0.0109424 -0.0150654 -0.0066826
0.00175938 -0.00620418 -0.00503252
7.28183e-05 -6.68712e-05 -0.00129686
3.32646e-05 -3.32646e-05 -4.04422e-08
-3.29874e-05 3.42257e-05 0.000251341
0.00399197 0.0028559 0.000533169
0.00918058 0.00671339 0.000461178
0.0121039 0.00704601 0.000112888
0.0153512 0.00548313 -0.000263216
0.0185061 0.00386858 -0.000411454
0.0212062 0.00258268 -0.000394832
0.0233903 0.00158806 -0.000310872
0.0251125 0.00085795 -0.000210949
0.0264371 0.00037664 -0.000115803
0.0274193 9.88738e-05 -3.79987e-05
0.0281168 -4.13794e-05 1.36824e-05
0.0285932 -0.000102346 3.84758e-05
0.0289089 -0.000121507 4.32146e-05
0.0291136 -0.00011922 3.71649e-05
0.0292438 -0.000106336 2.76403e-05
0.0293253 -8.9123e-05 1.86883e-05
0.0293753 -7.13668e-05 1.17958e-05
0.0294054 -5.51937e-05 7.05655e-06
0.0294231 -4.15582e-05 4.03335e-06
0.0294333 -3.0656e-05 2.20829e-06
0.0294391 -2.22641e-05 1.15459e-06
0.0294422 -1.59812e-05 5.70067e-07
0.0294438 -1.13717e-05 2.58618e-07
0.0294446 -8.04015e-06 1.00184e-07
0.029445 -5.65827e-06 2.44335e-08
0.0294451 -3.96882e-06 -8.35439e-09
0.0294452 -2.77735e-06 -1.98717e-08
0.0294452 -1.94055e-06 -2.15648e-08
0.0294451 -1.35465e-06 -1.9238e-08
0.0294451 -9.45414e-07 -1.56845e-08
0.029445 -6.60215e-07 -1.21411e-08
0.029445 -4.61996e-07 -9.07075e-09
0.029445 -3.24827e-07 -6.58424e-09
0.029445 -2.30729e-07 -4.6566e-09
0.029445 -1.6736e-07 -3.23579e-09
0.029445 -1.26173e-07 -2.38464e-09
0.0294449 -1.00601e-07 -2.30097e-09
0.0294449 -8.48983e-08 -3.28204e-09
0.0294449 -7.25659e-08 -6.54853e-09
0.0294449 -5.58308e-08 -2.37005e-08
0.0294448 -2.12679e-08 -6.35175e-08
0.0294447 2.83052e-09 -8.86545e-08
0.0196 -1.34806e-06 -3.58258e-06
0.0195999 -0.00366783 -0.00312286
0.0187893 -0.00803189 -0.00650601
0.0175452 -0.00802522 -0.00604906
0.0132464 -0.0041828 -0.00555025
0.00915116 0.00266259 -0.00531425
0.00616642 0.00318558 -0.00308225
7.29773e-05 -6.07651e-05 -0.00065609
2.77777e-05 -2.77777e-05 -1.27318e-07
-3.24322e-05 3.35427e-05 8.93508e-05
0.00281981 0.00208979 0.00035032
0.00721436 0.00332248 0.000261478
0.0125313 0.00169706 -0.00014114
0.0171863 0.000523555 -0.000310731
0.0207831 -0.000117934 -0.000319606
0.0234389 -0.000513199 -0.000274308
0.0253698 -0.000750843 -0.000218985
0.0267493 -0.000831851 -0.00015792
0.0277001 -0.000781378 -9.43546e-05
0.0283225 -0.000658428 -4.0379e-05
0.0287079 -0.000518307 -5.40446e-06
0.0289343 -0.000391764 1.07357e-05
0.0290607 -0.000288756 1.43337e-05
0.0291275 -0.000209037 1.20857e-05
0.0291605 -0.000149115 8.33559e-06
0.029175 -0.000105047 5.05189e-06
0.02918 -7.3248e-05 2.75812e-06
0.0291805 -5.06788e-05 1.35396e-06
0.0291791 -3.48755e-05 5.7512e-07
0.0291772 -2.39223e-05 1.81047e-07
0.0291753 -1.63841e-05 2.4737e-09
0.0291737 -1.12186e-05 -6.49157e-08
0.0291724 -7.68662e-06 -7.9879e-08
0.0291714 -5.27282e-06 -7.31232e-08
0.0291706 -3.62232e-06 -5.95081e-08
0.02917 -2.4924e-06 -4.5542e-08
0.0291696 -1.71772e-06 -3.36198e-08
0.0291694 -1.1858e-06 -2.42679e-08
0.0291692 -8.20119e-07 -1.72648e-08
0.029169 -5.68551e-07 -1.21612e-08
0.0291689 -3.95536e-07 -8.50148e-09
0.0291688 -2.7676e-07 -5.92221e-09
0.0291688 -1.95482e-07 -4.19135e-09
0.0291687 -1.39901e-07 -3.19269e-09
0.0291687 -1.01272e-07 -2.97688e-09
0.0291687 -7.24982e-08 -3.59387e-09
0.0291686 -4.71571e-08 -5.11834e-09
0.0291686 -1.80384e-08 -8.33812e-09
0.0291686 2.64896e-08 -2.28027e-08
0.0291685 1.0001e-07 -5.59076e-08
0.0291684 1.45536e-07 -7.67593e-08
0.018 -8.64289e-07 -3.5687e-06
0.0180009 -0.0019942 -0.00304512
0.018326 -0.00382713 -0.00614901
0.0183982 -0.00258012 -0.00528635
0.0174025 0.000731048 -0.00421416
0.0171406 0.00715429 -0.00396768
0.0178754 0.0126113 -0.00296808
0.0109904 0.00693439 -0.00146135
7.44773e-05 -4.70529e-05 -0.000425442
-2.54828e-05 -5.47242e-05 5.55195e-07
7.87001e-06 -0.000629263 0.000743095
0.00839865 -0.00269189 0.0010873
0.0158207 -0.00429551 0.000478797
0.0208684 -0.0040915 0.000190736
0.0240444 -0.00335515 7.60916e-05
0.0259873 -0.0026962 1.24985e-06
0.0271467 -0.00218982 -7.12448e-05
0.0278023 -0.00175544 -0.000119315
0.0281322 -0.00135044 -0.000124544
0.0282606 -0.000989209 -9.8096e-05
0.0282767 -0.000695899 -6.33186e-05
0.0282404 -0.000476486 -3.54562e-05
0.0281874 -0.000321011 -1.81226e-05
0.0281356 -0.000214237 -8.92842e-06
0.0280922 -0.000142201 -4.50242e-06
0.0280586 -9.41305e-05 -2.44625e-06
0.028034 -6.2283e-05 -1.45675e-06
0.0280164 -4.12744e-05 -9.30816e-07
0.0280041 -2.74378e-05 -6.16137e-07
0.0279955 -1.83163e-05 -4.11169e-07
0.0279897 -1.22851e-05 -2.72631e-07
0.0279857 -8.27976e-06 -1.78616e-07
0.027983 -5.60598e-06 -1.15542e-07
0.0279811 -3.81149e-06 -7.39093e-08
0.0279798 -2.6009e-06 -4.68652e-08
0.0279789 -1.78041e-06 -2.95368e-08
0.0279783 -1.22206e-06 -1.85521e-08
0.0279779 -8.40867e-07 -1.16423e-08
0.0279776 -5.79966e-07 -7.31826e-09
0.0279774 -4.01094e-07 -4.62311e-09
0.0279772 -2.78312e-07 -2.95752e-09
0.0279771 -1.93844e-07 -1.9717e-09
0.027977 -1.35283e-07 -1.49039e-09
0.027977 -9.36806e-08 -1.42419e-09
0.027977 -6.2188e-08 -1.78444e-09
0.0279769 -3.5001e-08 -2.52415e-09
0.0279769 -6.33747e-09 -3.59998e-09
0.0279769 3.07175e-08 -5.55946e-09
0.0279768 8.91881e-08 -1.37428e-08
0.0279768 1.79284e-07 -3.78225e-08
0.0279768 2.32522e-07 -5.50507e-08
0.0148 -4.85342e-07 -3.16148e-06
0.0148015 -0.00102379 -0.00282205
0.0162393 -0.00160461 -0.00541483
0.0178302 4.33072e-05 -0.00429711
0.0191993 0.00326345 -0.00309791
0.0209793 0.00741331 -0.00287399
0.0248003 0.01298 -0.00241049
0.0280881 0.0195336 -0.00149186
0.0230801 0.0113281 -0.000324774
0.0235197 5.80682e-11 0.000629876
0.0266656 -0.00667338 0.00155849
0.0301907 -0.0130453 0.00210911
0.0311483 -0.011035 0.00165327
0.0306312 -0.00779836 0.00118625
0.029597 -0.00521964 0.000758253
0.028518 -0.00349253 0.000386596
0.0275699 -0.00236617 9.29899e-05
0.0267937 -0.0015983 -9.0046e-05
0.026184 -0.00105546 -0.000157593
0.0257211 -0.000677648 -0.000146541
0.025381 -0.00042697 -0.000105157
0.0251383 -0.000267911 -6.47089e-05
0.0249698 -0.000169328 -3.60592e-05
0.0248552 -0.000108362 -1.88359e-05
0.0247787 -7.02583e-05 -9.43711e-06
0.0247281 -4.60898e-05 -4.60131e-06
0.024695 -3.05393e-05 -2.19887e-06
0.0246733 -2.04081e-05 -1.02912e-06
0.0246591 -1.37361e-05 -4.66445e-07
0.0246498 -9.30095e-06 -1.98676e-07
0.0246436 -6.32871e-06 -7.33695e-08
0.0246395 -4.32314e-06 -1.6693e-08
0.0246367 -2.96216e-06 7.11723e-09
0.0246348 -2.03442e-06 1.54448e-08
0.0246336 -1.39977e-06 1.67584e-08
0.0246327 -9.64461e-07 1.51647e-08
0.0246321 -6.65303e-07 1.26174e-08
0.0246317 -4.59439e-07 1.00032e-08
0.0246314 -3.17645e-07 7.6819e-09
0.0246312 -2.19882e-07 5.75906e-09
0.0246311 -1.52308e-07 4.22312e-09
0.024631 -1.05244e-07 3.0096e-09
0.0246309 -7.17686e-08 2.03576e-09
0.0246309 -4.67076e-08 1.23715e-09
0.0246308 -2.58519e-08 5.37323e-10
0.0246308 -5.33667e-09 -4.53977e-11
0.0246308 1.9112e-08 -4.03719e-10
0.0246308 5.2324e-08 -9.16253e-10
0.0246308 1.02432e-07 -3.44912e-09
0.0246309 1.7333e-07 -2.02478e-08
0.0246309 2.13549e-07 -3.49171e-08
0.01 -9.26083e-07 -2.86112e-06
0.0100008 -0.000628186 -0.0022985
0.0113356 -0.000691476 -0.00414039
0.0132373 0.000588007 -0.00292801
0.0157342 0.00256324 -0.00185208
0.0196994 0.00560318 -0.00186142