# vtk DataFile Version 2.0
Tobias Weinzierl: CPU, Manycore and Cluster Computing
ASCII

DATASET STRUCTURED_POINTS
DIMENSIONS  51 11 6

ORIGIN 0 0 0 

SPACING 0.1 0.1 0.1 

POINT_DATA 3366

VECTORS velocity float
0 0 0
-3.86379e-13 0 0
-4.00439e-11 0 0
2.05192e-10 0 0
-2.36283e-09 0 0
2.43202e-09 0 0
3.55874e-09 0 0
3.60562e-09 0 0
3.77209e-09 0 0
4.19914e-09 0 0
4.50556e-09 0 0
4.39975e-09 0 0
3.87607e-09 0 0
2.94644e-09 0 0
1.5406e-09 0 0
-1.45133e-10 0 0
-1.64732e-09 0 0
-2.65888e-09 0 0
-3.26813e-09 0 0
-3.77727e-09 0 0
-4.41713e-09 0 0
-5.23281e-09 0 0
-6.13539e-09 0 0
-7.0014e-09 0 0
-7.73987e-09 0 0
-8.31183e-09 0 0
-8.72022e-09 0 0
-8.99107e-09 0 0
-9.15769e-09 0 0
-9.25134e-09 0 0
-9.29732e-09 0 0
-9.31422e-09 0 0
-9.31479e-09 0 0
-9.30728e-09 0 0
-9.29666e-09 0 0
-9.2857e-09 0 0
-9.27582e-09 0 0
-9.26754e-09 0 0
-9.26095e-09 0 0
-9.25589e-09 0 0
-9.25212e-09 0 0
-9.24938e-09 0 0
-9.24743e-09 0 0
-9.24608e-09 0 0
-9.24517e-09 0 0
-9.24458e-09 0 0
-9.24424e-09 0 0
-9.2441e-09 0 0
-9.24413e-09 0 0
-9.24448e-09 0 0
0.00191268 0 0
0 3.86718e-07 0
-9.70862e-13 -2.50046e-10 0
-8.90069e-11 -1.15079e-09 0
1.15764e-09 -3.50572e-10 0
-8.14492e-10 -2.10921e-09 0
7.41923e-09 -2.57011e-09 0
8.76325e-09 7.26448e-10 0
8.82245e-09 5.39842e-10 0
1.02293e-08 -9.81945e-10 0
1.22636e-08 -2.20381e-09 0
1.36185e-08 -2.77691e-09 0
1.37307e-08 -2.62742e-09 0
1.24274e-08 -1.46474e-09 0
9.81732e-09 5.10334e-10 0
6.3246e-09 2.26607e-09 0
2.71909e-09 2.8771e-09 0
-2.79057e-10 2.38476e-09 0
-2.51375e-09 1.51939e-09 0
-4.41343e-09 9.22134e-10 0
-6.52134e-09 7.58835e-10 0
-9.08521e-09 8.55241e-10 0
-1.1989e-08 9.80761e-10 0
-1.49177e-08 1.00656e-09 0
-1.75571e-08 9.15932e-10 0
-1.97111e-08 7.51213e-10 0
-2.13228e-08 5.6421e-10 0
-2.2438e-08 3.91814e-10 0
-2.3153e-08 2.51872e-10 0
-2.35745e-08 1.48168e-10 0
-2.37968e-08 7.68423e-11 0
-2.38932e-08 3.11415e-11 0
-2.3916e-08 4.11034e-12 0
-2.39e-08 -1.02003e-11 0
-2.38668e-08 -1.63891e-11 0
-2.3829e-08 -1.77635e-11 0
-2.37932e-08 -1.65604e-11 0
-2.37623e-08 -1.42018e-11 0
-2.37372e-08 -1.15294e-11 0
-2.37176e-08 -8.99515e-12 0
-2.37028e-08 -6.80458e-12 0
-2.36919e-08 -5.01804e-12 0
-2.3684e-08 -3.61772e-12 0
-2.36784e-08 -2.54989e-12 0
-2.36745e-08 -1.74923e-12 0
-2.36719e-08 -1.15078e-12 0
-2.36702e-08 -6.95442e-13 0
-2.36692e-08 -3.24911e-13 0
-2.36688e-08 3.36164e-14 0
-2.3669e-08 5.6796e-13 0
-2.36701e-08 1.77378e-12 0
0.0055041 -1.74872e-08 0
0 -1.95795e-08 0
-5.25001e-13 -3.71337e-10 0
7.77001e-10 -2.75048e-09 0
4.27395e-09 -5.59828e-09 0
7.34644e-09 -9.89825e-09 0
1.32709e-08 -7.29097e-09 0
1.03618e-08 -1.7118e-10 0
9.42758e-09 -6.90549e-10 0
1.1465e-08 -3.95702e-09 0
1.53703e-08 -7.11102e-09 0
1.72845e-08 -9.86071e-09 0
1.6535e-08 -1.12482e-08 0
1.41321e-08 -9.6272e-09 0
1.04934e-08 -5.26086e-09 0
6.30884e-09 -2.33635e-10 0
2.35584e-09 3.77974e-09 0
-8.54118e-10 6.32202e-09 0
-3.3173e-09 7.56705e-09 0
-5.41931e-09 7.84124e-09 0
-7.59865e-09 7.47437e-09 0
-1.00882e-08 6.7261e-09 0
-1.28381e-08 5.76211e-09 0
-1.55979e-08 4.6944e-09 0
-1.80753e-08 3.62277e-09 0
-2.00679e-08 2.6383e-09 0
-2.15102e-08 1.80596e-09 0
-2.24487e-08 1.15393e-09 0
-2.29884e-08 6.77587e-10 0
-2.32466e-08 3.51872e-10 0
-2.33257e-08 1.43747e-10 0
-2.33031e-08 2.08418e-11 0
-2.32312e-08 -4.42024e-11 0
-2.31426e-08 -7.24295e-11 0
-2.30554e-08 -7.89039e-11 0
-2.29785e-08 -7.37599e-11 0
-2.29149e-08 -6.34065e-11 0
-2.28647e-08 -5.16189e-11 0
-2.28263e-08 -4.04169e-11 0
-2.27977e-08 -3.07189e-11 0
-2.27768e-08 -2.2798e-11 0
-2.27618e-08 -1.65835e-11 0
-2.27512e-08 -1.18468e-11 0
-2.27438e-08 -8.30926e-12 0
-2.27388e-08 -5.69898e-12 0
-2.27354e-08 -3.77209e-12 0
-2.27333e-08 -2.3142e-12 0
-2.27321e-08 -1.1083e-12 0
-2.27316e-08 1.50311e-13 0
-2.27319e-08 1.83193e-12 0
-2.27331e-08 4.3068e-12 0
0.00793417 -4.2438e-08 0
0 -6.3985e-07 0
5.55561e-13 -1.55265e-09 0
1.84142e-09 -5.61857e-09 0
6.37468e-09 -1.07963e-08 0
8.48425e-09 -1.49963e-08 0
8.28371e-09 -8.26875e-09 0
5.15634e-09 -4.85323e-12 0
4.21072e-09 -1.26753e-09 0
3.58424e-09 -5.59349e-09 0
4.88769e-09 -1.1741e-08 0
6.41364e-09 -1.72069e-08 0
5.79868e-09 -2.01476e-08 0
4.18103e-09 -1.8679e-08 0
1.0595e-09 -1.29547e-08 0
-3.20952e-09 -4.80363e-09 0
-7.73487e-09 3.83028e-09 0
-1.14639e-08 1.08164e-08 0
-1.36298e-08 1.4601e-08 0
-1.40785e-08 1.51047e-08 0
-1.32952e-08 1.34342e-08 0
-1.20706e-08 1.08805e-08 0
-1.10394e-08 8.27926e-09 0
-1.04403e-08 5.98488e-09 0
-1.01904e-08 4.09199e-09 0
-1.00926e-08 2.60326e-09 0
-9.99091e-09 1.49159e-09 0
-9.81811e-09 7.11636e-10 0
-9.57563e-09 2.04162e-10 0
-9.29571e-09 -9.54712e-11 0
-9.01374e-09 -2.48107e-10 0
-8.75548e-09 -3.04672e-10 0
-8.53464e-09 -3.03955e-10 0
-8.35525e-09 -2.73201e-10 0
-8.21516e-09 -2.30102e-10 0
-8.10909e-09 -1.85198e-10 0
-8.03074e-09 -1.44076e-10 0
-7.97402e-09 -1.0914e-10 0
-7.93363e-09 -8.09142e-11 0
-7.90526e-09 -5.89253e-11 0
-7.88557e-09 -4.22618e-11 0
-7.87203e-09 -2.99011e-11 0
-7.86283e-09 -2.08811e-11 0
-7.85663e-09 -1.43732e-11 0
-7.85252e-09 -9.69981e-12 0
-7.84987e-09 -6.31657e-12 0
-7.84825e-09 -3.7711e-12 0
-7.84737e-09 -1.6613e-12 0
-7.84698e-09 3.80828e-13 0
-7.84683e-09 2.59726e-12 0
-7.84703e-09 4.92799e-12 0
0.00899544 -4.70034e-08 0
0 -1.25526e-06 0
-4.93669e-13 -3.01901e-09 0
5.48492e-10 -8.4837e-09 0
2.27521e-09 -1.12565e-08 0
2.06124e-09 -9.11427e-09 0
-5.93718e-13 -3.32439e-09 0
-3.64484e-11 -3.75481e-11 0
3.55844e-11 -3.64924e-11 0
-1.42356e-09 -3.54644e-09 0
-7.11474e-09 -1.24359e-08 0
-1.02209e-08 -2.17541e-08 0
-9.61305e-09 -2.73049e-08 0
-1.00701e-08 -2.63128e-08 0
-1.24927e-08 -1.82916e-08 0
-1.60413e-08 -6.14309e-09 0
-1.96307e-08 6.42123e-09 0
-2.22305e-08 1.56102e-08 0
-2.29022e-08 1.93454e-08 0
-2.11261e-08 1.82014e-08 0
-1.72526e-08 1.43796e-08 0
-1.23818e-08 9.99863e-09 0
-7.69062e-09 6.2233e-09 0
-3.87437e-09 3.37872e-09 0
-1.07042e-09 1.38987e-09 0
9.04788e-10 8.45359e-11 0
2.30577e-09 -6.98851e-10 0
3.33165e-09 -1.09758e-09 0
4.10506e-09 -1.22917e-09 0
4.69485e-09 -1.19159e-09 0
5.14202e-09 -1.06101e-09 0
5.47556e-09 -8.91515e-10 0
5.71923e-09 -7.177e-10 0
5.89349e-09 -5.58916e-10 0
6.01565e-09 -4.23868e-10 0
6.09977e-09 -3.14568e-10 0
6.15679e-09 -2.29305e-10 0
6.19494e-09 -1.64659e-10 0
6.22016e-09 -1.16741e-10 0
6.23667e-09 -8.1864e-11 0
6.24738e-09 -5.68505e-11 0
6.25427e-09 -3.91211e-11 0
6.25865e-09 -2.66654e-11 0
6.26142e-09 -1.796e-11 0
6.26312e-09 -1.18692e-11 0
6.26414e-09 -7.54847e-12 0
6.26474e-09 -4.37193e-12 0
6.26515e-09 -1.89726e-12 0
6.26565e-09 1.364e-13 0
6.26648e-09 1.83474e-12 0
6.26721e-09 3.20633e-12 0
0.00941039 -2.64972e-08 0
0 -1.13758e-06 0
-2.3647e-12 -3.05333e-09 0
-1.44606e-09 -6.98364e-09 0
-1.68118e-09 -8.69128e-09 0
-2.8812e-09 -8.74038e-09 0
-2.0883e-09 -3.98009e-09 0
-3.59515e-11 3.50227e-11 0
5.60292e-13 -5.60292e-13 0
3.54703e-11 -3.56994e-11 0
-4.69654e-09 -6.33898e-09 0
-1.56914e-08 -2.06417e-08 0
-1.91197e-08 -3.04468e-08 0
-2.14366e-08 -2.89856e-08 0
-2.35711e-08 -1.92598e-08 0
-2.48656e-08 -5.39687e-09 0
-2.51803e-08 8.11803e-09 0
-2.46808e-08 1.71545e-08 0
-2.31336e-08 1.9781e-08 0
-1.99024e-08 1.70418e-08 0
-1.48405e-08 1.16955e-08 0
-8.74387e-09 6.25335e-09 0
-2.8257e-09 2.00151e-09 0
2.03161e-09 -8.14104e-10 0
5.55247e-09 -2.42612e-09 0
7.89674e-09 -3.16365e-09 0
9.38008e-09 -3.31425e-09 0
1.02953e-08 -3.10377e-09 0
1.08541e-08 -2.70264e-09 0
1.11925e-08 -2.23193e-09 0
1.13946e-08 -1.7694e-09 0
1.15121e-08 -1.35789e-09 0
1.15774e-08 -1.01509e-09 0
1.16114e-08 -7.42759e-10 0
1.16269e-08 -5.34024e-10 0
1.16321e-08 -3.78428e-10 0
1.16321e-08 -2.6497e-10 0
1.16296e-08 -1.83682e-10 0
1.16264e-08 -1.2626e-10 0
1.16231e-08 -8.61557e-11 0
1.16202e-08 -5.83987e-11 0
1.16178e-08 -3.93211e-11 0
1.16159e-08 -2.62711e-11 0
1.16145e-08 -1.73593e-11 0
1.16134e-08 -1.12545e-11 0
1.16126e-08 -7.03444e-12 0
1.16122e-08 -4.08663e-12 0
1.16122e-08 -2.03426e-12 0
1.16126e-08 -6.65081e-13 0
1.16136e-08 8.80101e-14 0
1.16145e-08 3.43014e-13 0
0.0095154 7.4178e-09 0
0 -7.83782e-07 0
-1.63569e-12 -1.79171e-09 0
-1.44988e-09 -4.57261e-09 0
-1.38039e-09 -6.01312e-09 0
-3.66109e-09 -6.40587e-09 0
-4.96796e-09 -4.83145e-09 0
-2.29032e-09 -1.65762e-09 0
-3.50677e-11 3.49781e-11 0
4.9053e-13 -4.9053e-13 0
3.57334e-11 -3.52082e-11 0
-7.22851e-09 -1.16371e-08 0
-1.76247e-08 -2.66082e-08 0
-2.44491e-08 -2.64675e-08 0
-2.77006e-08 -1.64349e-08 0
-2.78353e-08 -2.97029e-09 0
-2.52925e-08 8.9851e-09 0
-2.13179e-08 1.59741e-08 0
-1.70524e-08 1.68553e-08 0
-1.26317e-08 1.30154e-08 0
-7.79432e-09 7.20704e-09 0
-2.7752e-09 1.80677e-09 0
1.7182e-09 -2.05257e-09 0
5.08125e-09 -4.26339e-09 0
7.15276e-09 -5.17521e-09 0
8.14446e-09 -5.21343e-09 0
8.41085e-09 -4.73786e-09 0
8.27631e-09 -4.01723e-09 0
7.96879e-09 -3.23516e-09 0
7.62217e-09 -2.50297e-09 0
7.3028e-09 -1.87591e-09 0
7.0362e-09 -1.37075e-09 0
6.82636e-09 -9.81565e-10 0
6.66742e-09 -6.91636e-10 0
6.55024e-09 -4.81125e-10 0
6.46551e-09 -3.31268e-10 0
6.40512e-09 -2.26208e-10 0
6.36253e-09 -1.53422e-10 0
6.33274e-09 -1.03456e-10 0
6.31204e-09 -6.94008e-11 0
6.29771e-09 -4.63174e-11 0
6.28784e-09 -3.07346e-11 0
6.28108e-09 -2.02432e-11 0
6.27648e-09 -1.31893e-11 0
6.27339e-09 -8.45419e-12 0
6.27141e-09 -5.29771e-12 0
6.27026e-09 -3.24408e-12 0
6.26977e-09 -2.00522e-12 0
6.26987e-09 -1.43848e-12 0
6.27044e-09 -1.59451e-12 0
6.27093e-09 -2.46276e-12 0
0.00941037 3.85462e-08 0
0 -5.4912e-07 0
-3.72911e-13 -1.09506e-09 0
-5.36876e-10 -3.00382e-09 0
-7.07972e-10 -4.52992e-09 0
-2.6709e-09 -4.75907e-09 0
-5.94319e-09 -2.84717e-09 0
-6.62363e-09 -4.81515e-10 0
-4.08544e-09 2.27672e-10 0
-3.69374e-11 3.30198e-11 0
3.57299e-11 3.03061e-11 0
2.56804e-12 -6.45817e-09 0
-1.03907e-08 -1.68892e-08 0
-2.24427e-08 -1.76032e-08 0
-2.999e-08 -8.26354e-09 0
-3.09992e-08 2.86974e-09 0
-2.58897e-08 1.04533e-08 0
-1.77597e-08 1.28947e-08 0
-1.02105e-08 1.0847e-08 0
-4.9474e-09 6.24125e-09 0
-1.7494e-09 1.32162e-09 0
1.1389e-10 -2.40791e-09 0
1.0234e-09 -4.52451e-09 0
1.08316e-09 -5.30111e-09 0
4.22901e-10 -5.20543e-09 0
-7.11458e-10 -4.63707e-09 0
-2.03842e-09 -3.87132e-09 0
-3.33351e-09 -3.07983e-09 0
-4.46494e-09 -2.35923e-09 0
-5.38237e-09 -1.75359e-09 0
-6.08831e-09 -1.27261e-09 0
-6.6115e-09 -9.0633e-10 0
-6.98885e-09 -6.36049e-10 0
-7.2557e-09 -4.41281e-10 0
-7.44175e-09 -3.03403e-10 0
-7.57016e-09 -2.07094e-10 0
-7.65814e-09 -1.40497e-10 0
-7.71812e-09 -9.48021e-11 0
-7.75886e-09 -6.36416e-11 0
-7.78645e-09 -4.24995e-11 0
-7.8051e-09 -2.82166e-11 0
-7.81768e-09 -1.8605e-11 0
-7.82612e-09 -1.2164e-11 0
-7.83176e-09 -7.87474e-12 0
-7.83547e-09 -5.05339e-12 0
-7.83786e-09 -3.25013e-12 0
-7.83934e-09 -2.18202e-12 0
-7.84018e-09 -1.69763e-12 0
-7.84052e-09 -1.7746e-12 0
-7.84058e-09 -2.57945e-12 0
-7.84089e-09 -4.21475e-12 0
0.00899543 5.20566e-08 0
0 -4.65383e-07 0
-3.41612e-13 -5.69442e-10 0
9.54579e-11 -1.65595e-09 0
-4.94691e-10 -2.63681e-09 0
-3.28977e-09 -2.93198e-09 0
-7.69299e-09 -9.36476e-10 0
-9.95676e-09 1.74457e-09 0
-9.5311e-09 -8.8083e-10 0
-6.29731e-09 -2.1803e-09 0
-5.00836e-09 -6.45771e-14 0
-3.74394e-09 -4.29591e-09 0
-1.15919e-08 -8.97351e-09 0
-2.51496e-08 -6.34874e-09 0
-3.38937e-08 6.50344e-10 0
-3.25725e-08 6.96158e-09 0
-2.31288e-08 9.25802e-09 0
-1.17689e-08 7.51816e-09 0
-4.00982e-09 3.49515e-09 0
-1.51153e-09 -6.53921e-10 0
-2.74958e-09 -3.39308e-09 0
-5.51255e-09 -4.37804e-09 0
-8.43857e-09 -4.1506e-09 0
-1.10744e-08 -3.4262e-09 0
-1.33824e-08 -2.66287e-09 0
-1.53944e-08 -2.03095e-09 0
-1.71147e-08 -1.54519e-09 0
-1.8536e-08 -1.17415e-09 0
-1.96658e-08 -8.87211e-10 0
-2.0532e-08 -6.63852e-10 0
-2.11763e-08 -4.90758e-10 0
-2.16442e-08 -3.58216e-10 0
-2.19776e-08 -2.58253e-10 0
-2.2212e-08 -1.84025e-10 0
-2.2375e-08 -1.29711e-10 0
-2.24875e-08 -9.05e-11 0
-2.25647e-08 -6.25346e-11 0
-2.26174e-08 -4.28097e-11 0
-2.26532e-08 -2.90375e-11 0
-2.26775e-08 -1.95116e-11 0
-2.26939e-08 -1.29818e-11 0
-2.27049e-08 -8.54685e-12 0
-2.27123e-08 -5.56727e-12 0
-2.27172e-08 -3.5965e-12 0
-2.27205e-08 -2.32968e-12 0
-2.27226e-08 -1.56886e-12 0
-2.2724e-08 -1.20057e-12 0
-2.2725e-08 -1.18502e-12 0
-2.27257e-08 -1.55246e-12 0
-2.27265e-08 -2.42238e-12 0
-2.27279e-08 -3.88812e-12 0
0.00793419 4.06738e-08 0
0 -4.79573e-07 0
1.8859e-13 -6.12197e-11 0
4.20001e-10 -2.85012e-10 0
-4.80214e-10 -5.86525e-10 0
-3.84573e-09 -7.14131e-10 0
-8.98023e-09 -5.21109e-10 0
-1.19904e-08 6.67072e-10 0
-1.16411e-08 3.00549e-10 0
-1.35832e-08 -9.97311e-10 0
-1.25836e-08 -9.26321e-10 0
-1.07996e-08 -8.51559e-10 0
-1.44729e-08 4.9786e-10 0
-2.01856e-08 2.64439e-09 0
-2.27204e-08 3.75894e-09 0
-1.88695e-08 3.62388e-09 0
-1.07381e-08 2.36659e-09 0
-3.40733e-09 4.28956e-10 0
-5.76015e-10 -1.3746e-09 0
-2.3757e-09 -2.33002e-09 0
-6.58213e-09 -2.31988e-09 0
-1.09617e-08 -1.74575e-09 0
-1.44283e-08 -1.08607e-09 0
-1.68651e-08 -6.02546e-10 0
-1.85462e-08 -3.33845e-10 0
-1.97573e-08 -2.14543e-10 0
-2.06794e-08 -1.6981e-10 0
-2.14045e-08 -1.5118e-10 0
-2.19773e-08 -1.36458e-10 0
-2.24241e-08 -1.19194e-10 0
-2.27659e-08 -9.97036e-11 0
-2.30222e-08 -8.00626e-11 0
-2.32108e-08 -6.20626e-11 0
-2.33473e-08 -4.66981e-11 0
-2.34448e-08 -3.42634e-11 0
-2.35137e-08 -2.46025e-11 0
-2.35618e-08 -1.73344e-11 0
-2.35951e-08 -1.20068e-11 0
-2.3618e-08 -8.18528e-12 0
-2.36336e-08 -5.49467e-12 0
-2.36442e-08 -3.63195e-12 0
-2.36513e-08 -2.36364e-12 0
-2.36561e-08 -1.51658e-12 0
-2.36593e-08 -9.66945e-13 0
-2.36614e-08 -6.30394e-13 0
-2.36629e-08 -4.55161e-13 0
-2.36639e-08 -4.15233e-13 0
-2.36647e-08 -5.06292e-13 0
-2.36655e-08 -7.28285e-13 0
-2.36666e-08 -1.06254e-12 0
-2.36684e-08 -1.57877e-12 0
0.00550413 1.43595e-08 0
0 0 0
4.18033e-13 0 0
2.58452e-10 0 0
-2.1632e-10 0 0
-1.82207e-09 0 0
-4.35014e-09 0 0
-6.36733e-09 0 0
-6.19544e-09 0 0
-7.28779e-09 0 0
-7.57533e-09 0 0
-7.05307e-09 0 0
-6.55886e-09 0 0
-5.79584e-09 0 0
-4.75758e-09 0 0
-3.01952e-09 0 0
-9.82623e-10 0 0
2.27999e-10 0 0
-1.23092e-10 0 0
-1.76062e-09 0 0
-3.81613e-09 0 0
-5.57273e-09 0 0
-6.77702e-09 0 0
-7.50755e-09 0 0
-7.94167e-09 0 0
-8.22277e-09 0 0
-8.43134e-09 0 0
-8.60184e-09 0 0
-8.74546e-09 0 0
-8.86497e-09 0 0
-8.96165e-09 0 0
-9.03751e-09 0 0
-9.09539e-09 0 0
-9.13847e-09 0 0
-9.1699e-09 0 0
-9.19243e-09 0 0
-9.20835e-09 0 0
-9.21946e-09 0 0
-9.22712e-09 0 0
-9.23237e-09 0 0
-9.23592e-09 0 0
-9.23831e-09 0 0
-9.23991e-09 0 0
-9.24098e-09 0 0
-9.24169e-09 0 0
-9.24219e-09 0 0
-9.24257e-09 0 0
-9.24291e-09 0 0
-9.24329e-09 0 0
-9.24381e-09 0 0
-9.24462e-09 0 0
0.0019127 0 0
0 0 5.36553e-07
-8.92688e-13 0 2.89578e-10
-6.75063e-10 0 9.447e-10
4.50244e-10 0 2.67285e-09
-8.3462e-09 0 -1.1813e-10
3.98994e-09 0 -3.35196e-09
7.85771e-09 0 -1.90055e-09
8.94956e-09 0 -7.53689e-10
9.48699e-09 0 3.87938e-10
1.01888e-08 0 1.46985e-09
1.16183e-08 0 2.57581e-09
1.40466e-08 0 3.25643e-09
1.67577e-08 0 2.91758e-09
1.82774e-08 0 1.82467e-09
1.72073e-08 0 8.25044e-10
1.35002e-08 0 3.10377e-10
8.45769e-09 0 1.28538e-10
3.48012e-09 0 1.00981e-10
-8.96603e-10 0 1.9583e-10
-4.86613e-09 0 3.89751e-10
-8.72693e-09 0 5.99893e-10
-1.25213e-08 0 7.37095e-10
-1.6064e-08 0 7.61644e-10
-1.91251e-08 0 6.88176e-10
-2.15648e-08 0 5.58844e-10
-2.33673e-08 0 4.15783e-10
-2.46085e-08 0 2.87084e-10
-2.54063e-08 0 1.85257e-10
-2.58822e-08 0 1.11776e-10
-2.61401e-08 0 6.24746e-11
-2.62596e-08 0 3.14352e-11
-2.62971e-08 0 1.30822e-11
-2.62902e-08 0 2.99381e-12
-2.62625e-08 0 -2.00835e-12
-2.62278e-08 0 -4.05779e-12
-2.61937e-08 0 -4.50985e-12
-2.61635e-08 0 -4.18259e-12
-2.61387e-08 0 -3.5432e-12
-2.61191e-08 0 -2.84055e-12
-2.61042e-08 0 -2.19392e-12
-2.60931e-08 0 -1.64967e-12
-2.6085e-08 0 -1.21562e-12
-2.60792e-08 0 -8.81522e-13
-2.60752e-08 0 -6.30695e-13
-2.60725e-08 0 -4.45579e-13
-2.60707e-08 0 -3.12514e-13
-2.60697e-08 0 -2.24979e-13
-2.60692e-08 0 -1.9811e-13
-2.60693e-08 0 -2.23559e-13
-2.60703e-08 0 3.6616e-14
0.00543689 0 -9.9455e-10
0.0036 -3.07156e-07 -6.2232e-08
0.0035998 -0.00138994 -2.24074e-05
0.00670326 -0.00393582 0.000111314
0.0136128 -0.00588253 -0.000499898
0.0235069 -0.0144753 -0.00427099
0.0463814 -0.0134319 -0.00488621
0.0499121 -0.00193632 -0.00164519
0.0496533 0.00263284 -0.000162744
0.0446698 0.00495714 0.000573079
0.0390679 0.00512156 0.000565512
0.0339726 0.00445125 0.00030218
0.0296964 0.00356665 3.04539e-05
0.0263035 0.00269732 -0.000165114
0.0237236 0.00194138 -0.000266424
0.0218038 0.00134404 -0.000285988
0.0203728 0.000910712 -0.000249332
0.0192908 0.000618035 -0.000184427
0.018463 0.000429555 -0.000115232
0.0178303 0.000308626 -5.773e-05
0.0173533 0.000226955 -1.84754e-05
0.0170023 0.000167239 3.45009e-06
0.0167521 0.000120999 1.26691e-05
0.01658 8.47675e-05 1.43096e-05
0.0164663 5.70347e-05 1.23621e-05
0.0163944 3.66544e-05 9.31095e-06
0.0163514 2.23573e-05 6.40863e-06
0.0163271 1.27918e-05 4.11986e-06
0.0163147 6.6923e-06 2.49816e-06
0.0163093 2.9987e-06 1.43052e-06
0.0163079 8.95757e-07 7.66883e-07
0.0163084 -2.03505e-07 3.74886e-07
0.0163097 -6.9995e-07 1.55197e-07
0.0163113 -8.55138e-07 3.97574e-08
0.0163129 -8.32472e-07 -1.53891e-08
0.0163142 -7.29329e-07 -3.73611e-08
0.0163153 -6.00488e-07 -4.22239e-08
0.0163161 -4.74353e-07 -3.91088e-08
0.0163168 -3.63733e-07 -3.29585e-08
0.0163172 -2.72728e-07 -2.62747e-08
0.0163176 -2.00958e-07 -2.01915e-08
0.0163178 -1.46042e-07 -1.5113e-08
0.016318 -1.0497e-07 -1.10814e-08
0.0163182 -7.48142e-08 -7.98671e-09
0.0163182 -5.30319e-08 -5.6689e-09
0.0163183 -3.75763e-08 -3.96686e-09
0.0163184 -2.68673e-08 -2.69203e-09
0.0163184 -1.97534e-08 -1.54041e-09
0.0163184 -1.55503e-08 3.89629e-10
0.0163184 -1.56004e-08 3.83451e-09
0.0163185 -3.418e-08 5.27115e-10
0.0163185 -5.12848e-08 -4.88863e-09
0.01 -1.37345e-07 -1.45797e-06
0.0100007 -0.00298606 -0.000599206
0.014786 -0.00996618 -0.000794275
0.0241861 -0.0177538 -0.00123426
0.0386061 -0.0326093 -0.0033393
0.0593128 -0.0249239 -0.000816321
0.0565404 -0.0027612 0.00318354
0.0559758 0.00506987 0.00338833
0.050198 0.0100386 0.00300825
0.0447366 0.0101747 0.00212921
0.0402485 0.00908058 0.0011955
0.0365528 0.00765604 0.000456031
0.0335936 0.00619281 -6.3062e-05
0.0313231 0.00485715 -0.000370342
0.0295865 0.00373648 -0.000486956
0.0282326 0.0028407 -0.000463151
0.0271625 0.00213779 -0.000361543
0.0263226 0.00158953 -0.000237999
0.0256801 0.00116444 -0.000129719
0.0252061 0.000838065 -5.26809e-05
0.0248699 0.000590668 -7.08346e-06
0.0246413 0.000406046 1.45775e-05
0.024493 0.000270973 2.12688e-05
0.0244021 0.00017461 2.02575e-05
0.0243505 0.00010793 1.62718e-05
0.0243243 6.33724e-05 1.18574e-05
0.0243137 3.47299e-05 8.09974e-06
0.0243118 1.71035e-05 5.2794e-06
0.0243143 6.80335e-06 3.3169e-06
0.0243187 1.17955e-06 2.01948e-06
0.0243234 -1.58781e-06 1.19361e-06
0.0243277 -2.6975e-06 6.83847e-07
0.0243314 -2.90755e-06 3.77835e-07
0.0243343 -2.67691e-06 1.99184e-07
0.0243366 -2.26975e-06 9.80487e-08
0.0243383 -1.82836e-06 4.28953e-08
0.0243396 -1.42189e-06 1.42868e-08
0.0243405 -1.07777e-06 5.30725e-10
0.0243412 -8.01186e-07 -5.23332e-09
0.0243416 -5.86647e-07 -6.92057e-09
0.024342 -4.24485e-07 -6.69049e-09
0.0243422 -3.04326e-07 -5.68373e-09
0.0243424 -2.1673e-07 -4.47914e-09
0.0243425 -1.53811e-07 -3.34448e-09
0.0243426 -1.09358e-07 -2.37758e-09
0.0243426 -7.8753e-08 -1.49307e-09
0.0243427 -5.89192e-08 -2.51192e-10
0.0243427 -5.05211e-08 2.1507e-09
0.0243427 -5.81417e-08 5.38628e-09
0.0243428 -9.53192e-08 -4.46284e-09
0.0243428 -1.23995e-07 -1.59405e-08
0.0148 -9.61348e-07 -1.75201e-06
0.0148024 -0.00529892 -0.00112562
0.0204003 -0.0164491 -0.00244903
0.0275964 -0.0288986 -0.00394191
0.0322654 -0.0463185 -0.00577565
0.0307216 -0.0285898 -0.00142241
0.0269179 -1.23794e-05 0.0033041
0.0263555 0.00705272 0.00352423
0.0298453 0.0143755 0.0034391
0.0301924 0.0137714 0.00248283
0.0293999 0.0119728 0.00152826
0.0285764 0.0101225 0.000696676
0.02796 0.00825523 9.51244e-05
0.0276543 0.00653007 -0.000265833
0.0275318 0.00508395 -0.000406178
0.0274875 0.00390428 -0.000392587
0.0274772 0.00294108 -0.000299572
0.0274896 0.00216086 -0.000185752
0.027522 0.00154484 -8.65456e-05
0.0275691 0.00107478 -1.65189e-05
0.0276244 0.000727477 2.37737e-05
0.0276822 0.000477592 4.07821e-05
0.0277385 0.000302033 4.28455e-05
0.0277908 0.000181889 3.72434e-05
0.0278374 0.000102304 2.90238e-05
0.0278775 5.17111e-05 2.10201e-05
0.0279106 2.11855e-05 1.4437e-05
0.0279371 4.00214e-06 9.52181e-06
0.0279576 -4.71775e-06 6.07803e-06
0.0279731 -8.35807e-06 3.77215e-06
0.0279845 -9.15561e-06 2.28098e-06
0.0279927 -8.51594e-06 1.34404e-06
0.0279986 -7.27387e-06 7.70259e-07
0.0280027 -5.89189e-06 4.27451e-07
0.0280055 -4.60173e-06 2.27797e-07
0.0280075 -3.49986e-06 1.14747e-07
0.0280088 -2.60878e-06 5.28419e-08
0.0280098 -1.91437e-06 2.03776e-08
0.0280104 -1.38754e-06 4.37998e-09
0.0280108 -9.95855e-07 -2.72174e-09
0.0280111 -7.09227e-07 -5.22853e-09
0.0280113 -5.02156e-07 -5.50776e-09
0.0280114 -3.54227e-07 -4.82824e-09
0.0280115 -2.49741e-07 -3.83034e-09
0.0280116 -1.77029e-07 -2.7602e-09
0.0280116 -1.2813e-07 -1.60987e-09
0.0280117 -9.8407e-08 8.62652e-11
0.0280117 -8.72591e-08 2.17966e-09
0.0280117 -9.73161e-08 9.36666e-10
0.0280117 -1.24929e-07 -1.64701e-08
0.0280117 -1.41811e-07 -3.16306e-08
0.018 -1.93787e-06 -1.69879e-06
0.018003 -0.00701239 -0.00187463
0.020793 -0.0190467 -0.00492579
0.0207552 -0.0250732 -0.00634651
0.0161094 -0.0270904 -0.00763458
-1.60991e-06 -0.0140611 -0.00434023
9.73121e-05 2.61105e-05 9.2813e-07
-3.31813e-05 3.45283e-05 0.000655805
0.00655971 0.00405586 0.00144653
0.0133822 0.00918244 0.00142052
0.0167805 0.0099504 0.00101509
0.0185665 0.00896149 0.000482014
0.0202737 0.00742628 -1.89424e-06
0.0219708 0.00584232 -0.000274471
0.0234912 0.00451013 -0.000350895
0.0247718 0.00341344 -0.000310245
0.0258229 0.0025016 -0.000221462
0.0266777 0.00175732 -0.000127303
0.027366 0.00117797 -4.86549e-05
0.0279108 0.000752168 7.00302e-06
0.0283325 0.000454938 3.94659e-05
0.0286518 0.00025579 5.26265e-05
0.0288892 0.000127087 5.24159e-05
0.0290632 4.74227e-05 4.48926e-05
0.0291892 1.2223e-06 3.48167e-05
0.0292792 -2.27597e-05 2.51227e-05
0.0293426 -3.26552e-05 1.71509e-05
0.0293865 -3.42371e-05 1.11997e-05
0.0294165 -3.14296e-05 7.04449e-06
0.0294367 -2.67374e-05 4.2845e-06
0.02945 -2.1633e-05 2.52292e-06
0.0294587 -1.68894e-05 1.43632e-06
0.0294643 -1.28396e-05 7.86827e-07
0.0294678 -9.56342e-06 4.10548e-07
0.0294701 -7.01017e-06 1.99781e-07
0.0294715 -5.07387e-06 8.63193e-08
0.0294724 -3.63544e-06 2.83334e-08
0.029473 -2.58377e-06 9.14711e-10
0.0294733 -1.82446e-06 -1.03429e-08
0.0294735 -1.28171e-06 -1.35197e-08
0.0294737 -8.96929e-07 -1.2988e-08
0.0294737 -6.26056e-07 -1.10063e-08
0.0294738 -4.36652e-07 -8.67747e-09
0.0294738 -3.05313e-07 -6.48214e-09
0.0294739 -2.15578e-07 -4.52015e-09
0.0294739 -1.5637e-07 -2.82647e-09
0.0294739 -1.20605e-07 -1.26564e-09
0.0294739 -1.02687e-07 -4.9885e-10
0.0294739 -9.89792e-08 -7.3503e-09
0.0294739 -9.50212e-08 -2.80255e-08
0.0294738 -8.95647e-08 -4.18826e-08
0.0196 -2.81714e-06 -2.56186e-06
0.019601 -0.00592677 -0.00274407
0.0190542 -0.0132273 -0.00648468
0.0159318 -0.0162706 -0.00669524
0.010866 -0.0152565 -0.00669359
0.00171065 -0.00628921 -0.00504678
7.24206e-05 -6.64907e-05 -0.00130536
3.33094e-05 -3.33094e-05 -4.20535e-08
-3.25774e-05 3.37852e-05 0.000263499
0.00388025 0.00271343 0.000564399
0.00885942 0.00632257 0.000496881
0.0117644 0.00656846 0.000146882
0.0150088 0.00512989 -0.000237779
0.0181588 0.00376153 -0.000405881
0.0208562 0.0027456 -0.000403535
0.0230403 0.00195367 -0.000322834
0.0247717 0.00129908 -0.000224521
0.0261314 0.000768947 -0.000136258
0.0271858 0.000374209 -6.5883e-05
0.0279857 0.000111705 -1.42694e-05
0.0285754 -4.21704e-05 1.90119e-05
0.0289974 -0.000119456 3.56937e-05
0.0292911 -0.000148639 3.95253e-05
0.0294907 -0.000150086 3.54258e-05
0.0296235 -0.000136868 2.79027e-05
0.02971 -0.000117072 2.00415e-05
0.0297651 -9.56165e-05 1.34034e-05
0.0297995 -7.53495e-05 8.45076e-06
0.0298204 -5.77082e-05 5.05634e-06
0.0298327 -4.31931e-05 2.87502e-06
0.0298397 -3.17361e-05 1.54609e-06
0.0298436 -2.29747e-05 7.7487e-07
0.0298457 -1.64365e-05 3.48854e-07
0.0298466 -1.16495e-05 1.26544e-07
0.0298471 -8.19617e-06 1.90846e-08
0.0298472 -5.73352e-06 -2.67131e-08
0.0298472 -3.993e-06 -4.13273e-08
0.0298471 -2.77135e-06 -4.14696e-08
0.029847 -1.91851e-06 -3.58557e-08
0.029847 -1.32567e-06 -2.87454e-08
0.0298469 -9.15006e-07 -2.2017e-08
0.0298468 -6.3147e-07 -1.63391e-08
0.0298468 -4.3644e-07 -1.18233e-08
0.0298468 -3.03067e-07 -8.36725e-09
0.0298467 -2.12823e-07 -5.80642e-09
0.0298467 -1.52641e-07 -4.1288e-09
0.0298467 -1.12825e-07 -3.42244e-09
0.0298467 -8.43649e-08 -3.95637e-09
0.0298467 -5.90743e-08 -1.33441e-08
0.0298466 -2.12593e-08 -3.19446e-08
0.0298465 3.86534e-09 -4.1802e-08
0.0196 -1.35809e-06 -3.57799e-06
0.0195999 -0.00369828 -0.00312789
0.018756 -0.00812544 -0.00652577
0.0175016 -0.00816788 -0.00605614
0.0131672 -0.00434354 -0.00554436
0.0090675 0.00253695 -0.00533711
0.00614009 0.00314112 -0.00312457
7.25971e-05 -6.03842e-05 -0.000677307
2.78068e-05 -2.78068e-05 -1.27251e-07
-3.20431e-05 3.31116e-05 9.67449e-05
0.00266734 0.00187319 0.000366522
0.00692157 0.00289054 0.000266705
0.012166 0.00136921 -0.000166571
0.0167884 0.000433774 -0.000363017
0.020385 4.88487e-05 -0.000371847
0.0230716 -0.000159135 -0.00029999
0.0250598 -0.000340043 -0.000215628
0.0265219 -0.000494852 -0.000145244
0.027578 -0.000587391 -9.10074e-05
0.0283157 -0.000603688 -4.92788e-05
0.0288082 -0.000559055 -1.87185e-05
0.0291203 -0.000480862 6.25285e-07
0.0293071 -0.000392746 9.9669e-06
0.0294121 -0.000309107 1.21824e-05
0.0294665 -0.000236531 1.0557e-05
0.0294913 -0.000176912 7.62772e-06
0.0295 -0.000129794 4.8279e-06
0.0295004 -9.36785e-05 2.70935e-06
0.0294973 -6.66931e-05 1.32148e-06
0.029493 -4.69569e-05 5.10812e-07
0.0294888 -3.27747e-05 8.86877e-08
0.0294851 -2.27258e-05 -1.0005e-07
0.0294822 -1.56826e-05 -1.62206e-07
0.0294799 -1.0786e-05 -1.63276e-07
0.0294782 -7.40156e-06 -1.39781e-07
0.029477 -5.07181e-06 -1.10186e-07
0.0294761 -3.47239e-06 -8.26887e-08
0.0294754 -2.37627e-06 -6.01252e-08
0.029475 -1.62589e-06 -4.28107e-08
0.0294746 -1.11259e-06 -3.00527e-08
0.0294744 -7.6173e-07 -2.08873e-08
0.0294743 -5.2212e-07 -1.44023e-08
0.0294741 -3.58715e-07 -9.87624e-09
0.0294741 -2.47394e-07 -6.80604e-09
0.029474 -1.71269e-07 -4.88285e-09
0.029474 -1.17957e-07 -3.97678e-09
0.0294739 -7.77807e-08 -4.08994e-09
0.0294739 -4.18304e-08 -4.99579e-09
0.0294739 5.68144e-11 -1.27926e-08
0.0294738 5.98918e-08 -2.60338e-08
0.0294737 9.59124e-08 -3.20697e-08
0.018 -8.63857e-07 -3.57204e-06
0.0180009 -0.00201592 -0.0030509
0.0183132 -0.0039 -0.00616492
0.0183643 -0.00270671 -0.00528921
0.0173414 0.000584399 -0.00419226
0.0170578 0.00704256 -0.00396572
0.0177918 0.0125645 -0.00301218
0.0109237 0.0069281 -0.00150675
7.40641e-05 -4.67043e-05 -0.000439406
-2.50945e-05 -5.44169e-05 5.56761e-07
7.90375e-06 -0.000741397 0.000750662
0.0082311 -0.00294643 0.00108982
0.0154892 -0.00450069 0.00044698
0.0204334 -0.00410873 0.00012055
0.0235861 -0.0031808 -6.11364e-06
0.0255871 -0.0024062 -4.93308e-05
0.026864 -0.00189385 -6.70138e-05
0.0276625 -0.00155088 -7.78898e-05
0.0281276 -0.00127852 -8.11354e-05
0.0283595 -0.00103005 -7.37819e-05
0.0284377 -0.000801067 -5.83381e-05
0.0284254 -0.000602003 -4.07405e-05
0.0283693 -0.000440169 -2.58098e-05
0.0282992 -0.000315417 -1.53529e-05
0.0282318 -0.000222727 -8.92643e-06
0.0281745 -0.000155542 -5.2773e-06
0.0281291 -0.00010769 -3.258e-06
0.0280948 -7.40655e-05 -2.10925e-06
0.0280698 -5.0692e-05 -1.41187e-06
0.028052 -3.45826e-05 -9.58203e-07
0.0280394 -2.35494e-05 -6.49204e-07
0.0280307 -1.60244e-05 -4.35133e-07
0.0280247 -1.09042e-05 -2.8737e-07
0.0280206 -7.4235e-06 -1.86836e-07
0.0280178 -5.05722e-06 -1.19682e-07
0.0280159 -3.44753e-06 -7.56561e-08
0.0280146 -2.35158e-06 -4.72897e-08
0.0280137 -1.60476e-06 -2.9289e-08
0.028013 -1.09552e-06 -1.80117e-08
0.0280126 -7.48137e-07 -1.10199e-08
0.0280123 -5.11149e-07 -6.72032e-09
0.0280121 -3.49444e-07 -4.09768e-09
0.028012 -2.38902e-07 -2.54411e-09
0.0280119 -1.6271e-07 -1.71431e-09
0.0280118 -1.08835e-07 -1.4188e-09
0.0280118 -6.82281e-08 -1.54442e-09
0.0280117 -3.3488e-08 -2.02249e-09
0.0280117 2.25046e-09 -2.53115e-09
0.0280117 4.83279e-08 -6.25147e-09
0.0280117 1.10051e-07 -1.37753e-08
0.0280117 1.4468e-07 -1.77673e-08
0.0148 -4.84489e-07 -3.16457e-06
0.0148015 -0.00104042 -0.0028313
0.0162288 -0.00166049 -0.00542975
0.0177865 -5.57266e-05 -0.00429198
0.0190987 0.00314292 -0.003063
0.020825 0.00733093 -0.00283984
0.0246363 0.0129758 -0.0024108
0.0279292 0.0195054 -0.00152249
0.0229704 0.0112825 -0.000350224
0.0234268 5.28612e-11 0.00062219
0.0265742 -0.00672399 0.00156045
0.0299647 -0.0131344 0.00211474
0.030737 -0.0110538 0.00164032
0.0301289 -0.00770254 0.00113577
0.0291358 -0.00504755 0.000681057
0.0281808 -0.00332086 0.000331859
0.0273747 -0.00225992 0.000100055
0.0267141 -0.00158457 -3.32514e-05
0.0261725 -0.00111839 -9.33473e-05
0.0257295 -0.000777776 -0.00010452
0.0253724 -0.000528784 -8.91802e-05
0.0250916 -0.000353137 -6.49861e-05
0.0248772 -0.000234181 -4.2444e-05
0.024718 -0.000155792 -2.55855e-05
0.0246027 -0.000104588 -1.45302e-05
0.024521 -7.09412e-05 -7.88589e-06
0.0244641 -4.85392e-05 -4.12369e-06
0.024425 -3.34152e-05 -2.07992e-06
0.0243984 -2.30897e-05 -1.00306e-06
0.0243803 -1.59857e-05 -4.50463e-07
0.0243682 -1.10749e-05 -1.75282e-07
0.02436 -7.67121e-06 -4.41602e-08
0.0243544 -5.30948e-06 1.36026e-08
0.0243507 -3.67055e-06 3.50263e-08
0.0243482 -2.53387e-06 3.92681e-08
0.0243464 -1.7464e-06 3.60767e-08
0.0243453 -1.20165e-06 3.02747e-08
0.0243445 -8.25449e-07 2.41293e-08
0.0243439 -5.66126e-07 1.8603e-08
0.0243435 -3.87693e-07 1.40119e-08
0.0243433 -2.65071e-07 1.03696e-08
0.0243431 -1.80732e-07 7.56288e-09
0.024343 -1.22335e-07 5.43029e-09
0.0243429 -8.10485e-08 3.81908e-09
0.0243429 -5.03444e-08 2.61155e-09
0.0243428 -2.51069e-08 1.73997e-09
0.0243428 -8.96145e-10 1.25361e-09
0.0243428 2.61005e-08 1.26891e-09
0.0243428 6.04134e-08 8.41916e-10
0.0243428 1.01763e-07 -3.71882e-09
0.0243428 1.23419e-07 -7.70829e-09
0.01 -9.26689e-07 -2.86759e-06
0.0100008 -0.000637326 -0.00230572
0.0113191 -0.000720338 -0.00414549
0.0131748 0.000540437 -0.00290734
0.0155965 0.00250721 -0.0018042
0.0194813 0.00555441 -0.00181193
0.0253927 0.00836213 -0.00236415
0.0345098 0.0101203 -0.00209573
0.0461225 0.00481825 -0.000515367