# vtk DataFile Version 2.0
Tobias Weinzierl: CPU, Manycore and Cluster Computing
ASCII

DATASET STRUCTURED_POINTS
DIMENSIONS  51 11 6

ORIGIN 0 0 0 

SPACING 0.1 0.1 0.1 

POINT_DATA 3366

VECTORS velocity float
0 0 0
-1.05536e-10 0 0
-1.50426e-07 0 0
-2.79933e-07 0 0
-2.87593e-07 0 0
-7.37094e-08 0 0
-6.83924e-09 0 0
-1.90908e-08 0 0
-7.59208e-08 0 0
-1.44368e-07 0 0
-1.83702e-07 0 0
-1.93064e-07 0 0
-1.88709e-07 0 0
-1.82432e-07 0 0
-1.78753e-07 0 0
-1.78045e-07 0 0
-1.79121e-07 0 0
-1.80815e-07 0 0
-1.8245e-07 0 0
-1.83763e-07 0 0
-1.84719e-07 0 0
-1.85376e-07 0 0
-1.85813e-07 0 0
-1.86101e-07 0 0
-1.86292e-07 0 0
-1.86424e-07 0 0
-1.8652e-07 0 0
-1.86595e-07 0 0
-1.86657e-07 0 0
-1.86712e-07 0 0
-1.86762e-07 0 0
-1.86808e-07 0 0
-1.86851e-07 0 0
-1.86892e-07 0 0
-1.86929e-07 0 0
-1.86964e-07 0 0
-1.86996e-07 0 0
-1.87025e-07 0 0
-1.87051e-07 0 0
-1.87075e-07 0 0
-1.87096e-07 0 0
-1.87115e-07 0 0
-1.87132e-07 0 0
-1.87147e-07 0 0
-1.87161e-07 0 0
-1.87173e-07 0 0
-1.87185e-07 0 0
-1.87197e-07 0 0
-1.87212e-07 0 0
-1.87236e-07 0 0
0.0028209 0 0
0 3.61303e-07 0
-1.68817e-10 7.94036e-08 0
-2.83833e-07 1.36064e-07 0
-5.46462e-07 9.34985e-08 0
-5.26882e-07 5.1849e-08 0
-1.66348e-07 6.24394e-08 0
-5.69668e-08 1.06436e-07 0
-5.55964e-08 1.09505e-07 0
-1.00248e-07 9.93333e-08 0
-1.99816e-07 8.01213e-08 0
-2.70913e-07 4.42375e-08 0
-2.96659e-07 1.55494e-08 0
-3.01957e-07 1.64859e-09 0
-3.04933e-07 -1.92646e-09 0
-3.11449e-07 -8.4242e-10 0
-3.20851e-07 1.05917e-09 0
-3.30622e-07 2.14637e-09 0
-3.38999e-07 2.32992e-09 0
-3.45382e-07 2.00518e-09 0
-3.49887e-07 1.51664e-09 0
-3.52907e-07 1.05196e-09 0
-3.54864e-07 6.82352e-10 0
-3.56106e-07 4.17038e-10 0
-3.56892e-07 2.39715e-10 0
-3.57395e-07 1.27797e-10 0
-3.57729e-07 6.07644e-11 0
-3.57962e-07 2.27715e-11 0
-3.58136e-07 2.66374e-12 0
-3.58276e-07 -6.92749e-12 0
-3.58396e-07 -1.06365e-11 0
-3.58503e-07 -1.12565e-11 0
-3.586e-07 -1.04031e-11 0
-3.58689e-07 -8.96917e-12 0
-3.58772e-07 -7.42004e-12 0
-3.58849e-07 -5.97715e-12 0
-3.5892e-07 -4.7284e-12 0
-3.58985e-07 -3.69225e-12 0
-3.59043e-07 -2.85337e-12 0
-3.59097e-07 -2.18152e-12 0
-3.59144e-07 -1.64e-12 0
-3.59187e-07 -1.18755e-12 0
-3.59225e-07 -7.74756e-13 0
-3.59259e-07 -3.34142e-13 0
-3.59289e-07 2.40825e-13 0
-3.59316e-07 1.13722e-12 0
-3.5934e-07 2.69109e-12 0
-3.59362e-07 5.51012e-12 0
-3.59384e-07 1.08124e-11 0
-3.59411e-07 2.1352e-11 0
-3.59451e-07 4.25759e-11 0
0.00746901 -2.35122e-07 0
0 3.46969e-08 0
-9.01993e-11 9.54595e-08 0
-1.97547e-07 1.14316e-07 0
-4.33534e-07 -1.16673e-08 0
-3.17428e-07 -9.7164e-09 0
-7.81557e-08 9.29541e-08 0
-1.13696e-07 1.37139e-07 0
-1.39109e-07 6.04936e-08 0
-1.32214e-07 -1.55272e-09 0
-1.62451e-07 1.6216e-08 0
-2.0292e-07 3.90389e-08 0
-2.16193e-07 6.02675e-08 0
-2.21132e-07 6.71595e-08 0
-2.26345e-07 5.84607e-08 0
-2.36034e-07 4.49192e-08 0
-2.49018e-07 3.27464e-08 0
-2.61863e-07 2.30727e-08 0
-2.72368e-07 1.57403e-08 0
-2.80001e-07 1.04033e-08 0
-2.85141e-07 6.66917e-09 0
-2.88435e-07 4.15109e-09 0
-2.90479e-07 2.50944e-09 0
-2.91729e-07 1.472e-09 0
-2.92496e-07 8.35301e-10 0
-2.92976e-07 4.55463e-10 0
-2.93291e-07 2.35319e-10 0
-2.93513e-07 1.11714e-10 0
-2.93682e-07 4.49253e-11 0
-2.9382e-07 1.06756e-11 0
-2.93939e-07 -5.4909e-12 0
-2.94047e-07 -1.19716e-11 0
-2.94146e-07 -1.35219e-11 0
-2.94237e-07 -1.27597e-11 0
-2.94322e-07 -1.10758e-11 0
-2.944e-07 -9.17319e-12 0
-2.94472e-07 -7.37912e-12 0
-2.94537e-07 -5.82231e-12 0
-2.94597e-07 -4.53076e-12 0
-2.94651e-07 -3.48397e-12 0
-2.94699e-07 -2.63861e-12 0
-2.94742e-07 -1.93836e-12 0
-2.9478e-07 -1.31233e-12 0
-2.94814e-07 -6.63198e-13 0
-2.94844e-07 1.57569e-13 0
-2.9487e-07 1.40339e-12 0
-2.94893e-07 3.55176e-12 0
-2.94913e-07 7.47293e-12 0
-2.9493e-07 1.45356e-11 0
-2.94947e-07 2.63891e-11 0
-2.94973e-07 4.62598e-11 0
0.00969127 -3.23583e-07 0
0 -4.40797e-07 0
-5.60024e-11 4.2388e-08 0
-1.12707e-07 -2.92773e-08 0
-3.41686e-07 -2.24691e-07 0
-2.28244e-07 -2.25537e-07 0
1.44985e-08 -7.25853e-08 0
-6.35103e-08 -3.79701e-11 0
-1.02618e-07 -8.72449e-08 0
-2.48486e-07 -1.89631e-07 0
-2.7047e-07 -1.52045e-07 0
-2.83172e-07 -4.22822e-08 0
-2.79056e-07 5.4124e-08 0
-2.63903e-07 9.76484e-08 0
-2.41663e-07 9.18173e-08 0
-2.25229e-07 7.08807e-08 0
-2.18879e-07 5.09523e-08 0
-2.18955e-07 3.50133e-08 0
-2.21282e-07 2.31024e-08 0
-2.23664e-07 1.46898e-08 0
-2.25417e-07 9.03459e-09 0
-2.26533e-07 5.38776e-09 0
-2.27195e-07 3.11739e-09 0
-2.27583e-07 1.74691e-09 0
-2.27821e-07 9.42872e-10 0
-2.27985e-07 4.84196e-10 0
-2.28114e-07 2.30302e-10 0
-2.28228e-07 9.47304e-11 0
-2.28335e-07 2.57841e-11 0
-2.2844e-07 -6.69209e-12 0
-2.28541e-07 -1.98839e-11 0
-2.28639e-07 -2.3357e-11 0
-2.28733e-07 -2.22964e-11 0
-2.28822e-07 -1.94205e-11 0
-2.28906e-07 -1.60878e-11 0
-2.28984e-07 -1.29262e-11 0
-2.29056e-07 -1.01834e-11 0
-2.29122e-07 -7.91824e-12 0
-2.29182e-07 -6.1021e-12 0
-2.29236e-07 -4.6711e-12 0
-2.29284e-07 -3.54996e-12 0
-2.29328e-07 -2.66035e-12 0
-2.29366e-07 -1.91888e-12 0
-2.294e-07 -1.22472e-12 0
-2.2943e-07 -4.35996e-13 0
-2.29455e-07 6.50358e-13 0
-2.29477e-07 2.30858e-12 0
-2.29494e-07 4.97534e-12 0
-2.29508e-07 9.51105e-12 0
-2.2952e-07 1.75799e-11 0
-2.29537e-07 3.11703e-11 0
0.0101483 -2.55537e-07 0
0 -8.51083e-07 0
-1.07017e-10 -2.58096e-08 0
-1.16262e-07 -1.27303e-07 0
-3.61243e-07 -2.24293e-07 0
-3.46776e-07 -1.73736e-07 0
-2.61866e-11 -5.10279e-08 0
6.65934e-10 4.08456e-10 0
-5.13768e-10 4.72309e-10 0
-1.40614e-07 -1.20917e-07 0
-3.05594e-07 -2.0032e-07 0
-3.16972e-07 -8.46972e-08 0
-3.27967e-07 3.52391e-08 0
-3.26927e-07 8.34127e-08 0
-2.97856e-07 7.58678e-08 0
-2.63007e-07 5.74005e-08 0
-2.38506e-07 4.18275e-08 0
-2.24912e-07 2.90662e-08 0
-2.17936e-07 1.89832e-08 0
-2.14258e-07 1.1685e-08 0
-2.12172e-07 6.83e-09 0
-2.10919e-07 3.80835e-09 0
-2.10154e-07 2.02308e-09 0
-2.09703e-07 1.01303e-09 0
-2.09459e-07 4.64201e-10 0
-2.09351e-07 1.78768e-10 0
-2.09331e-07 3.85386e-11 0
-2.09366e-07 -2.43925e-11 0
-2.09432e-07 -4.78092e-11 0
-2.09516e-07 -5.21288e-11 0
-2.09608e-07 -4.80479e-11 0
-2.09702e-07 -4.09589e-11 0
-2.09795e-07 -3.34307e-11 0
-2.09885e-07 -2.65717e-11 0
-2.0997e-07 -2.07625e-11 0
-2.10049e-07 -1.60413e-11 0
-2.10121e-07 -1.23017e-11 0
-2.10188e-07 -9.39044e-12 0
-2.10249e-07 -7.15184e-12 0
-2.10303e-07 -5.44678e-12 0
-2.10352e-07 -4.15744e-12 0
-2.10395e-07 -3.18571e-12 0
-2.10434e-07 -2.44856e-12 0
-2.10468e-07 -1.87388e-12 0
-2.10497e-07 -1.39334e-12 0
-2.10523e-07 -9.07656e-13 0
-2.10544e-07 -2.13206e-13 0
-2.10561e-07 1.08755e-12 0
-2.10574e-07 3.63288e-12 0
-2.10584e-07 8.21379e-12 0
-2.10601e-07 1.53496e-11 0
0.0102177 -1.3358e-07 0
0 -7.61082e-07 0
-1.53478e-10 -5.3196e-08 0
-1.2985e-07 -1.32051e-07 0
-3.7139e-07 -1.8177e-07 0
-4.22941e-07 -1.91499e-07 0
-1.40925e-07 -8.86174e-08 0
6.27925e-10 -6.20818e-10 0
1.04456e-10 -1.04456e-10 0
-5.45812e-10 4.81486e-10 0
-1.42142e-07 -8.41898e-08 0
-2.39554e-07 -8.48644e-08 0
-2.93776e-07 5.52862e-08 0
-3.55962e-07 1.00764e-07 0
-3.51905e-07 6.95711e-08 0
-3.07398e-07 3.90356e-08 0
-2.65732e-07 2.28921e-08 0
-2.39285e-07 1.35892e-08 0
-2.2449e-07 7.4622e-09 0
-2.16349e-07 3.5937e-09 0
-2.11789e-07 1.4082e-09 0
-2.09204e-07 3.1666e-10 0
-2.07751e-07 -1.53109e-10 0
-2.0696e-07 -3.07884e-10 0
-2.06558e-07 -3.20879e-10 0
-2.06384e-07 -2.80118e-10 0
-2.06341e-07 -2.26147e-10 0
-2.06372e-07 -1.75442e-10 0
-2.06441e-07 -1.33262e-10 0
-2.06531e-07 -1.00125e-10 0
-2.06629e-07 -7.48446e-11 0
-2.06728e-07 -5.58461e-11 0
-2.06825e-07 -4.16702e-11 0
-2.06918e-07 -3.11215e-11 0
-2.07005e-07 -2.32747e-11 0
-2.07086e-07 -1.74339e-11 0
-2.0716e-07 -1.30826e-11 0
-2.07228e-07 -9.84069e-12 0
-2.07289e-07 -7.42876e-12 0
-2.07344e-07 -5.64239e-12 0
-2.07394e-07 -4.3331e-12 0
-2.07437e-07 -3.39528e-12 0
-2.07476e-07 -2.75665e-12 0
-2.0751e-07 -2.36745e-12 0
-2.0754e-07 -2.18686e-12 0
-2.07566e-07 -2.17199e-12 0
-2.07587e-07 -2.26512e-12 0
-2.07604e-07 -2.36078e-12 0
-2.07617e-07 -2.23673e-12 0
-2.07627e-07 -1.61045e-12 0
-2.07643e-07 -4.92376e-13 0
0.0102252 6.37679e-10 0
0 -5.40205e-07 0
-1.62383e-10 -6.13234e-08 0
-1.25843e-07 -1.39912e-07 0
-3.62648e-07 -1.35687e-07 0
-4.40313e-07 -1.01683e-07 0
-3.12488e-07 -8.52425e-08 0
-1.02883e-07 -4.06663e-08 0
6.26714e-10 -6.15518e-10 0
6.66953e-11 -6.66953e-11 0
-5.96563e-10 4.94934e-10 0
-9.00577e-08 3.59461e-08 0
-1.91102e-07 1.4517e-07 0
-3.55704e-07 1.71454e-07 0
-4.09783e-07 7.7366e-08 0
-3.55704e-07 1.38515e-08 0
-2.89474e-07 -5.51586e-09 0
-2.4817e-07 -8.47055e-09 0
-2.27393e-07 -7.71423e-09 0
-2.17533e-07 -6.20388e-09 0
-2.12862e-07 -4.62254e-09 0
-2.10646e-07 -3.25364e-09 0
-2.0962e-07 -2.20176e-09 0
-2.09181e-07 -1.45467e-09 0
-2.09034e-07 -9.50016e-10 0
-2.09032e-07 -6.19164e-10 0
-2.09101e-07 -4.05598e-10 0
-2.09203e-07 -2.68431e-10 0
-2.09318e-07 -1.80092e-10 0
-2.09436e-07 -1.22711e-10 0
-2.09552e-07 -8.4964e-11 0
-2.09663e-07 -5.97454e-11 0
-2.09767e-07 -4.26109e-11 0
-2.09865e-07 -3.07695e-11 0
-2.09955e-07 -2.24534e-11 0
-2.10038e-07 -1.65291e-11 0
-2.10114e-07 -1.22589e-11 0
-2.10182e-07 -9.15441e-12 0
-2.10244e-07 -6.88787e-12 0
-2.103e-07 -5.23671e-12 0
-2.1035e-07 -4.05004e-12 0
-2.10394e-07 -3.22782e-12 0
-2.10433e-07 -2.70893e-12 0
-2.10468e-07 -2.46702e-12 0
-2.10498e-07 -2.51391e-12 0
-2.10524e-07 -2.91155e-12 0
-2.10546e-07 -3.79603e-12 0
-2.10563e-07 -5.4003e-12 0
-2.10577e-07 -7.97558e-12 0
-2.10588e-07 -1.16086e-11 0
-2.10604e-07 -1.65498e-11 0
0.0102177 1.34456e-07 0
0 -3.87914e-07 0
-1.72897e-10 -6.68456e-08 0
-1.34478e-07 -1.3617e-07 0
-3.53872e-07 -1.09933e-07 0
-4.24379e-07 -5.34153e-08 0
-3.37886e-07 -3.64749e-08 0
-2.31582e-07 -8.87208e-08 0
-1.32855e-07 -6.50711e-08 0
5.91676e-10 -6.38961e-10 0
-6.06611e-10 -6.85658e-10 0
-1.1942e-11 8.02439e-08 0
-6.5357e-08 2.67076e-07 0
-2.35624e-07 2.78745e-07 0
-3.64245e-07 9.24593e-08 0
-3.5512e-07 -2.08179e-08 0
-2.97114e-07 -3.89163e-08 0
-2.55516e-07 -2.94328e-08 0
-2.35996e-07 -1.94294e-08 0
-2.28724e-07 -1.23956e-08 0
-2.266e-07 -7.72318e-09 0
-2.2632e-07 -4.71785e-09 0
-2.26588e-07 -2.84844e-09 0
-2.26957e-07 -1.71523e-09 0
-2.27294e-07 -1.03827e-09 0
-2.27575e-07 -6.35695e-10 0
-2.27808e-07 -3.95521e-10 0
-2.28004e-07 -2.5092e-10 0
-2.28173e-07 -1.62663e-10 0
-2.28322e-07 -1.07861e-10 0
-2.28456e-07 -7.31417e-11 0
-2.28577e-07 -5.0657e-11 0
-2.28688e-07 -3.57574e-11 0
-2.28789e-07 -2.56571e-11 0
-2.28881e-07 -1.86626e-11 0
-2.28966e-07 -1.37269e-11 0
-2.29043e-07 -1.01894e-11 0
-2.29112e-07 -7.62511e-12 0
-2.29175e-07 -5.75522e-12 0
-2.29231e-07 -4.39418e-12 0
-2.29281e-07 -3.41883e-12 0
-2.29325e-07 -2.7513e-12 0
-2.29364e-07 -2.3521e-12 0
-2.29399e-07 -2.22295e-12 0
-2.29429e-07 -2.42179e-12 0
-2.29456e-07 -3.09527e-12 0
-2.29479e-07 -4.54116e-12 0
-2.29498e-07 -7.32001e-12 0
-2.29513e-07 -1.23084e-11 0
-2.29526e-07 -2.03708e-11 0
-2.29545e-07 -3.26394e-11 0
0.0101482 2.54474e-07 0
0 -3.52532e-07 0
-1.82855e-10 -6.31514e-08 0
-1.6351e-07 -1.24522e-07 0
-3.66087e-07 -9.15035e-08 0
-4.31112e-07 -3.7605e-08 0
-3.69348e-07 -1.2779e-08 0
-2.73862e-07 -4.56666e-08 0
-2.44776e-07 -1.48175e-07 0
-1.63487e-07 -1.07835e-07 0
-2.58477e-07 -3.2173e-11 0
-3.5537e-07 8.57575e-08 0
-2.43962e-07 2.67291e-07 0
-1.32947e-07 2.91159e-07 0
-2.16763e-07 1.17068e-07 0
-2.95047e-07 -1.72385e-08 0
-3.01173e-07 -4.53973e-08 0
-2.9023e-07 -3.29495e-08 0
-2.85573e-07 -1.87901e-08 0
-2.85926e-07 -1.00743e-08 0
-2.87773e-07 -5.4011e-09 0
-2.89548e-07 -2.96281e-09 0
-2.90873e-07 -1.67702e-09 0
-2.91784e-07 -9.81207e-10 0
-2.92401e-07 -5.92633e-10 0
-2.92827e-07 -3.68671e-10 0
-2.93135e-07 -2.35743e-10 0
-2.93371e-07 -1.54695e-10 0
-2.93561e-07 -1.04011e-10 0
-2.93721e-07 -7.15286e-11 0
-2.9386e-07 -5.02002e-11 0
-2.93985e-07 -3.58608e-11 0
-2.94098e-07 -2.60007e-11 0
-2.942e-07 -1.90794e-11 0
-2.94293e-07 -1.4133e-11 0
-2.94378e-07 -1.05453e-11 0
-2.94455e-07 -7.9135e-12 0
-2.94525e-07 -5.96872e-12 0
-2.94587e-07 -4.52779e-12 0
-2.94644e-07 -3.46489e-12 0
-2.94694e-07 -2.6946e-12 0
-2.94738e-07 -2.16341e-12 0
-2.94778e-07 -1.84824e-12 0
-2.94813e-07 -1.76369e-12 0
-2.94843e-07 -1.98316e-12 0
-2.9487e-07 -2.68264e-12 0
-2.94894e-07 -4.22347e-12 0
-2.94914e-07 -7.33983e-12 0
-2.94933e-07 -1.35294e-11 0
-2.94951e-07 -2.53346e-11 0
-2.94976e-07 -4.67666e-11 0
0.00969121 3.17281e-07 0
0 -3.79702e-07 0
-1.95074e-10 -3.85361e-08 0
-1.88509e-07 -7.53246e-08 0
-3.65674e-07 -5.35485e-08 0
-4.26808e-07 -2.70132e-08 0
-4.14726e-07 -3.62098e-08 0
-3.59961e-07 -7.22913e-08 0
-3.25655e-07 -1.02901e-07 0
-3.72174e-07 1.85279e-08 0
-3.83899e-07 2.01763e-07 0
-3.99039e-07 1.47034e-07 0
-2.89217e-07 -5.22328e-08 0
-1.98325e-07 -1.34005e-07 0
-2.76858e-07 -7.63148e-08 0
-3.63154e-07 -2.50102e-09 0
-3.77155e-07 2.75443e-08 0
-3.66041e-07 2.46454e-08 0
-3.57854e-07 1.41396e-08 0
-3.54918e-07 6.55487e-09 0
-3.546e-07 2.61978e-09 0
-3.55146e-07 8.81605e-10 0
-3.55826e-07 1.95839e-10 0
-3.56417e-07 -4.24445e-11 0
-3.56884e-07 -1.06216e-10 0
-3.57246e-07 -1.08175e-10 0
-3.57532e-07 -9.18486e-11 0
-3.57764e-07 -7.28481e-11 0
-3.57958e-07 -5.60835e-11 0
-3.58126e-07 -4.25948e-11 0
-3.58273e-07 -3.21543e-11 0
-3.58404e-07 -2.42103e-11 0
-3.58522e-07 -1.82111e-11 0
-3.58629e-07 -1.36941e-11 0
-3.58726e-07 -1.02957e-11 0
-3.58813e-07 -7.73918e-12 0
-3.58893e-07 -5.81675e-12 0
-3.58964e-07 -4.3729e-12 0
-3.59028e-07 -3.29193e-12 0
-3.59085e-07 -2.48853e-12 0
-3.59136e-07 -1.9015e-12 0
-3.59181e-07 -1.49045e-12 0
-3.59221e-07 -1.23619e-12 0
-3.59256e-07 -1.14642e-12 0
-3.59287e-07 -1.27125e-12 0
-3.59315e-07 -1.73822e-12 0
-3.59339e-07 -2.82317e-12 0
-3.59361e-07 -5.11445e-12 0
-3.59383e-07 -1.00251e-11 0
-3.59408e-07 -2.10319e-11 0
-3.59447e-07 -4.3725e-11 0
0.007469 2.23505e-07 0
0 0 0
-9.8278e-11 0 0
-9.57896e-08 0 0
-1.75639e-07 0 0
-2.06032e-07 0 0
-2.1166e-07 0 0
-2.14778e-07 0 0
-2.13756e-07 0 0
-2.08694e-07 0 0
-1.25446e-07 0 0
-4.36663e-08 0 0
-5.17776e-08 0 0
-1.30352e-07 0 0
-2.06426e-07 0 0
-2.33805e-07 0 0
-2.23517e-07 0 0
-2.06121e-07 0 0
-1.94537e-07 0 0
-1.88868e-07 0 0
-1.86581e-07 0 0
-1.85843e-07 0 0
-1.85721e-07 0 0
-1.85813e-07 0 0
-1.8596e-07 0 0
-1.86107e-07 0 0
-1.8624e-07 0 0
-1.86356e-07 0 0
-1.86457e-07 0 0
-1.86545e-07 0 0
-1.86622e-07 0 0
-1.86692e-07 0 0
-1.86754e-07 0 0
-1.8681e-07 0 0
-1.8686e-07 0 0
-1.86905e-07 0 0
-1.86946e-07 0 0
-1.86982e-07 0 0
-1.87015e-07 0 0
-1.87044e-07 0 0
-1.87069e-07 0 0
-1.87092e-07 0 0
-1.87112e-07 0 0
-1.8713e-07 0 0
-1.87146e-07 0 0
-1.8716e-07 0 0
-1.87172e-07 0 0
-1.87184e-07 0 0
-1.87195e-07 0 0
-1.8721e-07 0 0
-1.87234e-07 0 0
0.00282093 0 0
0 0 4.07513e-07
-1.34858e-10 0 7.07978e-08
-2.9661e-07 0 1.43539e-07
-6.25255e-07 0 4.34468e-08
-7.87286e-07 0 -2.5829e-07
-1.35786e-07 0 -3.43406e-07
1.05123e-07 0 -1.61266e-07
1.39501e-07 0 -4.06334e-08
6.12292e-08 0 2.57325e-08
-6.46611e-08 0 2.74472e-08
-1.64311e-07 0 4.24529e-09
-2.25503e-07 0 -1.07521e-08
-2.62432e-07 0 -1.24863e-08
-2.86441e-07 0 -8.23223e-09
-3.03978e-07 0 -3.7437e-09
-3.18391e-07 0 -8.86692e-10
-3.30387e-07 0 4.30709e-10
-3.39837e-07 0 8.08214e-10
-3.46813e-07 0 7.5604e-10
-3.5169e-07 0 5.70788e-10
-3.54961e-07 0 3.85372e-10
-3.57093e-07 0 2.42406e-10
-3.58459e-07 0 1.45002e-10
-3.5933e-07 0 8.34147e-11
-3.59891e-07 0 4.64251e-11
-3.60263e-07 0 2.50579e-11
-3.60521e-07 0 1.31075e-11
-3.60712e-07 0 6.61687e-12
-3.60863e-07 0 3.19313e-12
-3.6099e-07 0 1.44423e-12
-3.611e-07 0 5.85062e-13
-3.612e-07 0 1.84569e-13
-3.61291e-07 0 1.22078e-14
-3.61376e-07 0 -5.19279e-14
-3.61453e-07 0 -6.81928e-14
-3.61524e-07 0 -6.57019e-14
-3.61589e-07 0 -5.76623e-14
-3.61648e-07 0 -4.94807e-14
-3.61702e-07 0 -4.29298e-14
-3.6175e-07 0 -3.81922e-14
-3.61793e-07 0 -3.46804e-14
-3.61831e-07 0 -3.08879e-14
-3.61865e-07 0 -2.26421e-14
-3.61895e-07 0 3.47674e-15
-3.61922e-07 0 8.89063e-14
-3.61947e-07 0 3.39761e-13
-3.61969e-07 0 1.02771e-12
-3.61992e-07 0 3.00227e-12
-3.6202e-07 0 8.84501e-12
-3.62062e-07 0 2.38583e-11
0.00746206 0 -1.33028e-07
0.0036 8.65923e-08 1.47014e-07
0.00359967 -0.00171304 -0.000375027
0.00768691 -0.00519029 -0.00144545
0.0160084 -0.00859598 -0.00309971
0.0277982 -0.0129952 -0.00469328
0.0465578 -0.00895989 -0.00331511
0.0487559 -0.000221492 -0.000538321
0.0480949 0.00333396 0.00057837
0.0427704 0.00506803 0.000699989
0.0371691 0.0047795 0.000182294
0.0322255 0.00384591 -0.000231309
0.0282137 0.00283799 -0.00035145
0.0252606 0.00195908 -0.000287784
0.0232654 0.00128845 -0.000177391
0.021986 0.000824257 -9.01148e-05
0.0211898 0.000518002 -3.88336e-05
0.0207058 0.000319916 -1.3871e-05
0.0204179 0.000193927 -3.48446e-06
0.0202503 0.00011536 9.60075e-08
0.0201549 6.73751e-05 9.30054e-07
0.0201019 3.86514e-05 8.45434e-07
0.0200731 2.17787e-05 5.60761e-07
0.020058 1.20432e-05 3.10265e-07
0.0200504 6.52373e-06 1.41899e-07
0.0200468 3.45024e-06 4.42713e-08
0.0200452 1.7716e-06 -5.47712e-09
0.0200447 8.74771e-07 -2.67203e-08
0.0200446 4.08217e-07 -3.26214e-08
0.0200448 1.73725e-07 -3.11461e-08
0.020045 6.14303e-08 -2.67225e-08
0.0200452 1.15665e-08 -2.16153e-08
0.0200453 -7.68689e-09 -1.68615e-08
0.0200454 -1.2831e-08 -1.28461e-08
0.0200455 -1.21306e-08 -9.63397e-09
0.0200456 -9.52541e-09 -7.15037e-09
0.0200456 -6.75097e-09 -5.27371e-09
0.0200457 -4.46717e-09 -3.8797e-09
0.0200457 -2.84439e-09 -2.86021e-09
0.0200457 -1.86048e-09 -2.13002e-09
0.0200457 -1.44884e-09 -1.62893e-09
0.0200457 -1.57567e-09 -1.32337e-09
0.0200457 -2.29313e-09 -1.21066e-09
0.0200457 -3.80129e-09 -1.32772e-09
0.0200457 -6.55188e-09 -1.76341e-09
0.0200458 -1.14715e-08 -2.69693e-09
0.0200458 -2.05138e-08 -4.54756e-09
0.0200458 -3.72449e-08 -7.61695e-09
0.0200459 -6.90701e-08 -1.23776e-08
0.0200461 -1.59093e-07 -5.00167e-08
0.0200463 -4.28467e-07 -2.33672e-07
0.0200469 -6.28862e-07 -3.82653e-07
0.01 7.38196e-08 -6.48831e-07
0.0100009 -0.00370424 -0.000863268
0.0151594 -0.0114134 -0.00238623
0.0242067 -0.0186613 -0.00399012
0.0367413 -0.0281965 -0.00440079
0.0557617 -0.0189458 -0.00119316
0.0544584 -0.000978119 0.00172221
0.0549224 0.00596038 0.00210263
0.0492352 0.0108387 0.00174043
0.0432415 0.0106363 0.00063788
0.0381374 0.00915931 -0.000232104
0.0339438 0.00716758 -0.000518365
0.0309233 0.00509321 -0.000453194
0.028996 0.00335776 -0.000287614
0.0278288 0.0021153 -0.000148239
0.0271408 0.00129587 -6.43978e-05
0.0267455 0.000776487 -2.30126e-05
0.0265248 0.000455782 -5.53098e-06
0.0264056 0.000262135 6.28038e-07
0.0263435 0.000147622 2.11733e-06
0.0263128 8.12502e-05 1.98111e-06
0.0262986 4.35426e-05 1.45079e-06
0.0262929 2.25645e-05 9.50611e-07
0.0262913 1.11633e-05 5.83431e-07
0.0262915 5.13852e-06 3.42387e-07
0.0262923 2.06934e-06 1.94073e-07
0.0262933 5.8628e-07 1.06705e-07
0.0262942 -7.0686e-08 5.69018e-08
0.026295 -3.14523e-07 2.92859e-08
0.0262956 -3.64048e-07 1.43687e-08
0.026296 -3.31507e-07 6.53482e-09
0.0262964 -2.7191e-07 2.56061e-09
0.0262966 -2.10326e-07 6.39785e-10
0.0262968 -1.56717e-07 -2.18379e-10
0.0262969 -1.13811e-07 -5.46233e-10
0.026297 -8.11662e-08 -6.23695e-10
0.026297 -5.71919e-08 -5.94611e-10
0.0262971 -4.00929e-08 -5.31592e-10
0.0262971 -2.82754e-08 -4.72185e-10
0.0262971 -2.04943e-08 -4.39822e-10
0.0262971 -1.58975e-08 -4.57503e-10
0.0262971 -1.40557e-08 -5.59013e-10
0.0262971 -1.50466e-08 -8.0162e-10
0.0262972 -1.96741e-08 -1.27733e-09
0.0262972 -2.98969e-08 -2.10024e-09
0.0262972 -5.00524e-08 -3.52521e-09
0.0262972 -9.20454e-08 -6.33562e-09
0.0262973 -1.82681e-07 -1.29719e-08
0.0262974 -3.51717e-07 -6.94812e-08
0.0262976 -6.40669e-07 -3.3902e-07
0.0262978 -8.22597e-07 -5.56845e-07
0.0148 -6.97154e-07 -8.61371e-07
0.014802 -0.00570969 -0.0013702
0.019513 -0.0166536 -0.00374006
0.025436 -0.0266666 -0.00554049
0.0296817 -0.040498 -0.00493539
0.0282255 -0.0247893 -0.000784101
0.0260685 -8.05533e-06 0.00180129
0.0263724 0.00783666 0.00193527
0.0312101 0.0163372 0.00181844
0.0311946 0.0159015 0.000902684
0.0297049 0.0134102 8.83051e-05
0.028409 0.0103409 -0.000290597
0.0276372 0.00712018 -0.000318574
0.0273721 0.00450861 -0.000215038
0.0273249 0.00274089 -0.000105228
0.0273507 0.0016262 -3.56815e-05
0.027398 0.000943459 -3.09325e-06
0.027447 0.000534636 7.9813e-06
0.0274898 0.000295448 9.42478e-06
0.0275236 0.000158751 7.61753e-06
0.0275487 8.24511e-05 5.30472e-06
0.0275666 4.09123e-05 3.40472e-06
0.0275789 1.89339e-05 2.07449e-06
0.0275873 7.71597e-06 1.21863e-06
0.0275929 2.27405e-06 6.96199e-07
0.0275967 -1.57213e-07 3.88637e-07
0.0275992 -1.0791e-06 2.12391e-07
0.0276008 -1.28683e-06 1.13565e-07
0.0276019 -1.18878e-06 5.92032e-08
0.0276027 -9.85859e-07 2.98545e-08
0.0276032 -7.70464e-07 1.43304e-08
0.0276035 -5.80101e-07 6.3214e-09
0.0276037 -4.25825e-07 2.32776e-09
0.0276039 -3.06932e-07 4.36834e-10
0.027604 -2.18274e-07 -3.8112e-10
0.027604 -1.537e-07 -6.71621e-10
0.0276041 -1.07541e-07 -7.18417e-10
0.0276041 -7.51135e-08 -6.66343e-10
0.0276041 -5.28028e-08 -5.88942e-10
0.0276042 -3.79713e-08 -5.26288e-10
0.0276042 -2.88397e-08 -5.07555e-10
0.0276042 -2.44155e-08 -5.6625e-10
0.0276042 -2.45264e-08 -7.51032e-10
0.0276042 -3.00923e-08 -1.14358e-09
0.0276042 -4.40028e-08 -1.95026e-09
0.0276042 -7.22852e-08 -3.84631e-09
0.0276042 -1.22718e-07 -8.77088e-09
0.0276042 -2.04108e-07 -2.22579e-08
0.0276042 -3.30534e-07 -9.57079e-08
0.0276042 -5.19951e-07 -3.97791e-07
0.0276042 -6.3265e-07 -6.36401e-07
0.018 -1.53376e-06 -1.11011e-06
0.0180019 -0.00658094 -0.00216935
0.0198947 -0.0173516 -0.00587154
0.0197856 -0.0223015 -0.00718617
0.0159632 -0.023956 -0.00622631
-8.10047e-07 -0.0124316 -0.00274317
7.88541e-05 2.68001e-05 4.20453e-07
-3.07678e-05 3.25168e-05 0.000364525
0.00768208 0.00546399 0.000726324
0.0160874 0.0120088 0.000591872
0.019375 0.012061 0.000258341
0.0209529 0.00942277 -6.73764e-05
0.0226754 0.00628694 -0.000195841
0.0243128 0.00376692 -0.000154762
0.0255597 0.00218161 -6.98425e-05
0.0264039 0.00123663 -1.0308e-05
0.0269457 0.000680054 1.54801e-05
0.0272844 0.000359478 2.06061e-05
0.0274928 0.000180893 1.73123e-05
0.0276192 8.51138e-05 1.2207e-05
0.027695 3.58617e-05 7.82648e-06
0.02774 1.18154e-05 4.72505e-06
0.0277666 9.32629e-07 2.73505e-06
0.0277822 -3.35569e-06 1.53265e-06
0.0277913 -4.51875e-06 8.35182e-07
0.0277966 -4.32718e-06 4.42729e-07
0.0277998 -3.64713e-06 2.27386e-07
0.0278016 -2.87676e-06 1.11977e-07
0.0278027 -2.18001e-06 5.1678e-08
0.0278034 -1.60881e-06 2.11501e-08
0.0278037 -1.16535e-06 6.37025e-09
0.027804 -8.32605e-07 -2.82843e-10
0.0278041 -5.88642e-07 -2.87758e-09
0.0278042 -4.1274e-07 -3.54298e-09
0.0278042 -2.87523e-07 -3.36566e-09
0.0278043 -1.99317e-07 -2.88131e-09
0.0278043 -1.37779e-07 -2.34049e-09
0.0278043 -9.52954e-08 -1.85091e-09
0.0278043 -6.63954e-08 -1.45297e-09
0.0278043 -4.72493e-08 -1.16058e-09
0.0278043 -3.52965e-08 -9.85156e-10
0.0278043 -2.90082e-08 -9.55135e-10
0.0278043 -2.78009e-08 -1.14371e-09
0.0278043 -3.20218e-08 -1.71941e-09
0.0278043 -4.26756e-08 -3.10137e-09
0.0278043 -6.10662e-08 -6.45443e-09
0.0278043 -8.91474e-08 -1.40027e-08
0.0278042 -1.29689e-07 -3.07414e-08
0.0278042 -1.8945e-07 -1.09915e-07
0.0278041 -2.76347e-07 -4.21078e-07
0.027804 -3.27264e-07 -6.64708e-07
0.0196 -1.87965e-06 -1.89693e-06
0.0196007 -0.00509368 -0.00292747
0.0190603 -0.0115731 -0.00717819
0.0163975 -0.0137409 -0.00757793
0.0119187 -0.0120401 -0.00612176
0.00263293 -0.00478046 -0.00348931
5.99868e-05 -5.53518e-05 -0.000692927
2.4584e-05 -2.4584e-05 -3.94866e-08
-2.98364e-05 3.16992e-05 8.80821e-05
0.0054377 0.00407097 0.0001892
0.0119621 0.00852277 0.000151623
0.0147843 0.00711054 -5.05442e-05
0.0183282 0.0038635 -0.000233781
0.0216686 0.00170044 -0.000219439
0.0241237 0.000684272 -0.000118442
0.0256828 0.000246329 -3.22168e-05
0.0266074 5.66231e-05 9.40645e-06
0.0271407 -2.14492e-05 2.00099e-05
0.0274441 -4.69052e-05 1.76077e-05
0.0276151 -4.88002e-05 1.22349e-05
0.0277106 -4.17762e-05 7.57891e-06
0.0277634 -3.26972e-05 4.38115e-06
0.0277925 -2.43632e-05 2.41261e-06
0.0278083 -1.76302e-05 1.27624e-06
0.0278168 -1.25284e-05 6.48329e-07
0.0278213 -8.8002e-06 3.13189e-07
0.0278237 -6.13453e-06 1.40084e-07
0.027825 -4.25423e-06 5.39901e-08
0.0278256 -2.93934e-06 1.33672e-08
0.0278259 -2.02509e-06 -4.18304e-09
0.027826 -1.3919e-06 -1.04644e-08
0.0278261 -9.54657e-07 -1.15528e-08
0.0278261 -6.53434e-07 -1.04873e-08
0.0278261 -4.46374e-07 -8.72701e-09
0.0278261 -3.04369e-07 -6.92793e-09
0.027826 -2.07245e-07 -5.34949e-09
0.027826 -1.41062e-07 -4.06496e-09
0.027826 -9.62163e-08 -3.06795e-09
0.027826 -6.61207e-08 -2.32604e-09
0.027826 -4.62912e-08 -1.80877e-09
0.027826 -3.37172e-08 -1.50621e-09
0.027826 -2.64136e-08 -1.44918e-09
0.027826 -2.30541e-08 -1.74349e-09
0.027826 -2.26349e-08 -2.62593e-09
0.027826 -2.42116e-08 -4.54958e-09
0.0278259 -2.65602e-08 -8.54463e-09
0.0278259 -2.77581e-08 -1.66573e-08
0.0278258 -2.47738e-08 -3.35631e-08
0.0278258 -1.6284e-08 -1.13218e-07
0.0278257 -5.25229e-09 -4.25986e-07
0.0278256 2.89744e-10 -6.70656e-07
0.0196 -9.62298e-07 -2.5685e-06
0.0196002 -0.00298305 -0.0032341
0.0190666 -0.00620626 -0.00722355
0.0179141 -0.00571758 -0.00718945
0.014634 -0.0021427 -0.00548027
0.0108549 0.00381688 -0.00361163
0.00674136 0.00346618 -0.00163276
6.00271e-05 -5.06765e-05 -0.000304089
2.084e-05 -2.084e-05 -9.90544e-08
-2.87066e-05 3.09663e-05 2.32626e-05
0.00406178 0.0026867 0.000313084
0.00877683 0.00310797 0.000316486
0.0147792 -0.000468615 -0.000141792
0.020107 -0.00191337 -0.000342503
0.0237079 -0.00176926 -0.000266697
0.0257215 -0.00122681 -0.000122779
0.0267555 -0.000779099 -3.36946e-05
0.0272775 -0.000484891 -4.02417e-08
0.0275418 -0.000300845 7.29291e-06
0.0276758 -0.000186512 6.37199e-06
0.0277433 -0.000115661 4.09192e-06
0.0277768 -7.18848e-05 2.2942e-06
0.0277932 -4.48768e-05 1.17515e-06
0.0278008 -2.81937e-05 5.51588e-07
0.0278042 -1.78469e-05 2.28642e-07
0.0278054 -1.13893e-05 7.21374e-08
0.0278058 -7.32749e-06 2.38387e-09
0.0278057 -4.75041e-06 -2.44579e-08
0.0278055 -3.10087e-06 -3.13185e-08
0.0278053 -2.03602e-06 -2.96971e-08
0.027805 -1.34324e-06 -2.51031e-08
0.0278049 -8.89433e-07 -2.00146e-08
0.0278047 -5.90467e-07 -1.54284e-08
0.0278046 -3.92632e-07 -1.165e-08
0.0278045 -2.61311e-07 -8.68496e-09
0.0278045 -1.73998e-07 -6.4266e-09
0.0278044 -1.1595e-07 -4.7422e-09
0.0278044 -7.74471e-08 -3.5098e-09
0.0278044 -5.20371e-08 -2.63314e-09
0.0278044 -3.54039e-08 -2.04865e-09
0.0278043 -2.46002e-08 -1.73268e-09
0.0278043 -1.75022e-08 -1.71382e-09
0.0278043 -1.23804e-08 -2.09256e-09
0.0278043 -7.49409e-09 -3.07449e-09
0.0278043 -6.23797e-10 -5.06595e-09
0.0278043 1.15376e-08 -9.05243e-09
0.0278042 3.43654e-08 -1.69949e-08
0.0278042 7.70307e-08 -3.30114e-08
0.0278042 1.51828e-07 -1.0997e-07
0.0278041 2.63242e-07 -4.19246e-07
0.027804 3.2762e-07 -6.62373e-07
0.018 -5.89376e-07 -2.52593e-06
0.0180008 -0.00128891 -0.00318374
0.0185878 -0.00201619 -0.00685335
0.0192451 -0.000436931 -0.00642742
0.0189977 0.00233467 -0.00463631
0.0189733 0.0077793 -0.00304573
0.0193538 0.0128314 -0.00165221
0.0119286 0.00709582 -0.000746022
6.14384e-05 -3.99146e-05 -0.000258373
-2.32596e-05 -4.56756e-05 3.74855e-07
6.22962e-06 -0.000370741 0.000898988
0.00949151 -0.0036808 0.00128505
0.0172749 -0.00733252 0.00033408
0.0224381 -0.0070297 -0.000250212
0.0253877 -0.00478765 -0.000340789
0.0267849 -0.00273429 -0.000209036
0.0273531 -0.00147842 -9.08307e-05
0.0275601 -0.000805276 -3.26162e-05
0.027626 -0.000447562 -1.04631e-05
0.0276405 -0.000252778 -3.13422e-06
0.0276379 -0.00014451 -9.33047e-07
0.0276311 -8.35216e-05 -3.30255e-07
0.0276243 -4.88108e-05 -1.78398e-07
0.0276188 -2.88565e-05 -1.36067e-07
0.0276146 -1.72622e-05 -1.13558e-07
0.0276115 -1.04483e-05 -9.28435e-08
0.0276094 -6.39596e-06 -7.30373e-08
0.0276078 -3.95689e-06 -5.56273e-08
0.0276067 -2.47136e-06 -4.14026e-08
0.027606 -1.55628e-06 -3.03511e-08
0.0276054 -9.86681e-07 -2.20432e-08
0.027605 -6.28793e-07 -1.59278e-08
0.0276048 -4.02129e-07 -1.14846e-08
0.0276046 -2.57655e-07 -8.28175e-09
0.0276045 -1.65142e-07 -5.98389e-09
0.0276044 -1.05747e-07 -4.34108e-09
0.0276043 -6.75944e-08 -3.1723e-09
0.0276043 -4.31225e-08 -2.35044e-09
0.0276042 -2.74518e-08 -1.79137e-09
0.0276042 -1.73608e-08 -1.44796e-09
0.0276042 -1.06131e-08 -1.30965e-09
0.0276042 -5.47235e-09 -1.40916e-09
0.0276042 -2.92501e-10 -1.84003e-09
0.0276042 6.91721e-09 -2.78734e-09
0.0276042 1.90657e-08 -4.6102e-09
0.0276042 4.08182e-08 -8.21173e-09
0.0276041 8.00253e-08 -1.54273e-08
0.0276041 1.51528e-07 -2.95098e-08
0.0276041 2.83797e-07 -9.90953e-08
0.0276041 5.00895e-07 -3.94285e-07
0.0276041 6.32055e-07 -6.29232e-07
0.0148 -3.79449e-07 -2.18325e-06
0.0148012 -0.000377258 -0.00299616
0.0167608 3.53477e-05 -0.00616823
0.0193653 0.00187281 -0.00540106
0.0217014 0.00444265 -0.00369611
0.0237868 0.00755777 -0.00254986
0.0271193 0.0126556 -0.00166228
0.0301451 0.0201495 -0.00090518
0.024437 0.0120695 -0.000133684
0.0251009 -5.13268e-10 0.000501634
0.0293969 -0.00717078 0.00168292
0.0343367 -0.014636 0.00246787
0.0343699 -0.0134421 0.00148483
0.0319005 -0.00983101 0.000253846
0.0295547 -0.00591928 -0.000352372
0.0280863 -0.00307621 -0.000350979
0.0272819 -0.00150319 -0.000192981
0.0268495 -0.000739014 -8.44466e-05
0.0266132 -0.000375038 -3.34964e-05
0.0264814 -0.000196608 -1.27398e-05
0.0264063 -0.000105841 -4.76358e-06
0.0263629 -5.81778e-05 -1.7705e-06
0.0263374 -3.25141e-05 -6.54973e-07
0.0263221 -1.84198e-05 -2.38054e-07
0.0263129 -1.05545e-05 -8.11558e-08
0.0263072 -6.10619e-06 -2.20238e-08
0.0263036 -3.561e-06 -2.8549e-10
0.0263014 -2.08974e-06 6.89836e-09
0.0262999 -1.23154e-06 8.40023e-09
0.026299 -7.27026e-07 7.77383e-09
0.0262984 -4.28567e-07 6.47588e-09
0.026298 -2.5122e-07 5.10082e-09
0.0262977 -1.45622e-07 3.87552e-09
0.0262975 -8.281e-08 2.86668e-09
0.0262974 -4.56362e-08 2.0719e-09
0.0262973 -2.38645e-08 1.46184e-09
0.0262973 -1.13343e-08 9.99088e-10
0.0262972 -4.30136e-09 6.45594e-10
0.0262972 -4.48285e-10 3.64109e-10
0.0262972 1.72407e-09 1.15662e-10
0.0262972 3.29789e-09 -1.4662e-10
0.0262972 5.24228e-09 -4.88179e-10
0.0262972 8.70345e-09 -1.01117e-09
0.0262972 1.53648e-08 -1.88341e-09
0.0262972 2.80078e-08 -3.40431e-09
0.0262972 5.14889e-08 -6.30464e-09
0.0262972 9.43469e-08 -1.21272e-08
0.0262972 1.73598e-07 -2.34314e-08
0.0262973 3.33121e-07 -8.02277e-08
0.0262974 6.3039e-07 -3.37924e-07
0.0262976 8.19813e-07 -5.46294e-07
0.01 -7.18887e-07 -1.95846e-06
0.0100005 -0.000213682 -0.00253672
0.0122736 0.000257802 -0.00486658