# vtk DataFile Version 2.0
Tobias Weinzierl: CPU, Manycore and Cluster Computing
ASCII

DATASET STRUCTURED_POINTS
DIMENSIONS  51 11 6

ORIGIN 0 0 0 

SPACING 0.1 0.1 0.1 

POINT_DATA 3366

VECTORS velocity float
0 0 0
5.96989e-11 0 0
-2.77565e-08 0 0
-1.21026e-07 0 0
-2.23494e-07 0 0
-9.04516e-08 0 0
-4.03635e-08 0 0
-7.0173e-09 0 0
1.00004e-08 0 0
-8.89087e-09 0 0
-4.98321e-08 0 0
-8.64439e-08 0 0
-1.04774e-07 0 0
-1.07242e-07 0 0
-1.02949e-07 0 0
-9.8859e-08 0 0
-9.72923e-08 0 0
-9.77744e-08 0 0
-9.91823e-08 0 0
-1.00702e-07 0 0
-1.01953e-07 0 0
-1.02841e-07 0 0
-1.03406e-07 0 0
-1.03727e-07 0 0
-1.03886e-07 0 0
-1.03942e-07 0 0
-1.03941e-07 0 0
-1.0391e-07 0 0
-1.03866e-07 0 0
-1.03818e-07 0 0
-1.03771e-07 0 0
-1.03729e-07 0 0
-1.0369e-07 0 0
-1.03656e-07 0 0
-1.03625e-07 0 0
-1.03598e-07 0 0
-1.03574e-07 0 0
-1.03553e-07 0 0
-1.03534e-07 0 0
-1.03517e-07 0 0
-1.03502e-07 0 0
-1.03488e-07 0 0
-1.03476e-07 0 0
-1.03466e-07 0 0
-1.03457e-07 0 0
-1.0345e-07 0 0
-1.03445e-07 0 0
-1.03442e-07 0 0
-1.03443e-07 0 0
-1.03452e-07 0 0
0.00234712 0 0
0 4.24364e-07 0
1.37624e-10 4.22461e-09 0
-4.25316e-08 2.54499e-08 0
-2.12089e-07 5.01014e-08 0
-3.644e-07 3.0103e-08 0
-1.52139e-07 4.88887e-08 0
-1.02158e-07 1.01112e-07 0
-7.24971e-08 8.38257e-08 0
-3.03126e-08 5.83942e-08 0
-3.42458e-08 5.94006e-08 0
-8.56333e-08 5.9448e-08 0
-1.44069e-07 4.52704e-08 0
-1.78231e-07 2.31637e-08 0
-1.86652e-07 5.62731e-09 0
-1.85028e-07 -1.8696e-09 0
-1.85568e-07 -2.15438e-09 0
-1.90824e-07 -1.46473e-10 0
-1.9852e-07 1.41461e-09 0
-2.06131e-07 1.96778e-09 0
-2.12324e-07 1.83396e-09 0
-2.16788e-07 1.41564e-09 0
-2.19733e-07 9.64311e-10 0
-2.21531e-07 5.902e-10 0
-2.22545e-07 3.20387e-10 0
-2.23057e-07 1.44268e-10 0
-2.23269e-07 3.93083e-11 0
-2.23313e-07 -1.69473e-11 0
-2.2327e-07 -4.25035e-11 0
-2.23187e-07 -5.02042e-11 0
-2.23091e-07 -4.84846e-11 0
-2.22996e-07 -4.25037e-11 0
-2.22907e-07 -3.51938e-11 0
-2.22827e-07 -2.80752e-11 0
-2.22756e-07 -2.18269e-11 0
-2.22693e-07 -1.66604e-11 0
-2.22638e-07 -1.25491e-11 0
-2.22589e-07 -9.36204e-12 0
-2.22545e-07 -6.93572e-12 0
-2.22507e-07 -5.11028e-12 0
-2.22472e-07 -3.74418e-12 0
-2.22441e-07 -2.71748e-12 0
-2.22414e-07 -1.92858e-12 0
-2.2239e-07 -1.28642e-12 0
-2.2237e-07 -6.98743e-13 0
-2.22352e-07 -4.88522e-14 0
-2.22338e-07 8.51408e-13 0
-2.22328e-07 2.33766e-12 0
-2.22322e-07 5.16344e-12 0
-2.22324e-07 1.14662e-11 0
-2.22341e-07 2.52019e-11 0
0.00650965 -1.43557e-07 0
0 -5.39305e-09 0
1.62842e-10 5.00933e-09 0
9.31036e-09 -1.41594e-08 0
-1.03932e-07 -9.54285e-08 0
-1.60127e-07 -1.63637e-07 0
-2.68849e-09 -4.20235e-08 0
-8.23373e-08 1.24993e-07 0
-1.23465e-07 1.15266e-07 0
-1.00269e-07 4.88897e-08 0
-7.04508e-08 1.61793e-08 0
-9.1169e-08 5.34096e-09 0
-1.31756e-07 1.36952e-08 0
-1.59051e-07 3.10932e-08 0
-1.63604e-07 4.20766e-08 0
-1.58856e-07 4.25993e-08 0
-1.58028e-07 3.7026e-08 0
-1.63709e-07 2.94776e-08 0
-1.72702e-07 2.20222e-08 0
-1.81611e-07 1.55746e-08 0
-1.88711e-07 1.04727e-08 0
-1.9366e-07 6.70832e-09 0
-1.96786e-07 4.08718e-09 0
-1.98594e-07 2.35238e-09 0
-1.99542e-07 1.25782e-09 0
-1.9997e-07 6.00404e-10 0
-2.00104e-07 2.27105e-10 0
-2.00086e-07 3.00472e-11 0
-1.99998e-07 -6.28503e-11 0
-1.99884e-07 -9.75164e-11 0
-1.99768e-07 -1.01916e-10 0
-1.9966e-07 -9.22898e-11 0
-1.99564e-07 -7.75665e-11 0
-1.99479e-07 -6.23043e-11 0
-1.99405e-07 -4.85711e-11 0
-1.99341e-07 -3.70902e-11 0
-1.99285e-07 -2.79109e-11 0
-1.99235e-07 -2.07835e-11 0
-1.99191e-07 -1.53584e-11 0
-1.99152e-07 -1.12823e-11 0
-1.99118e-07 -8.23937e-12 0
-1.99087e-07 -5.96113e-12 0
-1.9906e-07 -4.22073e-12 0
-1.99036e-07 -2.81519e-12 0
-1.99015e-07 -1.53714e-12 0
-1.98997e-07 -1.32459e-13 0
-1.98983e-07 1.79913e-12 0
-1.98972e-07 5.01976e-12 0
-1.98964e-07 1.07941e-11 0
-1.98961e-07 2.04291e-11 0
-1.98971e-07 3.56419e-11 0
0.00886882 -2.43047e-07 0
0 -6.29444e-07 0
1.63027e-10 -1.73496e-08 0
5.29395e-08 -8.57883e-08 0
-3.15474e-08 -2.12468e-07 0
-1.01028e-07 -2.86904e-07 0
5.89935e-08 -1.4299e-07 0
-2.04955e-08 -1.27528e-10 0
-5.79797e-08 -2.83948e-08 0
-1.22337e-07 -8.69095e-08 0
-1.26287e-07 -1.13692e-07 0
-1.48976e-07 -8.78609e-08 0
-1.86745e-07 -2.87954e-08 0
-2.07077e-07 3.25426e-08 0
-1.99753e-07 6.31312e-08 0
-1.76649e-07 6.52356e-08 0
-1.54968e-07 5.51962e-08 0
-1.42478e-07 4.26872e-08 0
-1.38097e-07 3.10209e-08 0
-1.37945e-07 2.12601e-08 0
-1.3907e-07 1.37444e-08 0
-1.40096e-07 8.37131e-09 0
-1.40657e-07 4.77314e-09 0
-1.40807e-07 2.50204e-09 0
-1.40705e-07 1.14933e-09 0
-1.40484e-07 3.9369e-10 0
-1.40229e-07 5.21642e-12 0
-1.39985e-07 -1.6958e-10 0
-1.39771e-07 -2.27546e-10 0
-1.39591e-07 -2.26724e-10 0
-1.39443e-07 -2.00125e-10 0
-1.39321e-07 -1.65409e-10 0
-1.3922e-07 -1.31262e-10 0
-1.39135e-07 -1.01375e-10 0
-1.39064e-07 -7.68285e-11 0
-1.39002e-07 -5.74479e-11 0
-1.38949e-07 -4.25436e-11 0
-1.38902e-07 -3.12895e-11 0
-1.3886e-07 -2.29001e-11 0
-1.38822e-07 -1.66992e-11 0
-1.38789e-07 -1.2134e-11 0
-1.38759e-07 -8.76292e-12 0
-1.38732e-07 -6.23199e-12 0
-1.38709e-07 -4.24552e-12 0
-1.38688e-07 -2.52397e-12 0
-1.3867e-07 -7.49727e-13 0
-1.38654e-07 1.44616e-12 0
-1.38641e-07 4.44052e-12 0
-1.3863e-07 8.7544e-12 0
-1.38621e-07 1.5427e-11 0
-1.38621e-07 2.60911e-11 0
0.0095381 -2.13876e-07 0
0 -1.20691e-06 0
1.01136e-10 -4.90414e-08 0
2.6022e-08 -1.37392e-07 0
-7.11206e-08 -1.85875e-07 0
-1.7949e-07 -1.50488e-07 0
-6.94732e-11 -5.30482e-08 0
6.21097e-10 3.94219e-10 0
-4.70877e-10 4.39962e-10 0
-6.23757e-08 -6.92753e-08 0
-1.70804e-07 -1.47149e-07 0
-2.04663e-07 -1.18719e-07 0
-2.29191e-07 -3.60765e-08 0
-2.46713e-07 3.51111e-08 0
-2.42074e-07 6.21108e-08 0
-2.15368e-07 5.65725e-08 0
-1.81102e-07 4.30692e-08 0
-1.53367e-07 3.1314e-08 0
-1.36099e-07 2.18917e-08 0
-1.26649e-07 1.42685e-08 0
-1.21498e-07 8.44221e-09 0
-1.18423e-07 4.39128e-09 0
-1.16377e-07 1.84359e-09 0
-1.14923e-07 3.99282e-10 0
-1.1387e-07 -3.21783e-10 0
-1.1311e-07 -6.12232e-10 0
-1.12565e-07 -6.69888e-10 0
-1.12177e-07 -6.16367e-10 0
-1.11899e-07 -5.20478e-10 0
-1.11697e-07 -4.1782e-10 0
-1.11548e-07 -3.24641e-10 0
-1.11433e-07 -2.46713e-10 0
-1.11343e-07 -1.84599e-10 0
-1.11268e-07 -1.366e-10 0
-1.11206e-07 -1.00279e-10 0
-1.11151e-07 -7.31964e-11 0
-1.11103e-07 -5.32167e-11 0
-1.11061e-07 -3.85905e-11 0
-1.11022e-07 -2.7943e-11 0
-1.10987e-07 -2.02204e-11 0
-1.10955e-07 -1.46279e-11 0
-1.10927e-07 -1.05703e-11 0
-1.10901e-07 -7.59943e-12 0
-1.10878e-07 -5.3724e-12 0
-1.10857e-07 -3.62956e-12 0
-1.10839e-07 -2.18226e-12 0
-1.10823e-07 -8.60569e-13 0
-1.10809e-07 6.19478e-13 0
-1.10796e-07 2.80531e-12 0
-1.10785e-07 6.53819e-12 0
-1.10783e-07 1.26082e-11 0
0.00968631 -1.16559e-07 0
0 -1.07699e-06 0
6.38271e-11 -5.10989e-08 0
-6.61887e-09 -1.11964e-07 0
-1.01567e-07 -1.49572e-07 0
-2.23261e-07 -1.71593e-07 0
-1.04006e-07 -8.28974e-08 0
5.64251e-10 -5.72864e-10 0
1.02288e-10 -1.02288e-10 0
-4.99934e-10 4.41927e-10 0
-8.96074e-08 -7.06831e-08 0
-1.89696e-07 -1.18986e-07 0
-1.95111e-07 -3.72359e-08 0
-2.22696e-07 5.10981e-08 0
-2.50653e-07 7.41284e-08 0
-2.46909e-07 5.33403e-08 0
-2.12813e-07 2.84446e-08 0
-1.73965e-07 1.33887e-08 0
-1.45679e-07 5.50761e-09 0
-1.28763e-07 1.02937e-09 0
-1.19229e-07 -1.54765e-09 0
-1.13752e-07 -2.77172e-09 0
-1.10472e-07 -3.07228e-09 0
-1.08447e-07 -2.84857e-09 0
-1.0718e-07 -2.39984e-09 0
-1.06385e-07 -1.9073e-09 0
-1.05884e-07 -1.46018e-09 0
-1.05564e-07 -1.09077e-09 0
-1.05356e-07 -8.01733e-10 0
-1.05214e-07 -5.83069e-10 0
-1.05113e-07 -4.21148e-10 0
-1.05036e-07 -3.02883e-10 0
-1.04973e-07 -2.17264e-10 0
-1.0492e-07 -1.55622e-10 0
-1.04872e-07 -1.11399e-10 0
-1.04829e-07 -7.97386e-11 0
-1.04789e-07 -5.71021e-11 0
-1.04752e-07 -4.09299e-11 0
-1.04717e-07 -2.93815e-11 0
-1.04685e-07 -2.11379e-11 0
-1.04656e-07 -1.52553e-11 0
-1.04628e-07 -1.10608e-11 0
-1.04604e-07 -8.07963e-12 0
-1.04581e-07 -5.98396e-12 0
-1.04561e-07 -4.54726e-12 0
-1.04543e-07 -3.60102e-12 0
-1.04528e-07 -3.0123e-12 0
-1.04514e-07 -2.68262e-12 0
-1.04502e-07 -2.44953e-12 0
-1.04491e-07 -1.8647e-12 0
-1.04489e-07 -4.78598e-13 0
0.00970898 1.65138e-09 0
0 -7.56162e-07 0
8.01779e-11 -4.31404e-08 0
-1.07414e-08 -1.03285e-07 0
-1.02547e-07 -1.16056e-07 0
-2.44748e-07 -9.77416e-08 0
-2.34137e-07 -5.5704e-08 0
-6.84923e-08 -1.3858e-08 0
5.75802e-10 -5.69977e-10 0
7.03725e-11 -7.03725e-11 0
-5.52875e-10 4.47068e-10 0
-7.86359e-08 -5.0048e-08 0
-8.8156e-08 -1.90537e-08 0
-1.28234e-07 9.83093e-08 0
-2.06794e-07 1.15077e-07 0
-2.52819e-07 6.40702e-08 0
-2.35896e-07 1.52794e-08 0
-1.91892e-07 -7.91345e-09 0
-1.54874e-07 -1.4493e-08 0
-1.32803e-07 -1.45832e-08 0
-1.21506e-07 -1.26008e-08 0
-1.16053e-07 -1.00763e-08 0
-1.13465e-07 -7.63788e-09 0
-1.12247e-07 -5.57069e-09 0
-1.11685e-07 -3.95747e-09 0
-1.11433e-07 -2.76551e-09 0
-1.11326e-07 -1.91526e-09 0
-1.11282e-07 -1.32159e-09 0
-1.11261e-07 -9.11907e-10 0
-1.11246e-07 -6.30602e-10 0
-1.11229e-07 -4.37572e-10 0
-1.11209e-07 -3.04837e-10 0
-1.11185e-07 -2.13234e-10 0
-1.11157e-07 -1.49742e-10 0
-1.11127e-07 -1.05541e-10 0
-1.11096e-07 -7.46409e-11 0
-1.11064e-07 -5.29582e-11 0
-1.11033e-07 -3.76959e-11 0
-1.11002e-07 -2.69275e-11 0
-1.10973e-07 -1.93196e-11 0
-1.10945e-07 -1.39475e-11 0
-1.10919e-07 -1.01706e-11 0
-1.10896e-07 -7.54701e-12 0
-1.10874e-07 -5.77721e-12 0
-1.10855e-07 -4.6701e-12 0
-1.10838e-07 -4.13033e-12 0
-1.10823e-07 -4.16585e-12 0
-1.1081e-07 -4.9361e-12 0
-1.10799e-07 -6.73948e-12 0
-1.10789e-07 -9.6837e-12 0
-1.10787e-07 -1.35494e-11 0
0.00968629 1.18739e-07 0
0 -5.33869e-07 0
8.903e-11 -3.6821e-08 0
-1.88784e-08 -8.57821e-08 0
-1.15678e-07 -8.96461e-08 0
-2.38994e-07 -5.36303e-08 0
-2.55043e-07 -1.55375e-08 0
-1.6505e-07 -2.31874e-08 0
-7.74429e-08 -2.05948e-08 0
5.54805e-10 -5.85268e-10 0
-5.53349e-10 -6.18751e-10 0
1.24063e-11 -2.80083e-08 0
-4.67409e-08 2.90995e-08 0
-4.10456e-08 1.56564e-07 0
-8.93044e-08 1.64451e-07 0
-1.71819e-07 8.05248e-08 0
-2.06248e-07 5.91789e-09 0
-1.90349e-07 -2.51954e-08 0
-1.63657e-07 -2.96278e-08 0
-1.46143e-07 -2.49611e-08 0
-1.38363e-07 -1.87232e-08 0
-1.36032e-07 -1.32316e-08 0
-1.35965e-07 -9.01769e-09 0
-1.36591e-07 -6.01598e-09 0
-1.37285e-07 -3.97312e-09 0
-1.37854e-07 -2.61907e-09 0
-1.38267e-07 -1.7328e-09 0
-1.38549e-07 -1.15438e-09 0
-1.38732e-07 -7.75579e-10 0
-1.38845e-07 -5.2572e-10 0
-1.38908e-07 -3.59415e-10 0
-1.38939e-07 -2.47654e-10 0
-1.38948e-07 -1.71839e-10 0
-1.38942e-07 -1.19963e-10 0
-1.38926e-07 -8.41918e-11 0
-1.38904e-07 -5.93626e-11 0
-1.38879e-07 -4.20326e-11 0
-1.38852e-07 -2.98837e-11 0
-1.38824e-07 -2.13402e-11 0
-1.38797e-07 -1.53233e-11 0
-1.38771e-07 -1.10908e-11 0
-1.38746e-07 -8.1324e-12 0
-1.38723e-07 -6.10215e-12 0
-1.38702e-07 -4.77848e-12 0
-1.38683e-07 -4.04596e-12 0
-1.38667e-07 -3.89865e-12 0
-1.38653e-07 -4.46514e-12 0
-1.38641e-07 -6.10174e-12 0
-1.38631e-07 -9.60456e-12 0
-1.38623e-07 -1.61491e-11 0
-1.38624e-07 -2.65801e-11 0
0.00953805 2.1144e-07 0
0 -4.68148e-07 0
1.03937e-10 -2.67479e-08 0
-3.59364e-08 -6.55234e-08 0
-1.44789e-07 -6.95137e-08 0
-2.55575e-07 -3.83782e-08 0
-2.73082e-07 3.71311e-09 0
-2.06625e-07 -2.46008e-10 0
-1.60031e-07 -6.88367e-08 0
-8.24087e-08 -5.72326e-08 0
-8.15036e-08 1.05197e-11 0
-1.71908e-07 2.96822e-08 0
-2.56218e-07 8.06661e-08 0
-1.45902e-07 1.20829e-07 0
-4.33898e-08 1.20678e-07 0
-8.8792e-08 6.84229e-08 0
-1.69777e-07 1.3719e-08 0
-1.99013e-07 -1.46737e-08 0
-1.96178e-07 -2.09712e-08 0
-1.90526e-07 -1.76877e-08 0
-1.89306e-07 -1.26203e-08 0
-1.90838e-07 -8.43096e-09 0
-1.93061e-07 -5.4971e-09 0
-1.95025e-07 -3.56843e-09 0
-1.96494e-07 -2.32981e-09 0
-1.9751e-07 -1.53705e-09 0
-1.98184e-07 -1.02603e-09 0
-1.9862e-07 -6.92692e-10 0
-1.98895e-07 -4.72385e-10 0
-1.99065e-07 -3.24954e-10 0
-1.99164e-07 -2.25189e-10 0
-1.99218e-07 -1.57028e-10 0
-1.99242e-07 -1.10077e-10 0
-1.99245e-07 -7.75108e-11 0
-1.99236e-07 -5.47905e-11 0
-1.99219e-07 -3.8863e-11 0
-1.99197e-07 -2.76541e-11 0
-1.99172e-07 -1.97428e-11 0
-1.99146e-07 -1.4149e-11 0
-1.9912e-07 -1.01931e-11 0
-1.99095e-07 -7.40341e-12 0
-1.99071e-07 -5.45528e-12 0
-1.99048e-07 -4.13232e-12 0
-1.99027e-07 -3.30531e-12 0
-1.99009e-07 -2.92738e-12 0
-1.98993e-07 -3.05306e-12 0
-1.98979e-07 -3.88177e-12 0
-1.98969e-07 -5.85315e-12 0
-1.98961e-07 -1.00429e-11 0
-1.98958e-07 -1.88443e-11 0
-1.98965e-07 -3.52755e-11 0
0.00886876 2.31428e-07 0
0 -4.92984e-07 0
1.15415e-10 -1.29059e-08 0
-5.18184e-08 -3.37099e-08 0
-1.5957e-07 -3.56195e-08 0
-2.49706e-07 -2.01237e-08 0
-2.74744e-07 -1.14725e-08 0
-2.31721e-07 -2.22953e-08 0
-1.99922e-07 -6.26258e-08 0
-2.21568e-07 -5.36081e-08 0
-2.03209e-07 4.77463e-08 0
-2.3423e-07 1.34678e-07 0
-2.25767e-07 1.1009e-07 0
-1.28551e-07 7.45922e-09 0
-5.8723e-08 -6.2522e-08 0
-1.13516e-07 -6.54306e-08 0
-1.97772e-07 -3.10859e-08 0
-2.31024e-07 -9.56442e-10 0
-2.29388e-07 9.57806e-09 0
-2.22121e-07 8.32055e-09 0
-2.18412e-07 4.53288e-09 0
-2.17802e-07 1.76258e-09 0
-2.18543e-07 3.3077e-10 0
-2.19592e-07 -2.46758e-10 0
-2.20528e-07 -4.02839e-10 0
-2.21243e-07 -3.87038e-10 0
-2.2175e-07 -3.17796e-10 0
-2.22093e-07 -2.43464e-10 0
-2.22317e-07 -1.80179e-10 0
-2.22457e-07 -1.30975e-10 0
-2.22541e-07 -9.43279e-11 0
-2.22585e-07 -6.76205e-11 0
-2.22604e-07 -4.83723e-11 0
-2.22604e-07 -3.4577e-11 0
-2.22593e-07 -2.47162e-11 0
-2.22575e-07 -1.76759e-11 0
-2.22552e-07 -1.26519e-11 0
-2.22527e-07 -9.06825e-12 0
-2.22501e-07 -6.51409e-12 0
-2.22475e-07 -4.69757e-12 0
-2.22449e-07 -3.41278e-12 0
-2.22425e-07 -2.51726e-12 0
-2.22402e-07 -1.91764e-12 0
-2.22382e-07 -1.56276e-12 0
-2.22363e-07 -1.44713e-12 0
-2.22348e-07 -1.62713e-12 0
-2.22335e-07 -2.26303e-12 0
-2.22325e-07 -3.70027e-12 0
-2.2232e-07 -6.72237e-12 0
-2.22321e-07 -1.31398e-11 0
-2.22336e-07 -2.59426e-11 0
0.00650966 1.2765e-07 0
0 0 0
6.1133e-11 0 0
-2.78057e-08 0 0
-7.70354e-08 0 0
-1.13956e-07 0 0
-1.2651e-07 0 0
-1.21664e-07 0 0
-1.17331e-07 0 0
-1.3918e-07 0 0
-1.217e-07 0 0
-6.23145e-08 0 0
-6.66733e-09 0 0
7.07228e-09 0 0
-2.19825e-08 0 0
-7.51363e-08 0 0
-1.13707e-07 0 0
-1.23365e-07 0 0
-1.17714e-07 0 0
-1.10332e-07 0 0
-1.05676e-07 0 0
-1.03543e-07 0 0
-1.0284e-07 0 0
-1.02773e-07 0 0
-1.02925e-07 0 0
-1.03114e-07 0 0
-1.03277e-07 0 0
-1.03399e-07 0 0
-1.03483e-07 0 0
-1.03537e-07 0 0
-1.03569e-07 0 0
-1.03585e-07 0 0
-1.03591e-07 0 0
-1.03589e-07 0 0
-1.03582e-07 0 0
-1.03571e-07 0 0
-1.03559e-07 0 0
-1.03546e-07 0 0
-1.03533e-07 0 0
-1.03519e-07 0 0
-1.03506e-07 0 0
-1.03494e-07 0 0
-1.03483e-07 0 0
-1.03472e-07 0 0
-1.03463e-07 0 0
-1.03455e-07 0 0
-1.03449e-07 0 0
-1.03444e-07 0 0
-1.03442e-07 0 0
-1.03444e-07 0 0
-1.03453e-07 0 0
0.00234715 0 0
0 0 5.51401e-07
1.57605e-10 0 2.36131e-08
-3.28366e-08 0 9.57173e-08
-2.22042e-07 0 1.45717e-07
-5.99237e-07 0 -6.05972e-08
-2.32053e-07 0 -2.31939e-07
-6.25256e-08 0 -1.84467e-07
5.34384e-08 0 -1.34111e-07
1.19106e-07 0 -5.64426e-08
1.1003e-07 0 5.0907e-10
4.24762e-08 0 1.81815e-08
-4.17444e-08 0 9.74702e-09
-1.08647e-07 0 -2.29101e-09
-1.48514e-07 0 -7.37834e-09
-1.68879e-07 0 -6.43991e-09
-1.81095e-07 0 -3.4299e-09
-1.91481e-07 0 -8.67184e-10
-2.01251e-07 0 5.45207e-10
-2.09731e-07 0 1.02859e-09
-2.16346e-07 0 1.00431e-09
-2.21058e-07 0 7.89431e-10
-2.24169e-07 0 5.52527e-10
-2.26087e-07 0 3.58959e-10
-2.27184e-07 0 2.21105e-10
-2.27755e-07 0 1.30631e-10
-2.28006e-07 0 7.44643e-11
-2.28074e-07 0 4.10236e-11
-2.28045e-07 0 2.1789e-11
-2.27971e-07 0 1.10676e-11
-2.27879e-07 0 5.27852e-12
-2.27785e-07 0 2.26422e-12
-2.27697e-07 0 7.66374e-13
-2.27616e-07 0 7.17964e-14
-2.27545e-07 0 -2.13064e-13
-2.27482e-07 0 -2.99369e-13
-2.27426e-07 0 -2.96783e-13
-2.27376e-07 0 -2.59865e-13
-2.27332e-07 0 -2.13998e-13
-2.27293e-07 0 -1.69518e-13
-2.27258e-07 0 -1.29149e-13
-2.27227e-07 0 -9.1735e-14
-2.272e-07 0 -5.37052e-14
-2.27176e-07 0 -9.28767e-15
-2.27155e-07 0 4.93733e-14
-2.27138e-07 0 1.36205e-13
-2.27124e-07 0 2.831e-13
-2.27114e-07 0 5.52469e-13
-2.27108e-07 0 1.26923e-12
-2.27111e-07 0 4.12429e-12
-2.27128e-07 0 1.31782e-11
0.00649028 0 -6.59124e-08
0.0036 -1.8929e-07 1.90171e-08
0.00359981 -0.00128339 -8.30774e-06
0.00685211 -0.00401052 -0.000282048
0.0139931 -0.00719194 -0.00182434
0.0250099 -0.0141274 -0.00511343
0.0461903 -0.0113918 -0.00474988
0.0492301 -0.00108684 -0.00144246
0.0487692 0.00312485 0.000131649
0.0435471 0.00531374 0.000802952
0.0378726 0.00533309 0.000596863
0.0328274 0.00444597 0.000117711
0.0286411 0.00331621 -0.000257938
0.0253781 0.00227415 -0.000395932
0.0230033 0.00147563 -0.000343979
0.021369 0.000939675 -0.000221815
0.0202832 0.000601833 -0.000114727
0.01958 0.000387726 -4.82906e-05
0.0191351 0.000248282 -1.52121e-05
0.0188603 0.000156398 -1.65083e-06
0.0186947 9.63906e-05 2.57866e-06
0.0185975 5.79881e-05 3.07603e-06
0.0185419 3.39974e-05 2.42073e-06
0.0185111 1.93764e-05 1.62224e-06
0.0184946 1.0685e-05 9.89529e-07
0.0184863 5.65063e-06 5.62464e-07
0.0184823 2.81667e-06 2.99233e-07
0.0184807 1.27455e-06 1.47196e-07
0.0184803 4.71556e-07 6.42362e-08
0.0184804 7.93963e-08 2.16433e-08
0.0184807 -9.22932e-08 1.47276e-09
0.0184811 -1.51081e-07 -6.85273e-09
0.0184814 -1.55988e-07 -9.289e-09
0.0184816 -1.38234e-07 -9.04684e-09
0.0184819 -1.13522e-07 -7.7752e-09
0.018482 -8.91579e-08 -6.26845e-09
0.0184821 -6.80718e-08 -4.8721e-09
0.0184822 -5.1039e-08 -3.70759e-09
0.0184823 -3.78657e-08 -2.79278e-09
0.0184823 -2.79991e-08 -2.10471e-09
0.0184824 -2.08256e-08 -1.61166e-09
0.0184824 -1.58079e-08 -1.29034e-09
0.0184824 -1.25439e-08 -1.13602e-09
0.0184824 -1.08028e-08 -1.17183e-09
0.0184824 -1.05702e-08 -1.45451e-09
0.0184825 -1.21109e-08 -2.03398e-09
0.0184825 -1.6227e-08 -2.9408e-09
0.0184825 -2.45639e-08 -3.69794e-09
0.0184826 -4.00392e-08 -1.35532e-09
0.0184827 -9.11482e-08 -1.16583e-08
0.0184829 -2.72086e-07 -1.15628e-07
0.0184833 -4.11947e-07 -2.06765e-07
0.01 -1.06897e-07 -1.32331e-06
0.0100009 -0.0030739 -0.000493488
0.0149711 -0.0101408 -0.000994605
0.0240407 -0.0181565 -0.00236427
0.0374832 -0.0307737 -0.0040452
0.0572332 -0.0220517 -0.00109119
0.0550591 -0.00172126 0.00232998
0.0549915 0.00572291 0.00259384
0.0494331 0.0106222 0.00239693
0.0439704 0.0106153 0.00151053
0.0393812 0.00939744 0.000454372
0.0354204 0.00776039 -0.000291979
0.0322051 0.00594201 -0.000593423
0.0298681 0.00422534 -0.000549915
0.0282838 0.002841 -0.000365365
0.0272519 0.00184267 -0.000193185
0.0265996 0.00116554 -8.34494e-05
0.0261996 0.000721514 -2.7589e-05
0.0259624 0.000437275 -4.00156e-06
0.0258268 0.000259265 3.81864e-06
0.0257522 0.000150162 5.12771e-06
0.0257132 8.4719e-05 4.27803e-06
0.025694 4.63242e-05 3.03248e-06
0.0256855 2.43253e-05 1.97533e-06
0.0256825 1.20544e-05 1.22085e-06
0.025682 5.42881e-06 7.27489e-07
0.0256827 2.00203e-06 4.21688e-07
0.0256837 3.38511e-07 2.3897e-07
0.0256847 -3.85575e-07 1.32741e-07
0.0256856 -6.3169e-07 7.23218e-08
0.0256863 -6.51112e-07 3.85986e-08
0.0256869 -5.75851e-07 2.00999e-08
0.0256873 -4.71887e-07 1.01267e-08
0.0256876 -3.69698e-07 4.85033e-09
0.0256878 -2.81394e-07 2.1209e-09
0.025688 -2.10083e-07 7.50082e-10
0.0256881 -1.54848e-07 9.03126e-11
0.0256882 -1.13284e-07 -2.0684e-10
0.0256883 -8.27204e-08 -3.27609e-10
0.0256883 -6.0764e-08 -3.73596e-10
0.0256883 -4.54999e-08 -4.06743e-10
0.0256884 -3.5557e-08 -4.74955e-10
0.0256884 -3.01413e-08 -6.26318e-10
0.0256884 -2.91569e-08 -9.22233e-10
0.0256884 -3.34716e-08 -1.34479e-09
0.0256884 -4.5477e-08 -1.56966e-09
0.0256885 -7.31301e-08 -1.14421e-09
0.0256886 -1.38124e-07 1.76933e-09
0.0256887 -2.70472e-07 -2.00371e-08
0.0256889 -5.12621e-07 -1.88528e-07
0.0256891 -6.68162e-07 -3.32764e-07
0.0148 -9.75702e-07 -1.64381e-06
0.0148024 -0.00530533 -0.00104332
0.0200465 -0.016189 -0.00252586
0.0264338 -0.0277511 -0.00448866
0.0308511 -0.0436913 -0.00538161
0.0293606 -0.0268429 -0.000903775
0.026274 -1.15043e-05 0.00266694
0.0261709 0.00739502 0.00269281
0.0304635 0.0153285 0.00259685
0.030843 0.0150295 0.00167719
0.0297355 0.0132014 0.000663767
0.0286025 0.0109568 -9.28551e-05
0.0277941 0.00829252 -0.000412989
0.0274862 0.00573538 -0.000411579
0.0274478 0.00375013 -0.000268614
0.0274944 0.00237594 -0.000126669
0.0275506 0.0014718 -3.67135e-05
0.0275997 0.000891202 5.38245e-06
0.0276417 0.000525996 1.8671e-05
0.0276774 0.000301702 1.88175e-05
0.0277069 0.000167543 1.4677e-05
0.0277302 8.94925e-05 1.01599e-05
0.0277479 4.53961e-05 6.5574e-06
0.0277609 2.12874e-05 4.04025e-06
0.0277701 8.62629e-06 2.40742e-06
0.0277765 2.33456e-06 1.39791e-06
0.027781 -5.28651e-07 7.94615e-07
0.027784 -1.6222e-06 4.43229e-07
0.027786 -1.85552e-06 2.42769e-07
0.0277874 -1.71072e-06 1.30433e-07
0.0277884 -1.43222e-06 6.85137e-08
0.027789 -1.13602e-06 3.49458e-08
0.0277894 -8.71084e-07 1.70786e-08
0.0277897 -6.52976e-07 7.77758e-09
0.0277899 -4.81868e-07 3.07728e-09
0.0277901 -3.51751e-07 8.03794e-10
0.0277902 -2.54945e-07 -2.18313e-10
0.0277902 -1.84129e-07 -6.15338e-10
0.0277903 -1.33113e-07 -7.1612e-10
0.0277903 -9.70156e-08 -6.92186e-10
0.0277903 -7.22129e-08 -6.3622e-10
0.0277904 -5.62221e-08 -6.05945e-10
0.0277904 -4.7645e-08 -6.40578e-10
0.0277904 -4.62425e-08 -7.50975e-10
0.0277904 -5.36547e-08 -9.12762e-10
0.0277904 -7.50793e-08 -1.17293e-09
0.0277904 -1.18558e-07 -2.43754e-09
0.0277905 -1.93019e-07 -6.50161e-09
0.0277905 -3.08784e-07 -4.71159e-08
0.0277906 -4.76865e-07 -2.46803e-07
0.0277905 -5.75349e-07 -4.08897e-07
0.018 -2.0019e-06 -1.74869e-06
0.0180026 -0.00669282 -0.00187595
0.0203831 -0.0179195 -0.0049774
0.0201646 -0.0234609 -0.00656268
0.0158666 -0.0256255 -0.00720855
-1.39734e-06 -0.0134005 -0.0037485
0.00010091 3.0842e-05 7.81395e-07
-3.71416e-05 3.89394e-05 0.000506541
0.00710801 0.00477389 0.00106278
0.0148471 0.0108872 0.000953051
0.0182793 0.0117172 0.000525204
0.0199026 0.0100408 2.70598e-05
0.0216112 0.00742028 -0.000274266
0.0233916 0.00483916 -0.000308238
0.0249352 0.00298225 -0.000203976
0.0260954 0.00180041 -8.42478e-05
0.026887 0.0010714 -4.46206e-06
0.0273997 0.000621392 3.06288e-05
0.027725 0.00034606 3.70887e-05
0.0279297 0.000182343 3.10934e-05
0.0280579 8.89703e-05 2.22382e-05
0.0281375 3.83069e-05 1.45293e-05
0.0281865 1.24318e-05 8.95274e-06
0.0282164 2.82072e-07 5.29295e-06
0.0282345 -4.64458e-06 3.03199e-06
0.0282454 -6.00065e-06 1.69195e-06
0.0282519 -5.74828e-06 9.2182e-07
0.0282558 -4.89039e-06 4.90034e-07
0.0282581 -3.90702e-06 2.5315e-07
0.0282595 -3.00468e-06 1.25918e-07
0.0282604 -2.25383e-06 5.91552e-08
0.0282609 -1.66193e-06 2.51193e-08
0.0282612 -1.21073e-06 8.45181e-09
0.0282614 -8.74394e-07 7.92181e-10
0.0282615 -6.27589e-07 -2.33457e-09
0.0282616 -4.48564e-07 -3.27881e-09
0.0282616 -3.19883e-07 -3.24636e-09
0.0282616 -2.28139e-07 -2.83673e-09
0.0282617 -1.63317e-07 -2.33533e-09
0.0282617 -1.18121e-07 -1.87139e-09
0.0282617 -8.73891e-08 -1.50302e-09
0.0282617 -6.76559e-08 -1.26296e-09
0.0282617 -5.6931e-08 -1.19669e-09
0.0282617 -5.47044e-08 -1.41532e-09
0.0282617 -6.1636e-08 -2.17012e-09
0.0282617 -7.86904e-08 -4.22945e-09
0.0282617 -1.06563e-07 -9.34557e-09
0.0282617 -1.45184e-07 -1.91967e-08
0.0282616 -1.97672e-07 -6.95273e-08
0.0282616 -2.70024e-07 -2.77924e-07
0.0282614 -3.1182e-07 -4.42281e-07
0.0196 -2.66949e-06 -2.68218e-06
0.0196008 -0.00542208 -0.00272214
0.0191089 -0.0122064 -0.00648146
0.0161622 -0.0148846 -0.0069172
0.0112808 -0.013653 -0.00668367
0.00211101 -0.00555532 -0.00455932
7.61193e-05 -7.00295e-05 -0.00103093
3.28878e-05 -3.28878e-05 -4.37314e-08
-3.62443e-05 3.80389e-05 0.000160491
0.00471736 0.00358646 0.000330387
0.0108008 0.00810788 0.00026544
0.0136083 0.00776671 -1.39778e-05
0.0168649 0.0050275 -0.000297681
0.0201222 0.00260875 -0.000361245
0.0228955 0.00116708 -0.000281352
0.0249485 0.000471741 -0.000149134
0.0263054 0.000169013 -4.01576e-05
0.027142 3.54156e-05 1.67843e-05
0.0276417 -2.47246e-05 3.32031e-05
0.027936 -4.80399e-05 3.01412e-05
0.0281077 -5.18569e-05 2.167e-05
0.0282069 -4.64339e-05 1.38465e-05
0.0282636 -3.78178e-05 8.23446e-06
0.0282956 -2.91292e-05 4.66017e-06
0.0283134 -2.16677e-05 2.53723e-06
0.0283233 -1.57615e-05 1.33401e-06
0.0283286 -1.13012e-05 6.75734e-07
0.0283315 -8.02856e-06 3.26377e-07
0.028333 -5.67033e-06 1.46546e-07
0.0283337 -3.99027e-06 5.72755e-08
0.0283341 -2.80189e-06 1.51589e-08
0.0283343 -1.96503e-06 -3.10042e-09
0.0283344 -1.3773e-06 -9.73389e-09
0.0283344 -9.6523e-07 -1.10161e-08
0.0283344 -6.76629e-07 -1.00744e-08
0.0283344 -4.74684e-07 -8.40596e-09
0.0283343 -3.33537e-07 -6.68196e-09
0.0283343 -2.35083e-07 -5.16907e-09
0.0283343 -1.66685e-07 -3.94655e-09
0.0283343 -1.19566e-07 -3.01819e-09
0.0283343 -8.76934e-08 -2.37369e-09
0.0283343 -6.70027e-08 -2.02877e-09
0.0283343 -5.4783e-08 -2.07042e-09
0.0283343 -4.90601e-08 -2.74001e-09
0.0283343 -4.80783e-08 -4.45027e-09
0.0283342 -4.98351e-08 -7.92492e-09
0.0283342 -5.15867e-08 -1.46978e-08
0.0283342 -4.84658e-08 -2.57097e-08
0.0283341 -3.53282e-08 -7.709e-08
0.028334 -1.25402e-08 -2.85673e-07
0.0283338 7.01782e-10 -4.49467e-07
0.0196 -1.29909e-06 -3.60772e-06
0.0196001 -0.00334842 -0.00306968
0.0189872 -0.00712671 -0.00653722
0.0177085 -0.00681432 -0.00643123
0.0137775 -0.00308238 -0.00573155
0.0098631 0.00326233 -0.00471979
0.00640572 0.00330998 -0.00240122
7.61882e-05 -6.38707e-05 -0.000453057
2.76264e-05 -2.76264e-05 -1.32307e-07
-3.52664e-05 3.72222e-05 4.70141e-05
0.00357318 0.00279163 0.000337891
0.0082096 0.0040619 0.000370366
0.013598 0.00112405 -2.07123e-05
0.0183812 -0.000949783 -0.00029926
0.0221452 -0.00165852 -0.000382815
0.0247695 -0.00150901 -0.000289213
0.0263786 -0.00109058 -0.000143654
0.0272774 -0.000719922 -4.27468e-05
0.0277568 -0.000464274 1.26095e-06
0.0280076 -0.000299251 1.23542e-05
0.0281373 -0.000193149 1.11479e-05
0.0282034 -0.00012457 7.41377e-06
0.0282364 -8.02555e-05 4.29019e-06
0.0282523 -5.17331e-05 2.27189e-06
0.0282596 -3.34413e-05 1.11555e-06
0.0282627 -2.17235e-05 5.01457e-07
0.0282637 -1.42026e-05 1.94934e-07
0.0282638 -9.35356e-06 5.18202e-08
0.0282636 -6.20703e-06 -8.86458e-09
0.0282632 -4.14972e-06 -3.01018e-08
0.0282629 -2.79371e-06 -3.37206e-08
0.0282626 -1.89275e-06 -3.03448e-08
0.0282624 -1.2896e-06 -2.48835e-08
0.0282622 -8.83042e-07 -1.9431e-08
0.0282621 -6.0736e-07 -1.47508e-08
0.028262 -4.19501e-07 -1.10128e-08
0.0282619 -2.91015e-07 -8.14732e-09
0.0282618 -2.02948e-07 -6.01066e-09
0.0282618 -1.42583e-07 -4.45755e-09
0.0282618 -1.01329e-07 -3.37402e-09
0.0282617 -7.33112e-08 -2.69617e-09
0.0282617 -5.43925e-08 -2.4287e-09
0.0282617 -4.14486e-08 -2.66495e-09
0.0282617 -3.17843e-08 -3.61144e-09
0.0282617 -2.25575e-08 -5.5754e-09
0.0282617 -1.0121e-08 -9.13265e-09
0.0282616 1.08173e-08 -1.57851e-08
0.0282616 4.97694e-08 -2.59598e-08
0.0282615 1.2331e-07 -7.33253e-08
0.0282615 2.41943e-07 -2.75688e-07
0.0282613 3.12616e-07 -4.36538e-07
0.018 -8.23962e-07 -3.54516e-06
0.018001 -0.00170482 -0.00300492
0.0184599 -0.00301131 -0.00620041
0.0187548 -0.00147059 -0.00566941
0.0180721 0.00169017 -0.00459075
0.0179881 0.00758923 -0.00374121
0.0185923 0.0126819 -0.00234376
0.0114715 0.00694612 -0.0010551
7.79213e-05 -4.98201e-05 -0.000331937
-2.82527e-05 -5.736e-05 5.63084e-07
7.86956e-06 -0.000243911 0.000816846
0.0092658 -0.00237956 0.00131611
0.0170289 -0.00503011 0.000727103
0.0219182 -0.00566355 0.000191603
0.0247812 -0.0049237 -0.000205353
0.0264159 -0.00354878 -0.000322168
0.0272731 -0.00223224 -0.000240294
0.0276633 -0.0013075 -0.00012666
0.0278121 -0.000751555 -5.41318e-05
0.0278536 -0.000434341 -2.03557e-05
0.0278541 -0.000253638 -7.18742e-06
0.0278423 -0.000149548 -2.57789e-06
0.0278292 -8.89994e-05 -1.0535e-06
0.0278183 -5.35063e-05 -5.42723e-07
0.02781 -3.25383e-05 -3.45355e-07
0.0278041 -2.0037e-05 -2.44503e-07
0.0277999 -1.2502e-05 -1.78094e-07
0.027797 -7.90435e-06 -1.29215e-07
0.027795 -5.06201e-06 -9.26294e-08
0.0277936 -3.28113e-06 -6.56643e-08
0.0277926 -2.1505e-06 -4.61888e-08
0.0277919 -1.42359e-06 -3.23568e-08
0.0277915 -9.50759e-07 -2.26473e-08
0.0277912 -6.39933e-07 -1.58797e-08
0.0277909 -4.33703e-07 -1.11795e-08
0.0277908 -2.95792e-07 -7.91911e-09
0.0277907 -2.02976e-07 -5.65951e-09
0.0277906 -1.40206e-07 -4.0996e-09
0.0277905 -9.75957e-08 -3.03966e-09
0.0277905 -6.85404e-08 -2.35757e-09
0.0277904 -4.8494e-08 -1.99635e-09
0.0277904 -3.41392e-08 -1.95913e-09
0.0277904 -2.2763e-08 -2.31581e-09
0.0277904 -1.17048e-08 -3.22716e-09
0.0277904 2.25239e-09 -4.92341e-09
0.0277904 2.36967e-08 -7.83343e-09
0.0277903 5.95907e-08 -1.33435e-08
0.0277903 1.2257e-07 -2.13579e-08
0.0277903 2.42456e-07 -5.9308e-08
0.0277903 4.47893e-07 -2.43976e-07
0.0277903 5.73849e-07 -3.95084e-07
0.0148 -4.79387e-07 -3.09546e-06
0.0148015 -0.000791402 -0.00278933
0.0164374 -0.000926571 -0.00552788
0.0184464 0.000973945 -0.00472409
0.0203315 0.00403056 -0.00354235
0.0224109 0.00761973 -0.00291562
0.0260729 0.0127775 -0.00211044
0.0292184 0.019764 -0.00116931
0.0238408 0.0116853 -0.00015868
0.0242236 -4.67383e-10 0.000617796
0.0276537 -0.00689184 0.00150373
0.0320711 -0.013615 0.00223841
0.0333533 -0.0118016 0.0020029
0.0323153 -0.00863691 0.00131086
0.0303928 -0.00589304 0.000350353
0.028647 -0.00372529 -0.000260842
0.0274448 -0.00215408 -0.000370856
0.026713 -0.00116732 -0.000254744
0.0262861 -0.000617683 -0.000132999
0.0260392 -0.00032873 -6.08454e-05
0.0258962 -0.000178255 -2.61259e-05
0.0258129 -9.8827e-05 -1.09203e-05
0.0257639 -5.60177e-05 -4.54069e-06
0.0257349 -3.24284e-05 -1.90598e-06
0.0257175 -1.91463e-05 -8.16124e-07
0.0257068 -1.15128e-05 -3.58545e-07
0.0257002 -7.04082e-06 -1.61522e-07
0.0256961 -4.37363e-06 -7.39903e-08
0.0256935 -2.75614e-06 -3.3877e-08
0.0256918 -1.75983e-06 -1.50675e-08
0.0256907 -1.13718e-06 -6.18555e-09
0.0256899 -7.42782e-07 -2.06555e-09
0.0256894 -4.89855e-07 -2.62541e-10
0.0256891 -3.25833e-07 4.1997e-10
0.0256889 -2.1841e-07 5.78515e-10
0.0256887 -1.47451e-07 5.10051e-10
0.0256886 -1.00233e-07 3.57871e-10
0.0256886 -6.86056e-08 1.84833e-10
0.0256885 -4.725e-08 1.03172e-11
0.0256885 -3.26046e-08 -1.72361e-10
0.0256884 -2.21578e-08 -3.90487e-10
0.0256884 -1.39524e-08 -6.93912e-10
0.0256884 -6.17975e-09 -1.16359e-09
0.0256884 3.2221e-09 -1.93164e-09
0.0256884 1.70632e-08 -3.16238e-09
0.0256884 3.97642e-08 -5.10259e-09
0.0256884 7.85911e-08 -8.68433e-09
0.0256884 1.45909e-07 -1.38029e-08
0.0256885 2.76548e-07 -3.99846e-08
0.0256886 5.13457e-07 -1.91333e-07
0.0256888 6.62527e-07 -3.19268e-07
0.01 -9.30569e-07 -2.76447e-06
0.0100008 -0.000491425 -0.0023101
0.0116397 -0.000321122 -0.0043185