# vtk DataFile Version 2.0
Tobias Weinzierl: CPU, Manycore and Cluster Computing
ASCII

DATASET STRUCTURED_POINTS
DIMENSIONS  51 11 6

ORIGIN 0 0 0 

SPACING 0.1 0.1 0.1 

POINT_DATA 3366

VECTORS velocity float
0 0 0
1.03638e-12 0 0
3.02077e-09 0 0
4.6484e-09 0 0
-8.06989e-09 0 0
4.61735e-09 0 0
5.93012e-09 0 0
4.51393e-09 0 0
3.57792e-09 0 0
1.82944e-09 0 0
3.85486e-10 0 0
-6.61663e-11 0 0
-1.11431e-09 0 0
-4.16815e-09 0 0
-8.24958e-09 0 0
-1.13137e-08 0 0
-1.2601e-08 0 0
-1.28612e-08 0 0
-1.31219e-08 0 0
-1.38575e-08 0 0
-1.49985e-08 0 0
-1.62665e-08 0 0
-1.74219e-08 0 0
-1.83434e-08 0 0
-1.90097e-08 0 0
-1.94544e-08 0 0
-1.973e-08 0 0
-1.98874e-08 0 0
-1.99679e-08 0 0
-2.00016e-08 0 0
-2.00089e-08 0 0
-2.00027e-08 0 0
-1.99909e-08 0 0
-1.99777e-08 0 0
-1.99654e-08 0 0
-1.99549e-08 0 0
-1.99464e-08 0 0
-1.99398e-08 0 0
-1.99347e-08 0 0
-1.9931e-08 0 0
-1.99282e-08 0 0
-1.99262e-08 0 0
-1.99248e-08 0 0
-1.99238e-08 0 0
-1.99231e-08 0 0
-1.99227e-08 0 0
-1.99225e-08 0 0
-1.99225e-08 0 0
-1.99227e-08 0 0
-1.99236e-08 0 0
0.00197488 0 0
0 3.86548e-07 0
1.40166e-13 -2.83876e-09 0
4.69425e-09 -6.77426e-09 0
1.00681e-08 -2.07729e-09 0
-5.27654e-09 -1.04298e-08 0
1.80418e-08 -1.3782e-08 0
1.9025e-08 6.40542e-10 0
1.40685e-08 4.51288e-09 0
1.20089e-08 5.19401e-09 0
9.33268e-09 4.71652e-09 0
6.03074e-09 2.65995e-09 0
3.37733e-09 2.22424e-09 0
-3.7854e-10 4.78954e-09 0
-6.89473e-09 7.3579e-09 0
-1.42096e-08 6.99496e-09 0
-1.92507e-08 4.32037e-09 0
-2.16151e-08 1.7617e-09 0
-2.31973e-08 6.5577e-10 0
-2.57095e-08 7.42246e-10 0
-2.95022e-08 1.20792e-09 0
-3.3961e-08 1.5091e-09 0
-3.82807e-08 1.50926e-09 0
-4.19166e-08 1.29382e-09 0
-4.46686e-08 9.91954e-10 0
-4.65814e-08 6.96429e-10 0
-4.78153e-08 4.52214e-10 0
-4.85544e-08 2.70758e-10 0
-4.89603e-08 1.46256e-10 0
-4.91562e-08 6.66475e-11 0
-4.92285e-08 1.93965e-11 0
-4.92339e-08 -6.09566e-12 0
-4.92072e-08 -1.7863e-11 0
-4.91686e-08 -2.156e-11 0
-4.9129e-08 -2.09266e-11 0
-4.90935e-08 -1.82906e-11 0
-4.90638e-08 -1.50052e-11 0
-4.90403e-08 -1.17892e-11 0
-4.90221e-08 -8.97211e-12 0
-4.90085e-08 -6.66035e-12 0
-4.89984e-08 -4.84313e-12 0
-4.89911e-08 -3.45657e-12 0
-4.89858e-08 -2.41967e-12 0
-4.8982e-08 -1.65278e-12 0
-4.89794e-08 -1.08459e-12 0
-4.89776e-08 -6.54124e-13 0
-4.89766e-08 -3.07254e-13 0
-4.89761e-08 1.73294e-14 0
-4.89763e-08 3.97082e-13 0
-4.89773e-08 1.20919e-12 0
-4.898e-08 3.56247e-12 0
0.00565995 -3.44664e-08 0
0 -2.17103e-08 0
-3.1892e-13 -2.58801e-09 0
5.1951e-09 -1.04071e-08 0
1.725e-08 -1.6603e-08 0
1.74643e-08 -3.27769e-08 0
3.71931e-08 -2.76615e-08 0
3.16055e-08 -2.00481e-09 0
2.68411e-08 6.82828e-10 0
1.89916e-08 -5.47388e-09 0
9.69454e-09 -1.07608e-08 0
9.57273e-10 -1.1038e-08 0
-2.99942e-09 -5.66311e-09 0
-5.31852e-09 1.60793e-09 0
-1.06273e-08 6.64877e-09 0
-1.71389e-08 9.09831e-09 0
-2.13841e-08 1.06185e-08 0
-2.2914e-08 1.18426e-08 0
-2.36603e-08 1.23967e-08 0
-2.5418e-08 1.20032e-08 0
-2.86618e-08 1.07603e-08 0
-3.28187e-08 8.97055e-09 0
-3.70094e-08 6.98465e-09 0
-4.05776e-08 5.0995e-09 0
-4.32477e-08 3.50134e-09 0
-4.5041e-08 2.26093e-09 0
-4.61281e-08 1.36533e-09 0
-4.67135e-08 7.58148e-10 0
-4.69761e-08 3.70446e-10 0
-4.70493e-08 1.38309e-10 0
-4.7023e-08 1.00357e-11 0
-4.69527e-08 -5.27295e-11 0
-4.68702e-08 -7.66665e-11 0
-4.67915e-08 -7.93215e-11 0
-4.67237e-08 -7.16177e-11 0
-4.66687e-08 -5.99526e-11 0
-4.66258e-08 -4.77926e-11 0
-4.65932e-08 -3.6805e-11 0
-4.65691e-08 -2.76181e-11 0
-4.65514e-08 -2.03051e-11 0
-4.65386e-08 -1.46766e-11 0
-4.65295e-08 -1.04456e-11 0
-4.6523e-08 -7.31473e-12 0
-4.65184e-08 -5.01463e-12 0
-4.65153e-08 -3.31546e-12 0
-4.65132e-08 -2.02041e-12 0
-4.6512e-08 -9.49252e-13 0
-4.65116e-08 1.43508e-13 0
-4.6512e-08 1.68296e-12 0
-4.65133e-08 4.15128e-12 0
-4.65159e-08 7.9684e-12 0
0.00808294 -7.73636e-08 0
0 -6.41281e-07 0
3.74745e-12 -4.85866e-09 0
7.33397e-09 -1.68132e-08 0
2.16281e-08 -3.11787e-08 0
1.89826e-08 -4.2437e-08 0
2.37686e-08 -2.32234e-08 0
1.85162e-08 -1.22986e-11 0
1.72867e-08 -2.71468e-09 0
2.2742e-09 -1.23057e-08 0
-1.1445e-08 -2.29885e-08 0
-1.74343e-08 -2.84038e-08 0
-1.85e-08 -2.84672e-08 0
-1.98376e-08 -2.10263e-08 0
-2.66203e-08 -7.12678e-09 0
-3.47793e-08 8.01978e-09 0
-3.92595e-08 1.91173e-08 0
-3.85508e-08 2.36708e-08 0
-3.42861e-08 2.28782e-08 0
-2.92263e-08 1.9457e-08 0
-2.5422e-08 1.54096e-08 0
-2.3472e-08 1.16044e-08 0
-2.29234e-08 8.30772e-09 0
-2.30364e-08 5.60353e-09 0
-2.32672e-08 3.51349e-09 0
-2.33693e-08 2.0017e-09 0
-2.33015e-08 9.82658e-10 0
-2.31127e-08 3.46587e-10 0
-2.28678e-08 -1.519e-11 0
-2.26173e-08 -1.94727e-10 0
-2.23909e-08 -2.62046e-10 0
-2.22012e-08 -2.66167e-10 0
-2.20505e-08 -2.39e-10 0
-2.1935e-08 -1.9985e-10 0
-2.18489e-08 -1.59429e-10 0
-2.1786e-08 -1.22978e-10 0
-2.17408e-08 -9.2496e-11 0
-2.17087e-08 -6.82169e-11 0
-2.1686e-08 -4.95247e-11 0
-2.167e-08 -3.54873e-11 0
-2.16589e-08 -2.51383e-11 0
-2.16512e-08 -1.76092e-11 0
-2.16458e-08 -1.21755e-11 0
-2.16421e-08 -8.2566e-12 0
-2.16395e-08 -5.39344e-12 0
-2.16379e-08 -3.20841e-12 0
-2.1637e-08 -1.34602e-12 0
-2.16365e-08 5.47563e-13 0
-2.16365e-08 2.74152e-12 0
-2.16364e-08 5.31213e-12 0
-2.16369e-08 8.13629e-12 0
0.00905641 -8.1519e-08 0
0 -1.25155e-06 0
1.69221e-12 -9.17411e-09 0
3.0211e-09 -2.51272e-08 0
7.98719e-09 -3.28237e-08 0
2.41127e-09 -2.65378e-08 0
-3.34173e-12 -9.67422e-09 0
-9.54862e-11 -1.18214e-10 0
1.08724e-10 -1.16247e-10 0
-8.28639e-09 -1.06664e-08 0
-2.96441e-08 -3.19086e-08 0
-3.68404e-08 -4.63082e-08 0
-3.52074e-08 -4.68366e-08 0
-3.85093e-08 -3.24493e-08 0
-4.59144e-08 -8.66578e-09 0
-5.25463e-08 1.33758e-08 0
-5.53331e-08 2.62842e-08 0
-5.272e-08 2.85451e-08 0
-4.49282e-08 2.39064e-08 0
-3.44335e-08 1.72562e-08 0
-2.44083e-08 1.14185e-08 0
-1.67477e-08 7.06495e-09 0
-1.16716e-08 3.96418e-09 0
-8.51228e-09 1.80158e-09 0
-6.51156e-09 3.66842e-10 0
-5.15349e-09 -4.95625e-10 0
-4.16601e-09 -9.30744e-10 0
-3.42275e-09 -1.0747e-09 0
-2.86227e-09 -1.04231e-09 0
-2.44633e-09 -9.19267e-10 0
-2.1444e-09 -7.62568e-10 0
-1.93001e-09 -6.05858e-10 0
-1.7807e-09 -4.66179e-10 0
-1.67837e-09 -3.50004e-10 0
-1.6091e-09 -2.57777e-10 0
-1.56262e-09 -1.8697e-10 0
-1.53161e-09 -1.33952e-10 0
-1.51097e-09 -9.50065e-11 0
-1.49725e-09 -6.68187e-11 0
-1.48809e-09 -4.66502e-11 0
-1.48196e-09 -3.23438e-11 0
-1.47782e-09 -2.22541e-11 0
-1.47502e-09 -1.51527e-11 0
-1.47311e-09 -1.0132e-11 0
-1.47181e-09 -6.51602e-12 0
-1.4709e-09 -3.79513e-12 0
-1.47021e-09 -1.60406e-12 0
-1.4695e-09 2.72674e-13 0
-1.46854e-09 1.90045e-12 0
-1.46722e-09 3.30289e-12 0
-1.46628e-09 4.72147e-12 0
0.00939432 -4.70498e-08 0
0 -1.13139e-06 0
-5.28694e-12 -1.00928e-08 0
-2.9747e-09 -2.1932e-08 0
-3.24605e-09 -2.55671e-08 0
-9.18173e-09 -2.58649e-08 0
-8.10271e-09 -1.21393e-08 0
-1.02648e-10 9.96089e-11 0
9.12198e-12 -9.12198e-12 0
1.03223e-10 -1.14223e-10 0
-1.60078e-08 -1.78108e-08 0
-4.47323e-08 -4.84478e-08 0
-4.7271e-08 -5.61897e-08 0
-4.95493e-08 -3.73982e-08 0
-5.13156e-08 -9.15622e-09 0
-5.19087e-08 1.56133e-08 0
-5.24454e-08 2.89083e-08 0
-5.12794e-08 2.91248e-08 0
-4.54199e-08 2.11976e-08 0
-3.49679e-08 1.17057e-08 0
-2.31457e-08 4.39557e-09 0
-1.30702e-08 -1.13136e-10 0
-5.93505e-09 -2.52659e-09 0
-1.41869e-09 -3.61282e-09 0
1.29484e-09 -3.8862e-09 0
2.9137e-09 -3.67575e-09 0
3.89522e-09 -3.20948e-09 0
4.50071e-09 -2.64727e-09 0
4.8764e-09 -2.09184e-09 0
5.1076e-09 -1.5991e-09 0
5.24712e-09 -1.19127e-09 0
5.32892e-09 -8.69704e-10 0
5.37514e-09 -6.24974e-10 0
5.40003e-09 -4.43583e-10 0
5.41256e-09 -3.11801e-10 0
5.41823e-09 -2.17508e-10 0
5.42029e-09 -1.50818e-10 0
5.4206e-09 -1.04067e-10 0
5.42017e-09 -7.15124e-11 0
5.41952e-09 -4.89545e-11 0
5.41891e-09 -3.33758e-11 0
5.41841e-09 -2.26336e-11 0
5.41808e-09 -1.52173e-11 0
5.41789e-09 -1.00674e-11 0
5.41786e-09 -6.4514e-12 0
5.41801e-09 -3.88519e-12 0
5.4184e-09 -2.07074e-12 0
5.41914e-09 -8.3024e-13 0
5.42025e-09 -6.87319e-14 0
5.42162e-09 2.19937e-13 0
5.42255e-09 3.20148e-13 0
0.00947157 5.80599e-09 0
0 -7.81725e-07 0
-2.77478e-12 -6.2273e-09 0
-3.1764e-09 -1.58462e-08 0
-2.95144e-09 -2.06077e-08 0
-1.39041e-08 -2.00654e-08 0
-2.04645e-08 -1.16987e-08 0
-8.89953e-09 -2.62124e-09 0
-1.00412e-10 9.88051e-11 0
4.42541e-12 -4.42541e-12 0
9.52202e-11 -1.11226e-10 0
-2.06382e-08 -2.85165e-08 0
-3.64461e-08 -5.34207e-08 0
-4.38386e-08 -3.55981e-08 0
-4.41484e-08 -7.06298e-09 0
-3.97629e-08 1.69779e-08 0
-3.61343e-08 2.91666e-08 0
-3.52444e-08 2.77876e-08 0
-3.33418e-08 1.7754e-08 0
-2.74186e-08 6.36194e-09 0
-1.88759e-08 -1.92273e-09 0
-1.08575e-08 -6.35647e-09 0
-5.19517e-09 -7.95513e-09 0
-1.99054e-09 -7.88796e-09 0
-5.3574e-10 -6.98459e-09 0
-7.80104e-11 -5.76032e-09 0
-9.61141e-11 -4.5162e-09 0
-2.97394e-10 -3.40902e-09 0
-5.39516e-10 -2.50026e-09 0
-7.62484e-10 -1.79427e-09 0
-9.46606e-10 -1.26684e-09 0
-1.09008e-09 -8.83786e-10 0
-1.19798e-09 -6.11206e-10 0
-1.27725e-09 -4.20064e-10 0
-1.33453e-09 -2.87415e-10 0
-1.37539e-09 -1.96029e-10 0
-1.40426e-09 -1.33383e-10 0
-1.42448e-09 -9.05843e-11 0
-1.43855e-09 -6.14097e-11 0
-1.44825e-09 -4.15491e-11 0
-1.45489e-09 -2.80371e-11 0
-1.45937e-09 -1.88425e-11 0
-1.46235e-09 -1.25814e-11 0
-1.46426e-09 -8.31997e-12 0
-1.4654e-09 -5.43751e-12 0
-1.46596e-09 -3.52893e-12 0
-1.46607e-09 -2.33972e-12 0
-1.46579e-09 -1.73088e-12 0
-1.46519e-09 -1.69024e-12 0
-1.46444e-09 -2.41315e-12 0
-1.46405e-09 -3.89094e-12 0
0.00939429 5.60184e-08 0
0 -5.48339e-07 0
1.51713e-12 -4.57444e-09 0
-1.38937e-09 -1.16474e-08 0
-3.44542e-09 -1.54314e-08 0
-1.38913e-08 -1.3853e-08 0
-2.59727e-08 -6.04016e-09 0
-2.46359e-08 -3.39821e-10 0
-1.35748e-08 2.05456e-10 0
-1.06329e-10 9.12788e-11 0
9.34098e-11 8.55139e-11 0
3.04999e-12 -1.57356e-08 0
-2.2576e-08 -3.01266e-08 0
-4.12639e-08 -1.74246e-08 0
-4.65625e-08 3.67852e-09 0
-3.72879e-08 1.83713e-08 0
-2.33464e-08 2.32992e-08 0
-1.59538e-08 1.93325e-08 0
-1.55779e-08 1.01726e-08 0
-1.64733e-08 8.36535e-10 0
-1.57263e-08 -5.48078e-09 0
-1.42253e-08 -8.35109e-09 0
-1.34344e-08 -8.78094e-09 0
-1.37736e-08 -7.90149e-09 0
-1.48908e-08 -6.50475e-09 0
-1.62856e-08 -5.04809e-09 0
-1.76137e-08 -3.75697e-09 0
-1.87194e-08 -2.71294e-09 0
-1.95711e-08 -1.91745e-09 0
-2.01966e-08 -1.33527e-09 0
-2.06425e-08 -9.20698e-10 0
-2.09544e-08 -6.30814e-10 0
-2.117e-08 -4.30482e-10 0
-2.13181e-08 -2.93043e-10 0
-2.14193e-08 -1.9916e-10 0
-2.14883e-08 -1.35189e-10 0
-2.15352e-08 -9.16618e-11 0
-2.15671e-08 -6.20702e-11 0
-2.15887e-08 -4.19652e-11 0
-2.16034e-08 -2.83132e-11 0
-2.16132e-08 -1.90497e-11 0
-2.16198e-08 -1.27729e-11 0
-2.16241e-08 -8.53456e-12 0
-2.1627e-08 -5.69635e-12 0
-2.16287e-08 -3.83455e-12 0
-2.16298e-08 -2.67894e-12 0
-2.16304e-08 -2.08137e-12 0
-2.16307e-08 -2.00652e-12 0
-2.16307e-08 -2.5533e-12 0
-2.16307e-08 -4.11757e-12 0
-2.16314e-08 -7.05049e-12 0
0.00905637 8.31216e-08 0
0 -4.65848e-07 0
1.69751e-12 -2.4115e-09 0
-3.73979e-10 -6.67097e-09 0
-5.05458e-09 -9.79588e-09 0
-1.81114e-08 -9.48248e-09 0
-3.26447e-08 -1.76461e-09 0
-3.49425e-08 4.52694e-09 0
-3.04241e-08 -5.85025e-09 0
-1.90547e-08 -8.19581e-09 0
-1.67735e-08 1.5652e-13 0
-1.88277e-08 -4.9879e-09 0
-3.75798e-08 -5.81815e-09 0
-5.52492e-08 5.42694e-09 0
-5.60289e-08 1.52581e-08 0
-3.79479e-08 1.59691e-08 0
-1.58785e-08 1.00797e-08 0
-6.49594e-09 2.72492e-09 0
-1.10653e-08 -2.84612e-09 0
-2.02968e-08 -5.51267e-09 0
-2.74588e-08 -5.84397e-09 0
-3.16945e-08 -5.07461e-09 0
-3.44411e-08 -4.0969e-09 0
-3.67406e-08 -3.24239e-09 0
-3.88674e-08 -2.54432e-09 0
-4.07552e-08 -1.96962e-09 0
-4.2314e-08 -1.4964e-09 0
-4.35232e-08 -1.11472e-09 0
-4.4419e-08 -8.15888e-10 0
-4.50621e-08 -5.88547e-10 0
-4.55144e-08 -4.19656e-10 0
-4.58283e-08 -2.96472e-10 0
-4.60445e-08 -2.07873e-10 0
-4.61926e-08 -1.44829e-10 0
-4.62938e-08 -1.00349e-10 0
-4.63628e-08 -6.91834e-11 0
-4.64098e-08 -4.74761e-11 0
-4.64417e-08 -3.24345e-11 0
-4.64633e-08 -2.20604e-11 0
-4.64779e-08 -1.49373e-11 0
-4.64877e-08 -1.00692e-11 0
-4.64942e-08 -6.76132e-12 0
-4.64986e-08 -4.53373e-12 0
-4.65014e-08 -3.06015e-12 0
-4.65033e-08 -2.12787e-12 0
-4.65045e-08 -1.61139e-12 0
-4.65053e-08 -1.46071e-12 0
-4.65059e-08 -1.71291e-12 0
-4.65066e-08 -2.49478e-12 0
-4.65077e-08 -4.17427e-12 0
-4.65101e-08 -7.24006e-12 0
0.00808293 7.08561e-08 0
0 -4.81017e-07 0
4.48244e-12 -4.65874e-10 0
1.78639e-10 -1.84803e-09 0
-6.26275e-09 -3.38707e-09 0
-2.06178e-08 -3.64425e-09 0
-3.61087e-08 -2.36576e-09 0
-3.96753e-08 2.37462e-10 0
-3.55802e-08 -2.44268e-09 0
-4.09544e-08 -4.21993e-09 0
-3.84551e-08 1.68758e-09 0
-3.59449e-08 7.10151e-09 0
-3.86033e-08 1.004e-08 0
-3.95224e-08 9.9532e-09 0
-3.25068e-08 7.37247e-09 0
-1.73895e-08 3.30842e-09 0
-4.98282e-09 -1.75454e-09 0
-5.32991e-09 -5.79784e-09 0
-1.61842e-08 -6.74204e-09 0
-2.85361e-08 -4.96058e-09 0
-3.68795e-08 -2.47712e-09 0
-4.10873e-08 -7.45155e-10 0
-4.30228e-08 4.79081e-12 0
-4.41269e-08 1.43364e-10 0
-4.50169e-08 5.07748e-11 0
-4.58352e-08 -6.62816e-11 0
-4.65664e-08 -1.38697e-10 0
-4.71801e-08 -1.63176e-10 0
-4.76677e-08 -1.56101e-10 0
-4.80391e-08 -1.33782e-10 0
-4.83137e-08 -1.0714e-10 0
-4.85123e-08 -8.20087e-11 0
-4.86538e-08 -6.08094e-11 0
-4.87534e-08 -4.40553e-11 0
-4.88229e-08 -3.1361e-11 0
-4.8871e-08 -2.20186e-11 0
-4.89041e-08 -1.52863e-11 0
-4.89267e-08 -1.05114e-11 0
-4.89421e-08 -7.16698e-12 0
-4.89525e-08 -4.84902e-12 0
-4.89594e-08 -3.25804e-12 0
-4.8964e-08 -2.17794e-12 0
-4.89671e-08 -1.45669e-12 0
-4.8969e-08 -9.91028e-13 0
-4.89703e-08 -7.16108e-13 0
-4.89712e-08 -5.98429e-13 0
-4.89719e-08 -6.3458e-13 0
-4.89726e-08 -8.59309e-13 0
-4.89737e-08 -1.31233e-12 0
-4.89754e-08 -2.04806e-12 0
-4.89789e-08 -3.36825e-12 0
0.00565997 2.73458e-08 0
0 0 0
3.26786e-12 0 0
1.56183e-10 0 0
-3.13764e-09 0 0
-9.77495e-09 0 0
-1.70716e-08 0 0
-2.04707e-08 0 0
-1.873e-08 0 0
-2.19073e-08 0 0
-2.16833e-08 0 0
-1.71142e-08 0 0
-1.12742e-08 0 0
-6.5218e-09 0 0
-3.01279e-09 0 0
7.03785e-11 0 0
7.58901e-10 0 0
-2.7537e-09 0 0
-8.80846e-09 0 0
-1.42243e-08 0 0
-1.74134e-08 0 0
-1.86989e-08 0 0
-1.90124e-08 0 0
-1.90292e-08 0 0
-1.90429e-08 0 0
-1.91203e-08 0 0
-1.9243e-08 0 0
-1.93791e-08 0 0
-1.95062e-08 0 0
-1.96134e-08 0 0
-1.96984e-08 0 0
-1.97628e-08 0 0
-1.98103e-08 0 0
-1.98445e-08 0 0
-1.98687e-08 0 0
-1.98856e-08 0 0
-1.98974e-08 0 0
-1.99054e-08 0 0
-1.99108e-08 0 0
-1.99145e-08 0 0
-1.99169e-08 0 0
-1.99185e-08 0 0
-1.99195e-08 0 0
-1.99202e-08 0 0
-1.99206e-08 0 0
-1.99209e-08 0 0
-1.99212e-08 0 0
-1.99215e-08 0 0
-1.9922e-08 0 0
-1.99229e-08 0 0
-1.99246e-08 0 0
0.0019749 0 0
0 0 5.36781e-07
-3.64601e-14 0 -1.80792e-10
3.95182e-09 0 2.12811e-09
1.19481e-08 0 1.31692e-08
-2.53648e-08 0 1.04621e-08
6.56819e-09 0 -2.16812e-10
1.23057e-08 0 -5.35961e-10
1.15671e-08 0 -2.15954e-09
1.35187e-08 0 -2.50838e-09
1.57038e-08 0 -1.52297e-09
1.88935e-08 0 -7.63238e-10
2.33192e-08 0 -7.23353e-10
2.49741e-08 0 -6.86464e-10
1.97352e-08 0 -2.21555e-10
8.72239e-09 0 1.51674e-10
-3.05189e-09 0 3.21193e-11
-1.21941e-08 0 -2.13178e-10
-1.88376e-08 0 -1.33874e-10
-2.45407e-08 0 2.55047e-10
-3.02101e-08 0 6.69693e-10
-3.57738e-08 0 9.00899e-10
-4.07632e-08 0 9.15051e-10
-4.48153e-08 0 7.83961e-10
-4.78301e-08 0 5.96739e-10
-4.9911e-08 0 4.15439e-10
-5.12536e-08 0 2.68924e-10
-5.20637e-08 0 1.63073e-10
-5.25157e-08 0 9.2483e-11
-5.27414e-08 0 4.83379e-11
-5.28324e-08 0 2.23041e-11
-5.28492e-08 0 7.88115e-12
-5.28291e-08 0 5.07903e-13
-5.27941e-08 0 -2.80415e-12
-5.27562e-08 0 -3.91255e-12
-5.27212e-08 0 -3.91872e-12
-5.26916e-08 0 -3.44461e-12
-5.26678e-08 0 -2.82118e-12
-5.26494e-08 0 -2.21024e-12
-5.26354e-08 0 -1.6798e-12
-5.2625e-08 0 -1.24876e-12
-5.26174e-08 0 -9.1243e-13
-5.26119e-08 0 -6.56385e-13
-5.2608e-08 0 -4.63875e-13
-5.26053e-08 0 -3.18362e-13
-5.26034e-08 0 -2.05655e-13
-5.26023e-08 0 -1.15977e-13
-5.26017e-08 0 -4.40574e-14
-5.26018e-08 0 -3.20191e-14
-5.26027e-08 0 1.83837e-14
-5.26053e-08 0 1.03789e-12
0.00560625 0 -5.42823e-09
0.0036 -3.10023e-07 -6.36884e-08
0.0035998 -0.00138233 -2.0946e-05
0.00671844 -0.00390532 0.000106474
0.0136042 -0.00592711 -0.0005603
0.0235478 -0.0144146 -0.00431835
0.046259 -0.0132546 -0.00487928
0.0497423 -0.00185755 -0.00164949
0.0494827 0.00269303 -0.000172549
0.0444902 0.00501824 0.000552023
0.0388682 0.00518324 0.000519994
0.0337312 0.00451762 0.000236323
0.0294063 0.00363199 -3.81771e-05
0.0259914 0.00273462 -0.000222782
0.0234247 0.00192526 -0.00030832
0.0215382 0.00127906 -0.000308469
0.0201497 0.000826272 -0.000248974
0.0191212 0.000540779 -0.000165224
0.0183615 0.000368326 -8.87705e-05
0.0178092 0.000259602 -3.54066e-05
0.017418 0.000184366 -5.73363e-06
0.0171499 0.00012862 6.97998e-06
0.0169728 8.68146e-05 1.01558e-05
0.0168604 5.62861e-05 9.10472e-06
0.016792 3.49058e-05 6.80017e-06
0.0167523 2.05885e-05 4.57668e-06
0.0167306 1.14159e-05 2.86523e-06
0.0167197 5.79628e-06 1.69144e-06
0.016715 2.51824e-06 9.44031e-07
0.0167136 7.18636e-07 4.94074e-07
0.0167139 -1.86624e-07 2.36224e-07
0.0167148 -5.76019e-07 9.58407e-08
0.016716 -6.85192e-07 2.41439e-08
0.0167171 -6.55004e-07 -9.09941e-09
0.016718 -5.65799e-07 -2.18529e-08
0.0167188 -4.6071e-07 -2.43864e-08
0.0167194 -3.60895e-07 -2.23374e-08
0.0167199 -2.75122e-07 -1.86497e-08
0.0167202 -2.05599e-07 -1.4756e-08
0.0167204 -1.51371e-07 -1.1273e-08
0.0167206 -1.10213e-07 -8.39986e-09
0.0167208 -7.96149e-08 -6.13764e-09
0.0167209 -5.72589e-08 -4.41159e-09
0.0167209 -4.1202e-08 -3.12969e-09
0.016721 -2.9921e-08 -2.20746e-09
0.016721 -2.23048e-08 -1.57984e-09
0.016721 -1.75617e-08 -1.09473e-09
0.0167211 -1.52903e-08 -4.26904e-10
0.0167211 -1.54576e-08 1.82919e-09
0.0167211 -2.25356e-08 5.88852e-09
0.0167212 -6.48766e-08 -6.28447e-09
0.0167213 -1.00849e-07 -2.06936e-08
0.01 -1.40239e-07 -1.45967e-06
0.0100007 -0.00299032 -0.000596707
0.0147928 -0.00993656 -0.000782693
0.0241549 -0.017705 -0.00127157
0.03846 -0.032403 -0.00337101
0.0590555 -0.0246696 -0.000815924
0.056316 -0.00266717 0.00315946
0.0557601 0.00515403 0.00336594
0.0499803 0.0101672 0.00295972
0.0444919 0.010353 0.00203053
0.0399769 0.00929872 0.00106213
0.036259 0.00786093 0.000317949
0.0332848 0.00631819 -0.000192055
0.031003 0.00487287 -0.000476908
0.0292558 0.0036525 -0.000547222
0.0279094 0.0026848 -0.00046329
0.0268843 0.00194018 -0.000314488
0.0261263 0.00137749 -0.000173374
0.0255855 0.000958913 -7.34391e-05
0.0252139 0.00065248 -1.66834e-05
0.0249688 0.000432316 8.83795e-06
0.0248144 0.000277838 1.64436e-05
0.0247222 0.000172506 1.57754e-05
0.0246708 0.000102952 1.23373e-05
0.0246447 5.85672e-05 8.6885e-06
0.0246335 3.12556e-05 5.73511e-06
0.0246304 1.51126e-05 3.61983e-06
0.0246314 6.01978e-06 2.20808e-06
0.024634 1.21797e-06 1.30874e-06
0.024637 -1.07446e-06 7.55067e-07
0.0246399 -1.96863e-06 4.23579e-07
0.0246423 -2.13324e-06 2.30076e-07
0.0246442 -1.95502e-06 1.19948e-07
0.0246457 -1.64694e-06 5.89904e-08
0.0246469 -1.31859e-06 2.63593e-08
0.0246477 -1.0205e-06 9.64754e-09
0.0246483 -7.71076e-07 1.63343e-09
0.0246487 -5.72461e-07 -1.79135e-09
0.0246491 -4.19485e-07 -2.90581e-09
0.0246493 -3.04455e-07 -2.93583e-09
0.0246494 -2.19543e-07 -2.51511e-09
0.0246496 -1.5785e-07 -1.96108e-09
0.0246496 -1.13758e-07 -1.42865e-09
0.0246497 -8.29327e-08 -9.74841e-10
0.0246497 -6.22783e-08 -6.21175e-10
0.0246498 -4.9814e-08 -1.18381e-10
0.0246498 -4.52028e-08 1.19845e-09
0.0246499 -5.38695e-08 4.3684e-09
0.0246499 -8.69475e-08 7.16062e-09
0.02465 -1.67111e-07 -1.91672e-08
0.0246501 -2.23119e-07 -4.60855e-08
0.0148 -9.63739e-07 -1.75021e-06
0.0148024 -0.00528953 -0.00112794
0.0203566 -0.0163843 -0.00243562
0.027458 -0.028701 -0.00394427
0.032065 -0.0459829 -0.00575664
0.0305578 -0.0283963 -0.00139643
0.0268098 -1.231e-05 0.00328897
0.0262574 0.00709727 0.00350398
0.0298149 0.0145308 0.00338882
0.0301842 0.0140253 0.00239552
0.029381 0.0122772 0.00140876
0.0285452 0.0104362 0.000560036
0.0278927 0.0085069 -4.32193e-05
0.0275547 0.00664165 -0.000381245
0.0274242 0.00501422 -0.000466747
0.0274075 0.00366864 -0.000387416
0.0274509 0.0026035 -0.000246801
0.0275204 0.00179823 -0.000116378
0.0275938 0.00121291 -2.62461e-05
0.0276607 0.000798755 2.20725e-05
0.0277188 0.000511294 3.98054e-05
0.0277692 0.000315767 4.00998e-05
0.0278129 0.000186285 3.29649e-05
0.0278501 0.000103433 2.42641e-05
0.0278808 5.25709e-05 1.66463e-05
0.0279055 2.28561e-05 1.08766e-05
0.0279246 6.55325e-06 6.85429e-06
0.0279389 -1.61947e-06 4.19711e-06
0.0279494 -5.10943e-06 2.50749e-06
0.027957 -6.06892e-06 1.4643e-06
0.0279623 -5.78172e-06 8.35904e-07
0.0279661 -4.97541e-06 4.65667e-07
0.0279687 -4.03651e-06 2.52161e-07
0.0279705 -3.15158e-06 1.31742e-07
0.0279717 -2.39578e-06 6.5478e-08
0.0279725 -1.78621e-06 3.00767e-08
0.0279731 -1.31258e-06 1.18811e-08
0.0279735 -9.54046e-07 3.04176e-09
0.0279738 -6.87791e-07 -8.61457e-10
0.027974 -4.92964e-07 -2.26094e-09
0.0279741 -3.52138e-07 -2.45878e-09
0.0279742 -2.51513e-07 -2.1347e-09
0.0279742 -1.80604e-07 -1.63642e-09
0.0279743 -1.31751e-07 -1.09135e-09
0.0279743 -9.97184e-08 -4.84027e-10
0.0279743 -8.20747e-08 4.4615e-10
0.0279744 -7.94693e-08 2.2664e-09
0.0279744 -9.62737e-08 4.04883e-09
0.0279744 -1.38335e-07 -1.72214e-09
0.0279745 -2.01988e-07 -4.08793e-08
0.0279745 -2.37684e-07 -7.37066e-08
0.018 -1.94408e-06 -1.70509e-06
0.018003 -0.00697126 -0.00188184
0.0207433 -0.0188945 -0.00491847
0.0206745 -0.0248184 -0.00632535
0.0160558 -0.0268715 -0.00760745
-1.60082e-06 -0.013986 -0.00431975
9.77222e-05 2.66226e-05 9.17887e-07
-3.3642e-05 3.50101e-05 0.000646246
0.00662184 0.00415532 0.00141099
0.0135991 0.00947298 0.00136553
0.0170416 0.0103673 0.000947591
0.0187842 0.00940848 0.000396017
0.0204526 0.00777877 -9.22843e-05
0.0221432 0.0059705 -0.000342022
0.0236869 0.00437466 -0.000378383
0.0250074 0.00306857 -0.000298718
0.0260928 0.00206047 -0.000182842
0.0269521 0.00133166 -7.65506e-05
0.0276042 0.000833292 -3.74843e-07
0.0280801 0.000503662 4.16984e-05
0.0284176 0.000289297 5.60489e-05
0.0286531 0.000152448 5.32326e-05
0.0288159 6.81225e-05 4.28427e-05
0.0289277 1.92055e-05 3.11325e-05
0.0290036 -6.58408e-06 2.10938e-05
0.0290547 -1.80753e-05 1.35804e-05
0.0290885 -2.1365e-05 8.40475e-06
0.0291107 -2.04138e-05 5.03506e-06
0.0291249 -1.76194e-05 2.93052e-06
0.0291341 -1.432e-05 1.6589e-06
0.0291398 -1.11869e-05 9.12051e-07
0.0291435 -8.50056e-06 4.84793e-07
0.0291458 -6.33048e-06 2.46736e-07
0.0291472 -4.64418e-06 1.17878e-07
0.0291481 -3.36861e-06 5.05193e-08
0.0291486 -2.42233e-06 1.69205e-08
0.029149 -1.73039e-06 1.32371e-09
0.0291492 -1.22997e-06 -5.01556e-09
0.0291493 -8.71168e-07 -6.82809e-09
0.0291494 -6.15747e-07 -6.59527e-09
0.0291495 -4.3512e-07 -5.56589e-09
0.0291495 -3.08349e-07 -4.33666e-09
0.0291495 -2.20379e-07 -3.16407e-09
0.0291496 -1.60752e-07 -2.10134e-09
0.0291496 -1.22735e-07 -1.12045e-09
0.0291496 -1.02508e-07 -2.58179e-10
0.0291496 -9.79953e-08 3.59694e-10
0.0291496 -1.06262e-07 -1.04822e-09
0.0291496 -1.24394e-07 -1.5662e-08
0.0291496 -1.40077e-07 -5.95071e-08
0.0291495 -1.44428e-07 -9.03835e-08
0.0196 -2.80773e-06 -2.57719e-06
0.019601 -0.00586562 -0.00274493
0.0190635 -0.0130861 -0.00646699
0.0159729 -0.0160759 -0.00667147
0.0109479 -0.01505 -0.00668221
0.00176291 -0.00619739 -0.005031
7.28501e-05 -6.69016e-05 -0.00129571
3.32596e-05 -3.32596e-05 -4.03553e-08
-3.30206e-05 3.42633e-05 0.00025019
0.00400105 0.00286683 0.000530399
0.0092049 0.00674098 0.000458261
0.0121282 0.0070753 0.000110407
0.0153753 0.00549909 -0.000264796
0.0185301 0.00386533 -0.00041163
0.0212298 0.00256258 -0.000394293
0.0234138 0.0015594 -0.00031012
0.0251351 0.000830726 -0.00020963
0.0264563 0.00035731 -0.000113641
0.0274322 8.84292e-05 -3.5536e-05
0.0281218 -4.52808e-05 1.55694e-05
0.0285905 -0.000102497 3.93395e-05
0.0288998 -0.000119833 4.31862e-05
0.0290995 -0.000116788 3.66423e-05
0.0292262 -0.000103713 2.69825e-05
0.0293051 -8.66245e-05 1.8101e-05
0.0293534 -6.91634e-05 1.1352e-05
0.0293824 -5.3358e-05 6.75438e-06
0.0293995 -4.00948e-05 3.8424e-06
0.0294092 -2.95292e-05 2.09463e-06
0.0294147 -2.14199e-05 1.09049e-06
0.0294177 -1.53619e-05 5.35883e-07
0.0294192 -1.09249e-05 2.41573e-07
0.02942 -7.72183e-06 9.24799e-08
0.0294203 -5.43372e-06 2.15458e-08
0.0294205 -3.81159e-06 -8.93199e-09
0.0294205 -2.66789e-06 -1.94624e-08
0.0294205 -1.86468e-06 -2.0828e-08
0.0294205 -1.30226e-06 -1.84768e-08
0.0294204 -9.09343e-07 -1.50194e-08
0.0294204 -6.35459e-07 -1.16049e-08
0.0294204 -4.45071e-07 -8.65822e-09
0.0294203 -3.13324e-07 -6.27726e-09
0.0294203 -2.23e-07 -4.43552e-09
0.0294203 -1.62281e-07 -3.0866e-09
0.0294203 -1.22975e-07 -2.3068e-09
0.0294203 -9.87331e-08 -2.29917e-09
0.0294203 -8.3943e-08 -3.38408e-09
0.0294202 -7.21945e-08 -6.8431e-09
0.0294202 -5.57045e-08 -2.44861e-08
0.0294201 -2.12441e-08 -6.59369e-08
0.02942 2.77754e-09 -9.2344e-08
0.0196 -1.34716e-06 -3.58302e-06
0.0195999 -0.00366505 -0.00312236
0.0187921 -0.00802338 -0.00650442
0.0175486 -0.00801238 -0.00604914
0.0132527 -0.00416922 -0.00555139
0.00915772 0.00267187 -0.0053119
0.00616852 0.00318838 -0.00307797
7.30078e-05 -6.07954e-05 -0.00065414
2.77748e-05 -2.77748e-05 -1.27347e-07
-3.24621e-05 3.35792e-05 8.8736e-05
0.00283143 0.00210518 0.00034949
0.0072343 0.00334999 0.000262055
0.0125551 0.00171225 -0.000138505
0.0172112 0.00052024 -0.000307031
0.0208066 -0.000137542 -0.000317166
0.0234593 -0.000541183 -0.000274437
0.0253864 -0.000776504 -0.000220478
0.0267608 -0.000847567 -0.000158672
0.027705 -0.000786054 -9.36436e-05
0.0283203 -0.000655494 -3.89577e-05
0.0286995 -0.000511861 -4.2154e-06
0.0289212 -0.000384553 1.13226e-05
0.0290445 -0.000282115 1.4429e-05
0.0291095 -0.00020345 1.19384e-05
0.0291415 -0.000144662 8.13304e-06
0.0291555 -0.000101632 4.88292e-06
0.0291604 -7.07068e-05 2.6449e-06
0.0291609 -4.8833e-05 1.28877e-06
0.0291596 -3.35598e-05 5.42678e-07
0.0291577 -2.29979e-05 1.67887e-07
0.0291559 -1.57415e-05 -6.71307e-10
0.0291544 -1.07752e-05 -6.35792e-08
0.0291531 -7.38217e-06 -7.70115e-08
0.0291522 -5.06452e-06 -7.01198e-08
0.0291514 -3.48011e-06 -5.69207e-08
0.0291509 -2.39544e-06 -4.35098e-08
0.0291505 -1.65167e-06 -3.2105e-08
0.0291503 -1.14084e-06 -2.31746e-08
0.0291501 -7.89539e-07 -1.64918e-08
0.0291499 -5.4778e-07 -1.16221e-08
0.0291498 -3.81461e-07 -8.1299e-09
0.0291497 -2.67263e-07 -5.67138e-09
0.0291497 -1.89115e-07 -4.03077e-09
0.0291497 -1.35663e-07 -3.10593e-09
0.0291496 -9.84589e-08 -2.96133e-09
0.0291496 -7.05946e-08 -3.64635e-09
0.0291496 -4.57621e-08 -5.253e-09
0.0291495 -1.67899e-08 -8.64044e-09
0.0291495 2.80869e-08 -2.35414e-08
0.0291494 1.02537e-07 -5.82312e-08
0.0291493 1.4866e-07 -8.03486e-08
0.018 -8.64293e-07 -3.56843e-06
0.0180009 -0.001992 -0.0030446
0.0183271 -0.00382016 -0.00614777
0.0184013 -0.0025688 -0.00528667
0.0174083 0.000743292 -0.00421669
0.0171481 0.00716255 -0.00396786
0.0178825 0.0126141 -0.00296391
0.010996 0.00693457 -0.00145732
7.45106e-05 -4.70803e-05 -0.000424284
-2.55123e-05 -5.47487e-05 5.55035e-07
7.86837e-06 -0.000621021 0.000743263
0.00841113 -0.0026763 0.00108861
0.0158437 -0.00428789 0.000482442
0.0208969 -0.00409761 0.000196433
0.0240721 -0.003372 8.10208e-05
0.0260084 -0.00271746 1.9536e-06
0.0271584 -0.00220768 -7.48283e-05
0.0278046 -0.00176416 -0.000123882
0.0281274 -0.00134955 -0.000127243
0.0282514 -0.000982237 -9.85535e-05
0.0282657 -0.000686849 -6.2593e-05
0.0282295 -0.000467872 -3.45328e-05
0.0281775 -0.000313851 -1.74255e-05
0.0281271 -0.000208698 -8.50173e-06
0.0280851 -0.000138098 -4.26426e-06
0.0280528 -9.11806e-05 -2.31499e-06
0.028029 -6.02067e-05 -1.38122e-06
0.0280122 -3.98351e-05 -8.8446e-07
0.0280004 -2.64503e-05 -5.86177e-07
0.0279922 -1.7643e-05 -3.91316e-07
0.0279866 -1.18278e-05 -2.59443e-07
0.0279828 -7.96954e-06 -1.69951e-07
0.0279802 -5.39562e-06 -1.09943e-07
0.0279784 -3.66881e-06 -7.03566e-08
0.0279771 -2.50407e-06 -4.46511e-08
0.0279763 -1.71467e-06 -2.81797e-08
0.0279757 -1.17742e-06 -1.77329e-08
0.0279753 -8.10562e-07 -1.11549e-08
0.027975 -5.59408e-07 -7.03263e-09
0.0279748 -3.87166e-07 -4.45904e-09
0.0279747 -2.68893e-07 -2.86728e-09
0.0279746 -1.87484e-07 -1.92879e-09
0.0279745 -1.30988e-07 -1.481e-09
0.0279745 -9.07544e-08 -1.44274e-09
0.0279744 -6.01343e-08 -1.8337e-09
0.0279744 -3.34368e-08 -2.60455e-09
0.0279744 -4.91885e-09 -3.72763e-09
0.0279743 3.23789e-08 -5.81095e-09
0.0279743 9.17537e-08 -1.43157e-08
0.0279743 1.83792e-07 -3.97918e-08
0.0279743 2.38297e-07 -5.81857e-08
0.0148 -4.8534e-07 -3.16117e-06
0.0148015 -0.00102216 -0.00282124
0.0162405 -0.0015993 -0.00541379
0.0178347 5.22493e-05 -0.00429829
0.0192089 0.00327355 -0.00310161
0.0209932 0.0074192 -0.00287683
0.0248144 0.0129794 -0.00240993
0.0281014 0.0195358 -0.00148902
0.0230892 0.011332 -0.000322737
0.0235277 1.44936e-10 0.000630289
0.0266746 -0.00667077 0.00155888
0.0302111 -0.0130425 0.00210989
0.0311797 -0.0110394 0.00165519
0.0306643 -0.00780976 0.00119076
0.029624 -0.00523224 0.00076373
0.0285356 -0.00350128 0.000388181
0.0275784 -0.00236882 8.88128e-05
0.026796 -0.00159522 -9.66194e-05
0.0261837 -0.00104904 -0.000162465
0.0257214 -0.000670635 -0.000148464
0.0253837 -0.000420991 -0.000105094
0.0251443 -0.000263382 -6.39284e-05
0.0249789 -0.000166054 -3.52802e-05
0.024867 -0.00010602 -1.82812e-05
0.0247926 -6.85838e-05 -9.09919e-06
0.0247437 -4.4893e-05 -4.41312e-06
0.0247116 -2.96869e-05 -2.10012e-06
0.0246907 -1.98041e-05 -9.79717e-07
0.0246771 -1.33105e-05 -4.42974e-07
0.0246681 -9.00236e-06 -1.88339e-07
0.0246621 -6.12011e-06 -6.94515e-08
0.0246582 -4.17793e-06 -1.57655e-08
0.0246555 -2.86142e-06 6.76251e-09
0.0246537 -1.96475e-06 1.46333e-08
0.0246525 -1.35173e-06 1.587e-08
0.0246517 -9.31429e-07 1.43582e-08
0.0246511 -6.42661e-07 1.19455e-08
0.0246507 -4.43966e-07 9.46977e-09
0.0246504 -3.07103e-07 7.271e-09
0.0246502 -2.1272e-07 5.44847e-09
0.0246501 -1.47454e-07 3.99054e-09
0.02465 -1.01954e-07 2.83491e-09
0.02465 -6.95226e-08 1.9021e-09
0.0246499 -4.51344e-08 1.13e-09
0.0246499 -2.46684e-08 4.41763e-10
0.0246499 -4.29906e-09 -1.3879e-10
0.0246498 2.02693e-08 -5.12581e-10
0.0246498 5.39557e-08 -1.0922e-09
0.0246499 1.05187e-07 -3.80746e-09
0.0246499 1.78256e-07 -2.16928e-08
0.02465 2.19862e-07 -3.7318e-08
0.01 -9.26052e-07 -2.86046e-06
0.0100008 -0.000627304 -0.00229793
0.0113373 -0.000688744 -0.00414028
0.0132436 0.000592315 -0.00293034
0.0157471 0.0025679 -0.00185645
0.0197188 0.00560666 -0.00186518
0.0256604 0.00836966 -0.00238619