# vtk DataFile Version 2.0
Tobias Weinzierl: CPU, Manycore and Cluster Computing
ASCII

DATASET STRUCTURED_POINTS
DIMENSIONS  51 11 6

ORIGIN 0 0 0 

SPACING 0.1 0.1 0.1 

POINT_DATA 3366

VECTORS velocity float
0 0 0
-1.32744e-13 0 0
-1.97706e-10 0 0
-2.51539e-10 0 0
-1.7766e-09 0 0
1.47969e-09 0 0
2.18221e-09 0 0
2.25113e-09 0 0
2.54138e-09 0 0
3.15069e-09 0 0
3.83673e-09 0 0
4.27333e-09 0 0
4.25642e-09 0 0
3.76243e-09 0 0
2.82226e-09 0 0
1.56977e-09 0 0
2.88755e-10 0 0
-7.45105e-10 0 0
-1.4671e-09 0 0
-2.01857e-09 0 0
-2.58307e-09 0 0
-3.25379e-09 0 0
-4.01213e-09 0 0
-4.77839e-09 0 0
-5.47056e-09 0 0
-6.03746e-09 0 0
-6.46411e-09 0 0
-6.7618e-09 0 0
-6.95481e-09 0 0
-7.07023e-09 0 0
-7.13226e-09 0 0
-7.15997e-09 0 0
-7.16721e-09 0 0
-7.16333e-09 0 0
-7.15434e-09 0 0
-7.14379e-09 0 0
-7.13361e-09 0 0
-7.12473e-09 0 0
-7.11743e-09 0 0
-7.11169e-09 0 0
-7.10733e-09 0 0
-7.10409e-09 0 0
-7.10175e-09 0 0
-7.10009e-09 0 0
-7.09895e-09 0 0
-7.09818e-09 0 0
-7.09771e-09 0 0
-7.09746e-09 0 0
-7.09741e-09 0 0
-7.09763e-09 0 0
0.00189897 0 0
0 3.86845e-07 0
-3.1574e-13 -5.97619e-11 0
-3.09101e-10 -5.34307e-10 0
1.39435e-10 -1.61001e-10 0
-7.96752e-10 -1.22066e-09 0
4.6968e-09 -1.22779e-09 0
5.47758e-09 9.86656e-10 0
5.39126e-09 7.11771e-10 0
6.7165e-09 -7.19239e-10 0
9.09038e-09 -2.07769e-09 0
1.14148e-08 -2.91818e-09 0
1.28479e-08 -3.03896e-09 0
1.2885e-08 -2.2649e-09 0
1.14794e-08 -7.19875e-10 0
9.04117e-09 9.3168e-10 0
6.21441e-09 1.92521e-09 0
3.56179e-09 2.02049e-09 0
1.32903e-09 1.55907e-09 0
-6.09719e-10 1.04631e-09 0
-2.55865e-09 7.69336e-10 0
-4.74144e-09 7.31444e-10 0
-7.17345e-09 7.96729e-10 0
-9.69201e-09 8.39112e-10 0
-1.20675e-08 8.03679e-10 0
-1.41095e-08 6.96836e-10 0
-1.57199e-08 5.52285e-10 0
-1.68928e-08 4.03857e-10 0
-1.76842e-08 2.73565e-10 0
-1.81772e-08 1.70795e-10 0
-1.84557e-08 9.61626e-11 0
-1.85914e-08 4.57506e-11 0
-1.86389e-08 1.41264e-11 0
-1.86364e-08 -3.98995e-12 0
-1.86092e-08 -1.30142e-11 0
-1.85727e-08 -1.63204e-11 0
-1.85355e-08 -1.63164e-11 0
-1.85021e-08 -1.46182e-11 0
-1.84741e-08 -1.22428e-11 0
-1.84517e-08 -9.78123e-12 0
-1.84345e-08 -7.53984e-12 0
-1.84216e-08 -5.6462e-12 0
-1.84121e-08 -4.12353e-12 0
-1.84053e-08 -2.9404e-12 0
-1.84005e-08 -2.04173e-12 0
-1.83972e-08 -1.36582e-12 0
-1.8395e-08 -8.53078e-13 0
-1.83936e-08 -4.44905e-13 0
-1.83929e-08 -6.99021e-14 0
-1.83928e-08 4.28331e-13 0
-1.83936e-08 1.42219e-12 0
0.00546878 -1.3508e-08 0
0 -1.90972e-08 0
7.75477e-14 -1.5453e-10 0
4.52651e-10 -1.65745e-09 0
2.54733e-09 -3.80056e-09 0
4.88298e-09 -6.70599e-09 0
8.65823e-09 -4.7837e-09 0
6.67315e-09 9.35891e-11 0
5.37776e-09 -3.69075e-10 0
6.66533e-09 -3.1084e-09 0
1.05284e-08 -5.74929e-09 0
1.43135e-08 -8.00854e-09 0
1.6252e-08 -9.53425e-09 0
1.59923e-08 -9.28077e-09 0
1.36835e-08 -6.76666e-09 0
1.03011e-08 -2.87993e-09 0
6.82167e-09 1.02493e-09 0
3.74661e-09 4.05107e-09 0
1.12976e-09 5.8827e-09 0
-1.20894e-09 6.6065e-09 0
-3.48445e-09 6.52516e-09 0
-5.83747e-09 5.97396e-09 0
-8.28666e-09 5.19436e-09 0
-1.07249e-08 4.32034e-09 0
-1.29727e-08 3.42983e-09 0
-1.48632e-08 2.58504e-09 0
-1.6306e-08 1.83887e-09 0
-1.73003e-08 1.22557e-09 0
-1.79106e-08 7.55489e-10 0
-1.82302e-08 4.18631e-10 0
-1.83524e-08 1.93002e-10 0
-1.83543e-08 5.27004e-11 0
-1.82923e-08 -2.66422e-11 0
-1.82039e-08 -6.52292e-11 0
-1.81113e-08 -7.84169e-11 0
-1.80264e-08 -7.70901e-11 0
-1.79544e-08 -6.84905e-11 0
-1.78962e-08 -5.7126e-11 0
-1.7851e-08 -4.55828e-11 0
-1.78169e-08 -3.51759e-11 0
-1.77916e-08 -2.64319e-11 0
-1.77733e-08 -1.94256e-11 0
-1.77603e-08 -1.39995e-11 0
-1.77511e-08 -9.8998e-12 0
-1.77447e-08 -6.85283e-12 0
-1.77404e-08 -4.60171e-12 0
-1.77376e-08 -2.9166e-12 0
-1.77359e-08 -1.57544e-12 0
-1.7735e-08 -2.93352e-13 0
-1.7735e-08 1.27717e-12 0
-1.77357e-08 3.49193e-12 0
0.00790019 -3.35247e-08 0
0 -6.39569e-07 0
6.86452e-13 -1.00761e-09 0
1.19192e-09 -3.76399e-09 0
4.00392e-09 -7.31141e-09 0
5.63128e-09 -9.92395e-09 0
5.44113e-09 -5.37057e-09 0
3.37646e-09 -3.34665e-12 0
2.23763e-09 -1.19286e-09 0
1.41894e-09 -4.31872e-09 0
3.22527e-09 -8.53164e-09 0
6.49348e-09 -1.30557e-08 0
8.23712e-09 -1.65079e-08 0
8.18345e-09 -1.6813e-08 0
6.05011e-09 -1.33431e-08 0
2.61063e-09 -7.23497e-09 0
-1.26374e-09 1.22394e-11 0
-4.87644e-09 6.67332e-09 0
-7.67156e-09 1.11805e-08 0
-9.3079e-09 1.28937e-08 0
-9.80088e-09 1.22959e-08 0
-9.51875e-09 1.04159e-08 0
-8.95565e-09 8.1548e-09 0
-8.46564e-09 6.01989e-09 0
-8.16135e-09 4.20452e-09 0
-7.98574e-09 2.74814e-09 0
-7.83634e-09 1.63544e-09 0
-7.6451e-09 8.31036e-10 0
-7.39591e-09 2.87723e-10 0
-7.1074e-09 -4.85184e-11 0
-6.8098e-09 -2.31828e-10 0
-6.52964e-09 -3.10427e-10 0
-6.28371e-09 -3.23203e-10 0
-6.0792e-09 -2.98949e-10 0
-5.91618e-09 -2.57357e-10 0
-5.79056e-09 -2.10832e-10 0
-5.69636e-09 -1.66443e-10 0
-5.6273e-09 -1.2764e-10 0
-5.57759e-09 -9.5602e-11 0
-5.54237e-09 -7.02109e-11 0
-5.51773e-09 -5.07028e-11 0
-5.5007e-09 -3.60741e-11 0
-5.48904e-09 -2.53114e-11 0
-5.48114e-09 -1.75053e-11 0
-5.47585e-09 -1.18917e-11 0
-5.47238e-09 -7.85012e-12 0
-5.47018e-09 -4.87083e-12 0
-5.46889e-09 -2.51598e-12 0
-5.46821e-09 -3.87249e-13 0
-5.46786e-09 1.81213e-12 0
-5.4679e-09 4.10808e-12 0
0.00898433 -3.74416e-08 0
0 -1.25586e-06 0
-1.19598e-13 -1.94792e-09 0
2.5476e-10 -5.50603e-09 0
1.25319e-09 -7.31927e-09 0
1.31259e-09 -5.92429e-09 0
-3.95462e-13 -2.16428e-09 0
-2.65909e-11 -2.56754e-11 0
2.4452e-11 -2.51479e-11 0
-1.07128e-09 -2.37295e-09 0
-4.21529e-09 -8.52365e-09 0
-5.63463e-09 -1.56423e-08 0
-4.67549e-09 -2.10111e-08 0
-4.71517e-09 -2.21076e-08 0
-6.40328e-09 -1.77367e-08 0
-9.13529e-09 -9.24087e-09 0
-1.21926e-08 1.05419e-09 0
-1.48804e-08 1.01179e-08 0
-1.64823e-08 1.54863e-08 0
-1.6396e-08 1.65243e-08 0
-1.44885e-08 1.43692e-08 0
-1.12623e-08 1.07999e-08 0
-7.57187e-09 7.19566e-09 0
-4.15957e-09 4.21933e-09 0
-1.39732e-09 2.01721e-09 0
6.79381e-10 5.07758e-10 0
2.20289e-09 -4.46656e-10 0
3.33115e-09 -9.79582e-10 0
4.18429e-09 -1.20897e-09 0
4.83826e-09 -1.23548e-09 0
5.33933e-09 -1.14052e-09 0
5.71865e-09 -9.85073e-10 0
6.0005e-09 -8.10759e-10 0
6.20556e-09 -6.43002e-10 0
6.35168e-09 -4.95081e-10 0
6.4538e-09 -3.72058e-10 0
6.52392e-09 -2.74012e-10 0
6.57134e-09 -1.98389e-10 0
6.60298e-09 -1.41556e-10 0
6.62385e-09 -9.97358e-11 0
6.63746e-09 -6.94893e-11 0
6.64627e-09 -4.79204e-11 0
6.65191e-09 -3.27107e-11 0
6.6555e-09 -2.20702e-11 0
6.65774e-09 -1.46481e-11 0
6.65911e-09 -9.4365e-12 0
6.65994e-09 -5.68634e-12 0
6.66047e-09 -2.85619e-12 0
6.66099e-09 -5.96752e-13 0
6.66175e-09 1.27137e-12 0
6.66246e-09 2.77506e-12 0
0.00942143 -2.03998e-08 0
0 -1.13845e-06 0
-1.17857e-12 -1.88228e-09 0
-1.02615e-09 -4.3621e-09 0
-1.26148e-09 -5.60274e-09 0
-1.92295e-09 -5.81714e-09 0
-1.362e-09 -2.6946e-09 0
-2.55182e-11 2.49974e-11 0
-5.45263e-13 5.45263e-13 0
2.47681e-11 -2.4136e-11 0
-2.85185e-09 -4.03525e-09 0
-9.88243e-09 -1.40183e-08 0
-1.29434e-08 -2.24459e-08 0
-1.51342e-08 -2.37072e-08 0
-1.72031e-08 -1.8399e-08 0
-1.87404e-08 -8.59288e-09 0
-1.95336e-08 2.66052e-09 0
-1.95393e-08 1.1834e-08 0
-1.86349e-08 1.64484e-08 0
-1.64784e-08 1.62082e-08 0
-1.28747e-08 1.27027e-08 0
-8.18487e-09 8.0654e-09 0
-3.2205e-09 3.83585e-09 0
1.22164e-09 6.68839e-10 0
4.70496e-09 -1.38493e-09 0
7.17999e-09 -2.52436e-09 0
8.82229e-09 -2.99403e-09 0
9.86577e-09 -3.01274e-09 0
1.05117e-08 -2.75861e-09 0
1.09043e-08 -2.36781e-09 0
1.11383e-08 -1.93624e-09 0
1.12736e-08 -1.52414e-09 0
1.13483e-08 -1.16342e-09 0
1.13864e-08 -8.6596e-10 0
1.14032e-08 -6.31244e-10 0
1.14081e-08 -4.52209e-10 0
1.1407e-08 -3.19259e-10 0
1.14033e-08 -2.22635e-10 0
1.13988e-08 -1.53629e-10 0
1.13944e-08 -1.05048e-10 0
1.13906e-08 -7.12422e-11 0
1.13875e-08 -4.79373e-11 0
1.13851e-08 -3.19855e-11 0
1.13833e-08 -2.11142e-11 0
1.13819e-08 -1.37072e-11 0
1.13809e-08 -8.6325e-12 0
1.13804e-08 -5.12103e-12 0
1.13802e-08 -2.68186e-12 0
1.13805e-08 -1.02899e-12 0
1.13813e-08 -4.61108e-14 0
1.13822e-08 3.75078e-13 0
0.00953495 8.12476e-09 0
0 -7.8408e-07 0
-7.22397e-13 -1.09386e-09 0
-1.00011e-09 -2.82131e-09 0
-1.02358e-09 -3.71451e-09 0
-2.3446e-09 -4.07408e-09 0
-3.10277e-09 -3.35239e-09 0
-1.40374e-09 -1.26524e-09 0
-2.49796e-11 2.50152e-11 0
-2.46991e-13 2.46991e-13 0
2.59775e-11 -2.35589e-11 0
-4.4898e-09 -7.56803e-09 0
-1.26486e-08 -1.88489e-08 0
-1.87889e-08 -2.12792e-08 0
-2.23749e-08 -1.56584e-08 0
-2.35743e-08 -5.81979e-09 0
-2.24641e-08 4.41447e-09 0
-1.95981e-08 1.17591e-08 0
-1.57991e-08 1.44679e-08 0
-1.1551e-08 1.28183e-08 0
-7.00376e-09 8.59957e-09 0
-2.39754e-09 3.86415e-09 0
1.79242e-09 -4.2562e-11 0
5.09454e-09 -2.65425e-09 0
7.29738e-09 -4.05901e-09 0
8.48715e-09 -4.54847e-09 0
8.92188e-09 -4.42837e-09 0
8.88801e-09 -3.95464e-09 0
8.61694e-09 -3.32074e-09 0
8.2625e-09 -2.65966e-09 0
7.91169e-09 -2.05147e-09 0
7.60525e-09 -1.53494e-09 0
7.35623e-09 -1.12039e-09 0
7.16323e-09 -8.01492e-10 0
7.01852e-09 -5.64014e-10 0
6.91262e-09 -3.91602e-10 0
6.83653e-09 -2.68903e-10 0
6.78263e-09 -1.82953e-10 0
6.74485e-09 -1.23499e-10 0
6.71861e-09 -8.27845e-11 0
6.70051e-09 -5.51254e-11 0
6.68809e-09 -3.64537e-11 0
6.67963e-09 -2.39079e-11 0
6.67391e-09 -1.55042e-11 0
6.67009e-09 -9.88765e-12 0
6.66763e-09 -6.15191e-12 0
6.66615e-09 -3.70827e-12 0
6.66544e-09 -2.1939e-12 0
6.66538e-09 -1.41389e-12 0
6.66587e-09 -1.36472e-12 0
6.6664e-09 -2.01365e-12 0
0.00942142 3.38697e-08 0
0 -5.49136e-07 0
2.7042e-14 -6.10073e-10 0
-3.77913e-10 -1.71983e-09 0
-4.41356e-10 -2.74438e-09 0
-1.45899e-09 -3.07706e-09 0
-3.45505e-09 -2.05781e-09 0
-4.02889e-09 -4.86468e-10 0
-2.54889e-09 1.28905e-10 0
-2.60871e-11 2.39434e-11 0
2.60997e-11 2.20314e-11 0
2.10633e-12 -4.25535e-09 0
-7.05338e-09 -1.2448e-08 0
-1.67887e-08 -1.49643e-08 0
-2.42374e-08 -9.12904e-09 0
-2.69999e-08 -2.31475e-10 0
-2.45423e-08 7.13327e-09 0
-1.85329e-08 1.07486e-08 0
-1.16083e-08 1.03703e-08 0
-5.6992e-09 7.15366e-09 0
-1.4517e-09 2.92883e-09 0
1.26815e-09 -7.54034e-10 0
2.74712e-09 -3.17802e-09 0
3.20661e-09 -4.35195e-09 0
2.85648e-09 -4.612e-09 0
1.9498e-09 -4.32024e-09 0
7.56266e-10 -3.75108e-09 0
-4.94587e-10 -3.08546e-09 0
-1.64794e-09 -2.43351e-09 0
-2.62496e-09 -1.85516e-09 0
-3.40421e-09 -1.37544e-09 0
-3.99882e-09 -9.96877e-10 0
-4.43776e-09 -7.09309e-10 0
-4.7538e-09 -4.97225e-10 0
-4.97711e-09 -3.44359e-10 0
-5.13266e-09 -2.36124e-10 0
-5.23986e-09 -1.60549e-10 0
-5.31314e-09 -1.08355e-10 0
-5.36292e-09 -7.26269e-11 0
-5.39657e-09 -4.8348e-11 0
-5.41922e-09 -3.19517e-11 0
-5.4344e-09 -2.09394e-11 0
-5.44452e-09 -1.35822e-11 0
-5.45122e-09 -8.69877e-12 0
-5.4556e-09 -5.49277e-12 0
-5.45839e-09 -3.43759e-12 0
-5.4601e-09 -2.19727e-12 0
-5.46105e-09 -1.57937e-12 0
-5.46145e-09 -1.52027e-12 0
-5.4615e-09 -2.12491e-12 0
-5.46168e-09 -3.4411e-12 0
0.00898433 4.40583e-08 0
0 -4.65287e-07 0
8.49252e-14 -3.10573e-10 0
9.75725e-11 -9.42257e-10 0
-1.24087e-10 -1.57155e-09 0
-1.6248e-09 -1.83901e-09 0
-4.34159e-09 -6.86154e-10 0
-6.08183e-09 1.15657e-09 0
-6.01301e-09 -3.09349e-10 0
-4.00859e-09 -1.25299e-09 0
-3.09593e-09 -7.12439e-15 0
-1.74989e-09 -3.63643e-09 0
-6.64419e-09 -8.02202e-09 0
-1.74079e-08 -6.82087e-09 0
-2.6533e-08 -1.62716e-09 0
-2.85237e-08 4.10468e-09 0
-2.30526e-08 7.38563e-09 0
-1.39673e-08 7.37316e-09 0
-5.86041e-09 4.82628e-09 0
-1.25467e-09 1.28746e-09 0
-1.55255e-10 -1.71168e-09 0
-1.29203e-09 -3.37311e-09 0
-3.39958e-09 -3.76691e-09 0
-5.72312e-09 -3.40471e-09 0
-7.94085e-09 -2.77538e-09 0
-9.94148e-09 -2.15616e-09 0
-1.16832e-08 -1.64365e-09 0
-1.31476e-08 -1.24409e-09 0
-1.43348e-08 -9.36719e-10 0
-1.52642e-08 -7.00133e-10 0
-1.59694e-08 -5.18242e-10 0
-1.64905e-08 -3.79337e-10 0
-1.68674e-08 -2.74424e-10 0
-1.71354e-08 -1.96216e-10 0
-1.73234e-08 -1.38702e-10 0
-1.74538e-08 -9.69648e-11 0
-1.75435e-08 -6.70567e-11 0
-1.76048e-08 -4.58791e-11 0
-1.76464e-08 -3.10515e-11 0
-1.76745e-08 -2.07803e-11 0
-1.76934e-08 -1.37389e-11 0
-1.7706e-08 -8.96215e-12 0
-1.77143e-08 -5.76015e-12 0
-1.77198e-08 -3.648e-12 0
-1.77234e-08 -2.29203e-12 0
-1.77257e-08 -1.47162e-12 0
-1.77272e-08 -1.05423e-12 0
-1.77281e-08 -9.80181e-13 0
-1.77288e-08 -1.25326e-12 0
-1.77294e-08 -1.9459e-12 0
-1.77305e-08 -3.09424e-12 0
0.00790021 3.34846e-08 0
0 -4.79361e-07 0
3.29041e-13 -2.40777e-11 0
3.21717e-10 -1.29271e-10 0
-3.85804e-11 -2.76312e-10 0
-1.89014e-09 -3.4005e-10 0
-5.12487e-09 -2.4607e-10 0
-7.45072e-09 6.00314e-10 0
-7.45577e-09 4.98301e-10 0
-8.69778e-09 -5.26573e-10 0
-8.08269e-09 -1.01944e-09 0
-6.71191e-09 -1.58109e-09 0
-9.63589e-09 -8.55718e-10 0
-1.47907e-08 1.02036e-09 0
-1.85487e-08 2.4673e-09 0
-1.75184e-08 3.03121e-09 0
-1.1974e-08 2.57554e-09 0
-5.28892e-09 1.30027e-09 0
-9.10445e-10 -2.14166e-10 0
-1.29009e-10 -1.33116e-09 0
-2.10472e-09 -1.75241e-09 0
-5.23993e-09 -1.59961e-09 0
-8.31978e-09 -1.18857e-09 0
-1.08208e-08 -7.80377e-10 0
-1.26964e-08 -4.89007e-10 0
-1.40829e-08 -3.17852e-10 0
-1.51266e-08 -2.27445e-10 0
-1.59298e-08 -1.78862e-10 0
-1.65539e-08 -1.47747e-10 0
-1.70372e-08 -1.22785e-10 0
-1.74067e-08 -1.00267e-10 0
-1.76847e-08 -7.97515e-11 0
-1.78903e-08 -6.16971e-11 0
-1.804e-08 -4.64893e-11 0
-1.81473e-08 -3.41949e-11 0
-1.82233e-08 -2.46047e-11 0
-1.82765e-08 -1.7349e-11 0
-1.83134e-08 -1.20016e-11 0
-1.83386e-08 -8.14973e-12 0
-1.83558e-08 -5.43121e-12 0
-1.83673e-08 -3.54871e-12 0
-1.8375e-08 -2.26958e-12 0
-1.83801e-08 -1.41895e-12 0
-1.83834e-08 -8.70193e-13 0
-1.83856e-08 -5.35705e-13 0
-1.8387e-08 -3.59783e-13 0
-1.83879e-08 -3.12388e-13 0
-1.83886e-08 -3.8161e-13 0
-1.83893e-08 -5.59276e-13 0
-1.83901e-08 -8.22118e-13 0
-1.83915e-08 -1.2104e-12 0
0.00546882 1.15464e-08 0
0 0 0
3.60493e-13 0 0
1.93303e-10 0 0
6.24235e-13 0 0
-8.87134e-10 0 0
-2.49715e-09 0 0
-3.99429e-09 0 0
-3.99167e-09 0 0
-4.69026e-09 0 0
-4.98664e-09 0 0
-4.95991e-09 0 0
-5.10472e-09 0 0
-4.98194e-09 0 0
-4.5944e-09 0 0
-3.49703e-09 0 0
-1.78154e-09 0 0
-2.65199e-10 0 0
2.60862e-10 0 0
-3.46582e-10 0 0
-1.64008e-09 0 0
-3.04439e-09 0 0
-4.20278e-09 0 0
-5.02506e-09 0 0
-5.57201e-09 0 0
-5.93958e-09 0 0
-6.20236e-09 0 0
-6.40364e-09 0 0
-6.56436e-09 0 0
-6.69391e-09 0 0
-6.79717e-09 0 0
-6.8778e-09 0 0
-6.93933e-09 0 0
-6.98527e-09 0 0
-7.01887e-09 0 0
-7.04301e-09 0 0
-7.06007e-09 0 0
-7.07196e-09 0 0
-7.08014e-09 0 0
-7.08569e-09 0 0
-7.08941e-09 0 0
-7.09187e-09 0 0
-7.09349e-09 0 0
-7.09453e-09 0 0
-7.0952e-09 0 0
-7.09564e-09 0 0
-7.09595e-09 0 0
-7.09622e-09 0 0
-7.0965e-09 0 0
-7.09689e-09 0 0
-7.0975e-09 0 0
0.00189899 0 0
0 0 5.36617e-07
-2.18745e-13 0 2.5741e-10
-7.16687e-10 0 7.85656e-10
-5.61125e-10 0 1.73984e-09
-6.11025e-09 0 -5.10628e-10
2.46748e-09 0 -2.73108e-09
5.01421e-09 0 -1.75815e-09
5.85154e-09 0 -1.071e-09
6.67694e-09 0 -1.80385e-10
7.72984e-09 0 7.82284e-10
9.13131e-09 0 1.79549e-09
1.1222e-08 0 2.61921e-09
1.37651e-08 0 2.77575e-09
1.58209e-08 0 2.15397e-09
1.62137e-08 0 1.26092e-09
1.44419e-08 0 6.08245e-10
1.10302e-08 0 2.94334e-10
7.00698e-09 0 1.96732e-10
3.11456e-09 0 2.27109e-10
-4.68217e-10 0 3.46582e-10
-3.86504e-09 0 5.03722e-10
-7.16651e-09 0 6.32285e-10
-1.03067e-08 0 6.85441e-10
-1.31262e-08 0 6.54701e-10
-1.54811e-08 0 5.62191e-10
-1.73078e-08 0 4.41229e-10
-1.86276e-08 0 3.20445e-10
-1.95175e-08 0 2.17091e-10
-2.00759e-08 0 1.37598e-10
-2.03979e-08 0 8.12543e-11
-2.05621e-08 0 4.39595e-11
-2.06282e-08 0 2.07861e-11
-2.06376e-08 0 7.31786e-12
-2.06179e-08 0 1.20559e-13
-2.05858e-08 0 -3.25292e-12
-2.05512e-08 0 -4.43751e-12
-2.05191e-08 0 -4.46738e-12
-2.04917e-08 0 -3.96267e-12
-2.04695e-08 0 -3.27345e-12
-2.04523e-08 0 -2.58196e-12
-2.04393e-08 0 -1.9713e-12
-2.04297e-08 0 -1.46918e-12
-2.04227e-08 0 -1.07467e-12
-2.04178e-08 0 -7.74433e-13
-2.04144e-08 0 -5.51377e-13
-2.04121e-08 0 -3.90488e-13
-2.04107e-08 0 -2.8343e-13
-2.04099e-08 0 -2.40188e-13
-2.04098e-08 0 -2.60829e-13
-2.04104e-08 0 -1.13096e-13
0.00539785 0 -6.95367e-10
0.0036 -3.06862e-07 -6.21388e-08
0.0035998 -0.00138961 -2.1602e-05
0.00669966 -0.00393788 0.000113977
0.0136117 -0.00587728 -0.000491091
0.0235029 -0.0144907 -0.00426626
0.0464056 -0.0134633 -0.00488937
0.0499444 -0.00194952 -0.00164694
0.0496881 0.00262289 -0.00016429
0.0447105 0.00494549 0.000572804
0.0391152 0.00510676 0.000569306
0.0340264 0.00443305 0.000312651
0.0297601 0.00354626 4.77264e-05
0.0263796 0.00267891 -0.000144511
0.0238091 0.00193132 -0.000247613
0.0218917 0.00134657 -0.000272728
0.0204564 0.000924248 -0.000243076
0.0193645 0.000636792 -0.00018458
0.0185218 0.000448111 -0.000119554
0.0178697 0.000324595 -6.32806e-05
0.0173705 0.00024046 -2.29011e-05
0.0169965 0.000179138 1.20561e-06
0.0167243 0.000131755 1.25062e-05
0.0165326 9.43055e-05 1.55325e-05
0.0164027 6.50712e-05 1.41947e-05
0.0163183 4.30073e-05 1.11762e-05
0.0162662 2.70599e-05 7.99338e-06
0.0162358 1.60555e-05 5.32073e-06
0.0162195 8.81445e-06 3.3352e-06
0.0162119 4.28231e-06 1.97585e-06
0.0162092 1.60293e-06 1.10119e-06
0.0162093 1.31474e-07 5.6739e-07
0.0162106 -5.89658e-07 2.57878e-07
0.0162123 -8.69358e-07 8.85587e-08
0.0162141 -9.06991e-07 2.93446e-09
0.0162156 -8.25498e-07 -3.5031e-08
0.0162169 -6.96839e-07 -4.73551e-08
0.016218 -5.60358e-07 -4.69498e-08
0.0162188 -4.35423e-07 -4.10555e-08
0.0162193 -3.29773e-07 -3.35071e-08
0.0162198 -2.44819e-07 -2.61712e-08
0.0162201 -1.78868e-07 -1.98241e-08
0.0162203 -1.28987e-07 -1.46731e-08
0.0162205 -9.20239e-08 -1.06596e-08
0.0162206 -6.50947e-08 -7.62129e-09
0.0162207 -4.57877e-08 -5.37067e-09
0.0162208 -3.21881e-08 -3.69724e-09
0.0162208 -2.28435e-08 -2.30392e-09
0.0162208 -1.67788e-08 -3.96868e-10
0.0162209 -1.46057e-08 2.7793e-09
0.0162209 -2.75034e-08 7.20592e-10
0.0162209 -4.02742e-08 -3.27908e-09
0.01 -1.36706e-07 -1.45827e-06
0.0100007 -0.00298439 -0.000598313
0.0147868 -0.00996963 -0.000793437
0.0241953 -0.017768 -0.00122877
0.0386363 -0.032653 -0.0033339
0.059358 -0.0249693 -0.00081194
0.0565779 -0.00277711 0.00319116
0.0560122 0.00505504 0.00339056
0.0502402 0.0100148 0.00300537
0.0447911 0.0101419 0.00213056
0.0403154 0.00903569 0.00120981
0.0366327 0.00759905 0.000483304
0.033686 0.00613478 -2.87897e-05
0.0314232 0.00481534 -0.000336678
0.0296903 0.00372278 -0.000461235
0.0283368 0.0028564 -0.000450557
0.0272606 0.00217636 -0.000362809
0.0264048 0.00164142 -0.000249037
0.0257376 0.00122073 -0.000144209
0.0252343 0.000892395 -6.53557e-05
0.0248692 0.000639498 -1.53409e-05
0.0246153 0.000447781 1.09216e-05
0.0244465 0.000305095 2.10508e-05
0.0243403 0.000201244 2.19812e-05
0.0242779 0.00012769 1.87099e-05
0.0242448 7.72451e-05 1.42463e-05
0.0242303 4.38988e-05 1.00854e-05
0.0242266 2.27563e-05 6.77471e-06
0.0242287 9.99005e-06 4.36975e-06
0.0242334 2.74223e-06 2.72476e-06
0.0242388 -1.02442e-06 1.64751e-06
0.024244 -2.69962e-06 9.65768e-07
0.0242485 -3.192e-06 5.46925e-07
0.0242521 -3.07046e-06 2.96791e-07
0.024255 -2.67446e-06 1.51821e-07
0.0242571 -2.19492e-06 7.06805e-08
0.0242588 -1.73053e-06 2.72477e-08
0.02426 -1.32534e-06 5.43496e-09
0.0242608 -9.92927e-07 -4.41936e-09
0.0242614 -7.31194e-07 -7.9636e-09
0.0242619 -5.31109e-07 -8.3976e-09
0.0242622 -3.81533e-07 -7.46303e-09
0.0242624 -2.71681e-07 -6.06829e-09
0.0242625 -1.92208e-07 -4.65733e-09
0.0242626 -1.35537e-07 -3.41575e-09
0.0242627 -9.58524e-08 -2.32086e-09
0.0242628 -6.89904e-08 -1.03169e-09
0.0242628 -5.41431e-08 1.15397e-09
0.0242628 -5.39328e-08 4.2569e-09
0.0242629 -7.88403e-08 -2.81058e-09
0.0242629 -9.97633e-08 -1.1557e-08
0.0148 -9.60335e-07 -1.75245e-06
0.0148024 -0.00530074 -0.00112443
0.0204089 -0.0164613 -0.00244963
0.0276206 -0.0289363 -0.00394355
0.032299 -0.0463783 -0.00577981
0.030748 -0.0286224 -0.00142315
0.0269339 -1.23934e-05 0.00331031
0.0263695 0.00704564 0.00352636
0.0298526 0.0143487 0.0034363
0.0302025 0.0137202 0.00248224
0.0294222 0.0118979 0.00153919
0.0286094 0.0100295 0.000720231
0.0280034 0.00816283 0.000125942
0.0277038 0.00646174 -0.000234551
0.0275831 0.00505694 -0.00038209
0.0275351 0.0039255 -0.000381332
0.0275131 0.00300497 -0.000301921
0.0275073 0.00225141 -0.000197729
0.0275196 0.00164286 -0.00010216
0.0275501 0.0011655 -3.05941e-05
0.0275949 0.000803413 1.41877e-05
0.0276481 0.000537102 3.63388e-05
0.0277043 0.000346438 4.26082e-05
0.0277594 0.000213498 3.96203e-05
0.0278105 0.000123578 3.25115e-05
0.0278557 6.50038e-05 2.4571e-05
0.0278942 2.86371e-05 1.74989e-05
0.0279257 7.44666e-06 1.191e-05
0.0279507 -3.81606e-06 7.81719e-06
0.0279699 -8.91443e-06 4.97571e-06
0.0279843 -1.04249e-05 3.08057e-06
0.0279948 -1.00258e-05 1.85681e-06
0.0280025 -8.75221e-06 1.08838e-06
0.0280078 -7.20253e-06 6.18293e-07
0.0280116 -5.69373e-06 3.38131e-07
0.0280142 -4.37112e-06 1.75778e-07
0.028016 -3.28183e-06 8.46777e-08
0.0280173 -2.42138e-06 3.5567e-08
0.0280181 -1.76182e-06 1.05048e-08
0.0280187 -1.26757e-06 -1.23539e-09
0.028019 -9.0368e-07 -5.89802e-09
0.0280193 -6.39535e-07 -7.00717e-09
0.0280195 -4.50053e-07 -6.49131e-09
0.0280196 -3.15586e-07 -5.36224e-09
0.0280197 -2.21264e-07 -4.07404e-09
0.0280197 -1.56506e-07 -2.74487e-09
0.0280198 -1.14414e-07 -1.03077e-09
0.0280198 -9.22404e-08 1.0131e-09
0.0280198 -9.08397e-08 6.3755e-10
0.0280199 -1.05916e-07 -1.24115e-08
0.0280199 -1.16272e-07 -2.40823e-08
0.018 -1.93706e-06 -1.69759e-06
0.018003 -0.00701924 -0.00187331
0.0208002 -0.0190719 -0.0049271
0.0207662 -0.0251161 -0.00635189
0.016116 -0.027129 -0.00764031
-1.6113e-06 -0.0140753 -0.00434321
9.72274e-05 2.60235e-05 9.30328e-07
-3.31014e-05 3.44466e-05 0.000655772
0.00655187 0.00403853 0.0014475
0.0133495 0.00912556 0.00142312
0.0167368 0.00985633 0.00102104
0.0185288 0.00884249 0.000494652
0.0202439 0.00730597 1.64539e-05
0.0219454 0.00575556 -0.000256068
0.0234642 0.00448229 -0.000338215
0.0247367 0.00345266 -0.000305872
0.0257753 0.00259562 -0.000224634
0.026618 0.00187922 -0.000135651
0.0273008 0.00129919 -5.94813e-05
0.0278497 0.000853554 -3.61683e-06
0.0282845 0.000529699 3.13522e-05
0.0286224 0.000305723 4.82908e-05
0.0288804 0.000157434 5.18015e-05
0.0290742 6.36079e-05 4.69687e-05
0.0292179 7.70397e-06 3.82533e-05
0.0293228 -2.25585e-05 2.88211e-05
0.0293984 -3.61621e-05 2.04466e-05
0.029452 -3.95791e-05 1.38187e-05
0.0294893 -3.73256e-05 8.96612e-06
0.0295148 -3.23924e-05 5.61115e-06
0.0295321 -2.66238e-05 3.39387e-06
0.0295435 -2.10508e-05 1.9829e-06
0.0295509 -1.61674e-05 1.11505e-06
0.0295558 -1.21402e-05 5.98517e-07
0.0295588 -8.95503e-06 3.0147e-07
0.0295608 -6.51168e-06 1.37188e-07
0.029562 -4.68045e-06 5.06718e-08
0.0295628 -3.33263e-06 8.15864e-09
0.0295632 -2.35475e-06 -1.04377e-08
0.0295635 -1.6534e-06 -1.66922e-08
0.0295637 -1.1551e-06 -1.70426e-08
0.0295638 -8.03831e-07 -1.49143e-08
0.0295639 -5.57909e-07 -1.20316e-08
0.029564 -3.86959e-07 -9.19599e-09
0.029564 -2.69308e-07 -6.66177e-09
0.029564 -1.89986e-07 -4.50608e-09
0.029564 -1.3906e-07 -2.59632e-09
0.029564 -1.09067e-07 -1.37428e-09
0.029564 -9.53818e-08 -6.29933e-09
0.029564 -8.31568e-08 -2.18812e-08
0.029564 -7.39715e-08 -3.22605e-08
0.0196 -2.81874e-06 -2.5597e-06
0.019601 -0.00593569 -0.00274374
0.019052 -0.013249 -0.00648773
0.0159239 -0.0163032 -0.00670072
0.0108498 -0.0152936 -0.00669702
0.00169939 -0.00630649 -0.0050485
7.23394e-05 -6.64125e-05 -0.00130576
3.33111e-05 -3.33111e-05 -4.23671e-08
-3.24967e-05 3.37061e-05 0.000264818
0.00385975 0.00268455 0.000568165
0.00879297 0.00623254 0.000502117
0.0116858 0.00643666 0.000153716
0.0149257 0.00500149 -0.000230981
0.018072 0.00367588 -0.000403232
0.0207656 0.00272787 -0.000405777
0.0229456 0.00200838 -0.000327357
0.0246751 0.00140808 -0.000228711
0.0260383 0.000899334 -0.000139833
0.0271049 0.000493454 -7.01021e-05
0.0279265 0.000200084 -1.96647e-05
0.0285449 1.10461e-05 1.34998e-05
0.0289977 -9.56131e-05 3.16969e-05
0.0293206 -0.00014511 3.79478e-05
0.0295451 -0.000158712 3.60717e-05
0.0296978 -0.000151677 2.99211e-05
0.0297994 -0.000134103 2.25236e-05
0.0298655 -0.000112409 1.57192e-05
0.0299076 -9.05075e-05 1.03025e-05
0.0299337 -7.05836e-05 6.38721e-06
0.0299495 -5.36385e-05 3.75419e-06
0.0299586 -3.9908e-05 2.08472e-06
0.0299638 -2.91834e-05 1.08026e-06
0.0299665 -2.10424e-05 5.06335e-07
0.0299679 -1.50003e-05 1.9669e-07
0.0299685 -1.05951e-05 4.14782e-08
0.0299687 -7.4286e-06 -2.79485e-08
0.0299687 -5.17783e-06 -5.24636e-08
0.0299686 -3.59213e-06 -5.52843e-08
0.0299685 -2.48284e-06 -4.89413e-08
0.0299684 -1.71114e-06 -3.97861e-08
0.0299683 -1.17674e-06 -3.07548e-08
0.0299682 -8.08071e-07 -2.29877e-08
0.0299682 -5.54668e-07 -1.67514e-08
0.0299681 -3.8125e-07 -1.19536e-08
0.0299681 -2.63372e-07 -8.36589e-09
0.0299681 -1.83934e-07 -5.86137e-09
0.029968 -1.30658e-07 -4.44931e-09
0.029968 -9.29391e-08 -4.19563e-09
0.029968 -6.19548e-08 -1.13323e-08
0.0299679 -2.14615e-08 -2.49006e-08
0.0299679 4.38017e-09 -3.15146e-08
0.0196 -1.3594e-06 -3.57736e-06
0.0195999 -0.00370312 -0.00312853
0.0187497 -0.00814046 -0.00652928
0.0174926 -0.00819071 -0.00605908
0.0131513 -0.00437171 -0.00554531
0.00904981 0.00250985 -0.00534049
0.00613451 0.00312955 -0.00313043
7.25193e-05 -6.03056e-05 -0.000680666
2.78089e-05 -2.78089e-05 -1.27342e-07
-3.19588e-05 3.30347e-05 9.78565e-05
0.00263621 0.00182482 0.000371877
0.00684979 0.00277797 0.000273547
0.0120685 0.00125277 -0.000166703
0.0166756 0.000358841 -0.000373152
0.0202641 3.99896e-05 -0.00038789
0.02295 -0.000100593 -0.000314778
0.0249468 -0.000235428 -0.000223922
0.0264283 -0.000378331 -0.000146811
0.0275135 -0.000490547 -8.94286e-05
0.0282866 -0.000543511 -4.81703e-05
0.0288154 -0.000536215 -1.9296e-05
0.0291594 -0.000486142 -8.54974e-07
0.0293709 -0.000414663 8.74989e-06
0.0294928 -0.000338299 1.17769e-05
0.0295574 -0.00026684 1.0862e-05
0.0295875 -0.000204864 8.27542e-06
0.0295982 -0.000153759 5.49453e-06
0.0295988 -0.000113183 3.22323e-06
0.0295949 -8.19425e-05 1.64142e-06
0.0295894 -5.85017e-05 6.66591e-07
0.0295839 -4.12893e-05 1.32554e-07
0.0295791 -2.8874e-05 -1.19788e-07
0.0295752 -2.0047e-05 -2.10542e-07
0.0295721 -1.38421e-05 -2.18725e-07
0.0295699 -9.51857e-06 -1.91157e-07
0.0295682 -6.52572e-06 -1.52948e-07
0.029567 -4.46407e-06 -1.16021e-07
0.0295661 -3.04889e-06 -8.49886e-08
0.0295655 -2.07995e-06 -6.07926e-08
0.029565 -1.41779e-06 -4.27739e-08
0.0295647 -9.65958e-07 -2.97487e-08
0.0295645 -6.58057e-07 -2.05094e-08
0.0295644 -4.48529e-07 -1.4042e-08
0.0295643 -3.06079e-07 -9.59835e-09
0.0295642 -2.09013e-07 -6.67231e-09
0.0295641 -1.41798e-07 -4.97152e-09
0.0295641 -9.27736e-08 -4.44375e-09
0.029564 -5.18545e-08 -4.67974e-09
0.029564 -8.86453e-09 -1.06257e-08
0.029564 4.78855e-08 -1.9484e-08
0.0295639 8.13397e-08 -2.25954e-08
0.018 -8.63883e-07 -3.57262e-06
0.0180009 -0.00201863 -0.00305181
0.0183107 -0.0039101 -0.00616796
0.0183584 -0.0027268 -0.00529118
0.0173323 0.000558037 -0.00419021
0.0170445 0.00701834 -0.00396577
0.0177766 0.0125512 -0.00301931
0.0109115 0.00692532 -0.00151462
7.39808e-05 -4.66305e-05 -0.000442075
-2.50093e-05 -5.43527e-05 5.57173e-07
7.91416e-06 -0.000765 0.00075594
0.00819699 -0.00301416 0.0010991
0.0154102 -0.00458138 0.000449076
0.0203167 -0.00415583 0.000110289
0.0234486 -0.00317208 -2.60554e-05
0.0254504 -0.00234669 -7.0567e-05
0.0267478 -0.00180808 -8.06796e-05
0.0275808 -0.00146948 -8.04746e-05
0.0280872 -0.00122443 -7.57381e-05
0.0283589 -0.00101084 -6.62244e-05
0.0284685 -0.000810865 -5.27357e-05
0.0284761 -0.000629198 -3.81444e-05
0.0284284 -0.000474065 -2.53973e-05
0.0283583 -0.000348986 -1.59617e-05
0.0282856 -0.000252411 -9.78713e-06
0.0282206 -0.000180076 -6.05863e-06
0.0281673 -0.000127057 -3.8797e-06
0.0281258 -8.88348e-05 -2.58442e-06
0.0280948 -6.16504e-05 -1.77142e-06
0.0280722 -4.25348e-05 -1.22827e-06
0.0280561 -2.92178e-05 -8.49239e-07
0.0280448 -2.00079e-05 -5.80296e-07
0.028037 -1.36727e-05 -3.90228e-07
0.0280316 -9.33104e-06 -2.57946e-07
0.0280279 -6.36265e-06 -1.67695e-07
0.0280253 -4.33606e-06 -1.07377e-07
0.0280236 -2.95357e-06 -6.78399e-08
0.0280224 -2.01094e-06 -4.23746e-08
0.0280216 -1.36846e-06 -2.62198e-08
0.028021 -9.30755e-07 -1.61019e-08
0.0280207 -6.32721e-07 -9.8307e-09
0.0280204 -4.29881e-07 -5.97563e-09
0.0280202 -2.91738e-07 -3.64131e-09
0.0280201 -1.97174e-07 -2.29739e-09
0.02802 -1.3129e-07 -1.63885e-09
0.0280199 -8.31807e-08 -1.47261e-09
0.0280199 -4.43434e-08 -1.73176e-09
0.0280199 -7.49916e-09 -1.95158e-09
0.0280198 3.59645e-08 -4.64086e-09
0.0280198 9.04054e-08 -8.93383e-09
0.0280198 1.2018e-07 -1.05191e-08
0.0148 -4.84005e-07 -3.16506e-06
0.0148015 -0.00104261 -0.0028328
0.0162278 -0.00166852 -0.00543283
0.0177814 -7.14875e-05 -0.00429314
0.0190848 0.00312124 -0.00305923
0.0208012 0.00731246 -0.00283404
0.0246083 0.0129712 -0.0024097
0.0279003 0.0194993 -0.00152762
0.0229505 0.0112742 -0.000355154
0.0234108 3.84164e-11 0.00061977
0.0265624 -0.00674125 0.00156202
0.0299305 -0.0131712 0.00212168
0.0306528 -0.0110831 0.0016456
0.0300001 -0.0077052 0.00113171
0.0289923 -0.00501853 0.000665713
0.0280562 -0.0032712 0.000312537
0.0272884 -0.00220994 8.75486e-05
0.0266683 -0.00155279 -3.37837e-05
0.0261582 -0.00111261 -8.50596e-05
0.0257332 -0.000793734 -9.40953e-05
0.0253813 -0.000556014 -8.13693e-05
0.0250961 -0.000382032 -6.10083e-05
0.0248714 -0.000259329 -4.13395e-05
0.0246994 -0.000175577 -2.59369e-05
0.0245713 -0.000119422 -1.53251e-05
0.024478 -8.1863e-05 -8.6298e-06
0.0244115 -5.65418e-05 -4.66317e-06
0.0243648 -3.9269e-05 -2.41892e-06
0.0243325 -2.73584e-05 -1.19358e-06
0.0243102 -1.90818e-05 -5.45292e-07
0.024295 -1.33046e-05 -2.14017e-07
0.0242847 -9.2643e-06 -5.27527e-08
0.0242777 -6.4385e-06 1.95203e-08
0.0242729 -4.46423e-06 4.6666e-08
0.0242697 -3.08744e-06 5.20434e-08
0.0242675 -2.12955e-06 4.78358e-08
0.024266 -1.46485e-06 4.01993e-08
0.024265 -1.0049e-06 3.20822e-08
0.0242643 -6.87551e-07 2.47602e-08
0.0242639 -4.69205e-07 1.86648e-08
0.0242635 -3.19337e-07 1.38252e-08
0.0242633 -2.1656e-07 1.01006e-08
0.0242632 -1.45834e-07 7.28879e-09
0.0242631 -9.64732e-08 5.18821e-09
0.024263 -6.07162e-08 3.63692e-09
0.024263 -3.27013e-08 2.53374e-09
0.0242629 -7.65958e-09 1.86584e-09
0.0242629 1.81558e-08 1.81321e-09
0.0242629 4.86168e-08 1.66269e-09
0.0242629 8.28955e-08 -7.88411e-10
0.024263 1.00205e-07 -2.92234e-09
0.01 -9.26851e-07 -2.86839e-06
0.0100008 -0.000638641 -0.00230707
0.0113171 -0.000724637 -0.00414725
0.0131666 0.000532837 -0.00290552
0.0155764 0.00249702 -0.00179691
0.0194459 0.00554345 -0.00180182
0.0253482 0.00835874 -0.00235748
0.0344687 0.0101197 -0.00209428