# vtk DataFile Version 2.0
Tobias Weinzierl: CPU, Manycore and Cluster Computing
ASCII

DATASET STRUCTURED_POINTS
DIMENSIONS  51 11 6

ORIGIN 0 0 0 

SPACING 0.1 0.1 0.1 

POINT_DATA 3366

VECTORS velocity float
0 0 0
9.42339e-12 0 0
1.00009e-08 0 0
-2.2475e-09 0 0
-5.60475e-08 0 0
-1.89936e-08 0 0
-1.27141e-08 0 0
-1.34353e-08 0 0
-1.07597e-08 0 0
-4.7879e-09 0 0
-1.85191e-09 0 0
-7.91138e-09 0 0
-2.05792e-08 0 0
-3.22431e-08 0 0
-3.7922e-08 0 0
-3.8453e-08 0 0
-3.72708e-08 0 0
-3.67277e-08 0 0
-3.73348e-08 0 0
-3.86518e-08 0 0
-4.01236e-08 0 0
-4.14069e-08 0 0
-4.23769e-08 0 0
-4.30405e-08 0 0
-4.34583e-08 0 0
-4.37003e-08 0 0
-4.38265e-08 0 0
-4.38817e-08 0 0
-4.38965e-08 0 0
-4.38904e-08 0 0
-4.38751e-08 0 0
-4.3857e-08 0 0
-4.38397e-08 0 0
-4.38244e-08 0 0
-4.38117e-08 0 0
-4.38014e-08 0 0
-4.37932e-08 0 0
-4.37867e-08 0 0
-4.37817e-08 0 0
-4.37778e-08 0 0
-4.37747e-08 0 0
-4.37722e-08 0 0
-4.37703e-08 0 0
-4.37687e-08 0 0
-4.37676e-08 0 0
-4.37667e-08 0 0
-4.37663e-08 0 0
-4.37662e-08 0 0
-4.37668e-08 0 0
-4.37694e-08 0 0
0.00209437 0 0
0 3.92081e-07 0
1.40492e-11 -1.01162e-08 0
1.80894e-08 -1.54163e-08 0
3.37355e-09 3.00043e-09 0
-7.24166e-08 -1.84314e-08 0
-1.17173e-08 -1.94695e-08 0
-1.19279e-08 3.01063e-08 0
-2.4288e-08 4.19383e-08 0
-2.64597e-08 3.06042e-08 0
-2.01064e-08 1.81477e-08 0
-1.45918e-08 1.47844e-08 0
-2.14589e-08 1.92057e-08 0
-4.03418e-08 2.10343e-08 0
-5.89224e-08 1.53887e-08 0
-6.80557e-08 6.76525e-09 0
-6.97772e-08 1.07966e-09 0
-7.05313e-08 -3.91415e-10 0
-7.37416e-08 3.70101e-10 0
-7.91726e-08 1.38858e-09 0
-8.52561e-08 1.86644e-09 0
-9.07136e-08 1.8121e-09 0
-9.49682e-08 1.47574e-09 0
-9.79709e-08 1.06915e-09 0
-9.99294e-08 7.06454e-10 0
-1.01119e-07 4.27809e-10 0
-1.01787e-07 2.33769e-10 0
-1.02126e-07 1.08969e-10 0
-1.02269e-07 3.47484e-11 0
-1.02305e-07 -5.38978e-12 0
-1.02286e-07 -2.41134e-11 0
-1.02245e-07 -3.03219e-11 0
-1.02198e-07 -2.98505e-11 0
-1.02153e-07 -2.62883e-11 0
-1.02115e-07 -2.1695e-11 0
-1.02083e-07 -1.71522e-11 0
-1.02057e-07 -1.31523e-11 0
-1.02037e-07 -9.85606e-12 0
-1.02022e-07 -7.25342e-12 0
-1.0201e-07 -5.25794e-12 0
-1.02001e-07 -3.75889e-12 0
-1.01994e-07 -2.64728e-12 0
-1.01988e-07 -1.82698e-12 0
-1.01984e-07 -1.21693e-12 0
-1.0198e-07 -7.48891e-13 0
-1.01978e-07 -3.62555e-13 0
-1.01976e-07 9.77312e-15 0
-1.01975e-07 4.52804e-13 0
-1.01976e-07 1.12768e-12 0
-1.01978e-07 2.97477e-12 0
-1.01985e-07 8.25909e-12 0
0.00594543 -6.66786e-08 0
0 -2.27298e-08 0
1.06465e-11 -8.63809e-09 0
2.36295e-08 -2.71743e-08 0
3.57461e-08 -4.89113e-08 0
7.75047e-09 -1.04192e-07 0
6.17918e-08 -8.14006e-08 0
3.02723e-08 5.94884e-09 0
-1.08138e-08 2.27458e-08 0
-4.21917e-08 1.67233e-08 0
-4.48563e-08 1.53203e-08 0
-3.51575e-08 1.43608e-08 0
-3.31267e-08 1.13182e-08 0
-4.58244e-08 9.71364e-09 0
-6.11948e-08 1.21496e-08 0
-6.75546e-08 1.68833e-08 0
-6.66169e-08 2.04993e-08 0
-6.53319e-08 2.12639e-08 0
-6.74302e-08 1.94968e-08 0
-7.25763e-08 1.6269e-08 0
-7.88361e-08 1.25727e-08 0
-8.45727e-08 9.0951e-09 0
-8.90122e-08 6.20097e-09 0
-9.20605e-08 3.99681e-09 0
-9.3958e-08 2.43059e-09 0
-9.50307e-08 1.38091e-09 0
-9.55683e-08 7.14515e-10 0
-9.57865e-08 3.14573e-10 0
-9.58301e-08 8.99746e-11 0
-9.57885e-08 -2.50476e-11 0
-9.57134e-08 -7.52413e-11 0
-9.56319e-08 -8.95256e-11 0
-9.5557e-08 -8.56786e-11 0
-9.54936e-08 -7.40525e-11 0
-9.54423e-08 -6.02893e-11 0
-9.54021e-08 -4.71866e-11 0
-9.53711e-08 -3.59146e-11 0
-9.53475e-08 -2.67722e-11 0
-9.53296e-08 -1.96356e-11 0
-9.5316e-08 -1.42092e-11 0
-9.53056e-08 -1.01568e-11 0
-9.52977e-08 -7.16341e-12 0
-9.52916e-08 -4.95792e-12 0
-9.5287e-08 -3.31434e-12 0
-9.52834e-08 -2.03964e-12 0
-9.52808e-08 -9.54008e-13 0
-9.52792e-08 1.5239e-13 0
-9.52786e-08 1.66597e-12 0
-9.52793e-08 4.27146e-12 0
-9.5281e-08 8.68131e-12 0
-9.5286e-08 1.54595e-11 0
0.00835192 -1.33781e-07 0
0 -6.42405e-07 0
1.52984e-11 -1.36096e-08 0
2.9001e-08 -4.63645e-08 0
4.94355e-08 -8.77208e-08 0
1.2728e-08 -1.17418e-07 0
5.45151e-08 -6.24922e-08 0
2.95088e-08 -4.62304e-11 0
3.92785e-11 -6.48106e-09 0
-5.11979e-08 -2.53553e-08 0
-6.18146e-08 -4.36633e-08 0
-5.34526e-08 -5.02033e-08 0
-5.75201e-08 -4.10533e-08 0
-7.49081e-08 -1.4855e-08 0
-9.13923e-08 1.44164e-08 0
-9.45251e-08 3.25884e-08 0
-8.58782e-08 3.75313e-08 0
-7.33061e-08 3.43968e-08 0
-6.32543e-08 2.83451e-08 0
-5.78917e-08 2.19237e-08 0
-5.62293e-08 1.60357e-08 0
-5.64073e-08 1.10519e-08 0
-5.7059e-08 7.13888e-09 0
-5.75538e-08 4.28608e-09 0
-5.77462e-08 2.34779e-09 0
-5.76971e-08 1.11811e-09 0
-5.75123e-08 3.92735e-10 0
-5.72777e-08 1.48056e-12 0
-5.7046e-08 -1.82675e-10 0
-5.68431e-08 -2.47192e-10 0
-5.66773e-08 -2.48407e-10 0
-5.65477e-08 -2.20395e-10 0
-5.64493e-08 -1.824e-10 0
-5.63759e-08 -1.44381e-10 0
-5.63219e-08 -1.10819e-10 0
-5.62823e-08 -8.31717e-11 0
-5.62532e-08 -6.13745e-11 0
-5.62319e-08 -4.46963e-11 0
-5.62161e-08 -3.22042e-11 0
-5.62043e-08 -2.299e-11 0
-5.61954e-08 -1.62647e-11 0
-5.61886e-08 -1.13826e-11 0
-5.61833e-08 -7.83095e-12 0
-5.61792e-08 -5.20444e-12 0
-5.6176e-08 -3.17106e-12 0
-5.61736e-08 -1.41802e-12 0
-5.61718e-08 3.9985e-13 0
-5.61705e-08 2.60067e-12 0
-5.61696e-08 5.35876e-12 0
-5.61683e-08 8.82292e-12 0
-5.61688e-08 1.33537e-11 0
0.00920027 -1.30589e-07 0
0 -1.24089e-06 0
3.74858e-12 -2.37032e-08 0
1.2623e-08 -6.33573e-08 0
1.22343e-08 -8.03481e-08 0
-2.57292e-08 -6.23813e-08 0
-1.92139e-11 -2.17173e-08 0
-1.18016e-11 -1.05641e-10 0
7.14972e-11 -9.20053e-11 0
-2.47058e-08 -2.63137e-08 0
-7.00317e-08 -6.87017e-08 0
-8.31437e-08 -8.06838e-08 0
-9.14136e-08 -5.84658e-08 0
-1.07207e-07 -1.66974e-08 0
-1.18979e-07 2.16126e-08 0
-1.19848e-07 3.92921e-08 0
-1.08732e-07 3.86888e-08 0
-8.96953e-08 3.01924e-08 0
-7.01339e-08 2.14342e-08 0
-5.52624e-08 1.46409e-08 0
-4.59552e-08 9.53792e-09 0
-4.06603e-08 5.67495e-09 0
-3.76133e-08 2.86898e-09 0
-3.56885e-08 9.99114e-10 0
-3.43429e-08 -1.1039e-10 0
-3.33499e-08 -6.7005e-10 0
-3.26109e-08 -8.752e-10 0
-3.20691e-08 -8.77544e-10 0
-3.16804e-08 -7.80588e-10 0
-3.14072e-08 -6.47695e-10 0
-3.12184e-08 -5.13552e-10 0
-3.10892e-08 -3.94482e-10 0
-3.10014e-08 -2.96117e-10 0
-3.09417e-08 -2.18491e-10 0
-3.09009e-08 -1.59118e-10 0
-3.08728e-08 -1.14711e-10 0
-3.0853e-08 -8.2039e-11 0
-3.08388e-08 -5.82933e-11 0
-3.08285e-08 -4.11923e-11 0
-3.08207e-08 -2.89577e-11 0
-3.08147e-08 -2.02405e-11 0
-3.081e-08 -1.40344e-11 0
-3.08062e-08 -9.59422e-12 0
-3.08031e-08 -6.36295e-12 0
-3.08005e-08 -3.91483e-12 0
-3.07982e-08 -1.93574e-12 0
-3.07961e-08 -2.31767e-13 0
-3.07939e-08 1.29002e-12 0
-3.07917e-08 2.72315e-12 0
-3.07888e-08 4.3652e-12 0
-3.07874e-08 6.87145e-12 0
0.00944721 -7.40093e-08 0
0 -1.11458e-06 0
-1.16509e-11 -2.50747e-08 0
-2.73462e-09 -5.23271e-08 0
-1.10771e-08 -6.32976e-08 0
-4.43303e-08 -7.19701e-08 0
-3.37141e-08 -3.5932e-08 0
-3.89752e-11 3.07474e-11 0
4.07795e-11 -4.07795e-11 0
5.64626e-11 -8.65978e-11 0
-3.77544e-08 -3.6916e-08 0
-9.45131e-08 -8.36295e-08 0
-9.73382e-08 -6.9805e-08 0
-1.01439e-07 -1.76022e-08 0
-1.07477e-07 2.76718e-08 0
-1.15194e-07 4.55288e-08 0
-1.15285e-07 3.90569e-08 0
-1.0137e-07 2.35373e-08 0
-7.94343e-08 1.06116e-08 0
-5.90505e-08 2.97269e-09 0
-4.46889e-08 -9.85774e-10 0
-3.5963e-08 -2.94408e-09 0
-3.09418e-08 -3.75934e-09 0
-2.80233e-08 -3.85368e-09 0
-2.62642e-08 -3.51635e-09 0
-2.51719e-08 -2.97352e-09 0
-2.44863e-08 -2.38345e-09 0
-2.40581e-08 -1.83796e-09 0
-2.37945e-08 -1.3778e-09 0
-2.3635e-08 -1.01167e-09 0
-2.35403e-08 -7.31658e-10 0
-2.34848e-08 -5.23332e-10 0
-2.34525e-08 -3.7133e-10 0
-2.34338e-08 -2.61945e-10 0
-2.34226e-08 -1.83999e-10 0
-2.34157e-08 -1.2884e-10 0
-2.34109e-08 -8.99984e-11 0
-2.34074e-08 -6.27398e-11 0
-2.34045e-08 -4.36542e-11 0
-2.3402e-08 -3.03087e-11 0
-2.33997e-08 -2.09793e-11 0
-2.33975e-08 -1.44481e-11 0
-2.33954e-08 -9.85694e-12 0
-2.33934e-08 -6.60803e-12 0
-2.33914e-08 -4.30006e-12 0
-2.33895e-08 -2.67319e-12 0
-2.33875e-08 -1.55072e-12 0
-2.33854e-08 -8.20801e-13 0
-2.33833e-08 -4.44522e-13 0
-2.33808e-08 -2.93538e-13 0
-2.33796e-08 1.76558e-13 0
0.00949559 3.81577e-09 0
0 -7.75292e-07 0
-5.18522e-12 -1.77036e-08 0
-3.517e-09 -4.4146e-08 0
-1.14666e-08 -5.43762e-08 0
-6.01009e-08 -4.95892e-08 0
-8.05125e-08 -2.61566e-08 0
-2.89815e-08 -4.49714e-09 0
-3.25519e-11 2.89655e-11 0
2.75051e-11 -2.75051e-11 0
3.2233e-11 -8.07554e-11 0
-4.24039e-08 -4.67184e-08 0
-6.22787e-08 -6.92907e-08 0
-6.49891e-08 -1.27558e-08 0
-6.50674e-08 3.89011e-08 0
-7.75458e-08 5.74744e-08 0
-9.37748e-08 4.43923e-08 0
-9.53002e-08 1.98145e-08 0
-8.06727e-08 7.89983e-10 0
-6.1525e-08 -8.6917e-09 0
-4.6618e-08 -1.16555e-08 0
-3.77217e-08 -1.1428e-08 0
-3.32254e-08 -9.89875e-09 0
-3.12172e-08 -7.98237e-09 0
-3.04357e-08 -6.1257e-09 0
-3.02089e-08 -4.5332e-09 0
-3.02134e-08 -3.26711e-09 0
-3.0301e-08 -2.311e-09 0
-3.04068e-08 -1.61413e-09 0
-3.05046e-08 -1.11831e-09 0
-3.05856e-08 -7.71129e-10 0
-3.06488e-08 -5.30449e-10 0
-3.06963e-08 -3.64573e-10 0
-3.07308e-08 -2.50587e-10 0
-3.07553e-08 -1.7234e-10 0
-3.07722e-08 -1.18617e-10 0
-3.07835e-08 -8.17001e-11 0
-3.07908e-08 -5.63028e-11 0
-3.07953e-08 -3.88074e-11 0
-3.07977e-08 -2.67396e-11 0
-3.07987e-08 -1.84053e-11 0
-3.07988e-08 -1.26459e-11 0
-3.07983e-08 -8.67234e-12 0
-3.07974e-08 -5.95077e-12 0
-3.07962e-08 -4.12329e-12 0
-3.07948e-08 -2.95962e-12 0
-3.07934e-08 -2.33125e-12 0
-3.07919e-08 -2.21121e-12 0
-3.07906e-08 -2.73921e-12 0
-3.07889e-08 -4.1675e-12 0
-3.07883e-08 -6.3043e-12 0
0.00944718 7.9603e-08 0
0 -5.44326e-07 0
3.26644e-12 -1.37744e-08 0
-3.10818e-09 -3.36302e-08 0
-1.82716e-08 -4.07829e-08 0
-6.25373e-08 -3.15853e-08 0
-9.45331e-08 -1.04032e-08 0
-7.39238e-08 -2.94579e-09 0
-3.56859e-08 -3.20276e-09 0
-4.58368e-11 1.21295e-11 0
3.03809e-11 -9.81417e-12 0
1.28162e-11 -2.36425e-08 0
-4.60261e-08 -3.16936e-08 0
-6.46987e-08 8.28703e-09 0
-4.70221e-08 4.7386e-08 0
-3.21872e-08 5.94481e-08 0
-4.35712e-08 4.32246e-08 0
-6.18277e-08 1.63195e-08 0
-6.70896e-08 -4.38754e-09 0
-6.1642e-08 -1.41217e-08 0
-5.48299e-08 -1.60556e-08 0
-5.10261e-08 -1.42934e-08 0
-5.01176e-08 -1.13662e-08 0
-5.07547e-08 -8.46545e-09 0
-5.18936e-08 -6.04596e-09 0
-5.30114e-08 -4.20249e-09 0
-5.39242e-08 -2.87311e-09 0
-5.46087e-08 -1.94675e-09 0
-5.50996e-08 -1.31423e-09 0
-5.54429e-08 -8.87013e-10 0
-5.56798e-08 -5.99725e-10 0
-5.5842e-08 -4.066e-10 0
-5.59525e-08 -2.76506e-10 0
-5.60274e-08 -1.88588e-10 0
-5.6078e-08 -1.28957e-10 0
-5.61119e-08 -8.83682e-11 0
-5.61343e-08 -6.06522e-11 0
-5.6149e-08 -4.16749e-11 0
-5.61583e-08 -2.86527e-11 0
-5.6164e-08 -1.97038e-11 0
-5.61673e-08 -1.35519e-11 0
-5.61689e-08 -9.33021e-12 0
-5.61694e-08 -6.45034e-12 0
-5.61693e-08 -4.51762e-12 0
-5.61687e-08 -3.27811e-12 0
-5.61679e-08 -2.5912e-12 0
-5.6167e-08 -2.42182e-12 0
-5.61661e-08 -2.83713e-12 0
-5.61656e-08 -4.11348e-12 0
-5.6165e-08 -7.02793e-12 0
-5.61657e-08 -1.21807e-11 0
0.00920022 1.29447e-07 0
0 -4.66638e-07 0
7.75573e-12 -7.9657e-09 0
-4.08939e-09 -2.15567e-08 0
-2.85475e-08 -2.88335e-08 0
-7.51502e-08 -2.28712e-08 0
-1.07781e-07 -8.23505e-10 0
-9.64733e-08 7.87529e-09 0
-7.78507e-08 -2.25531e-08 0
-4.7904e-08 -2.36226e-08 0
-4.13745e-08 9.45305e-13 0
-4.59767e-08 6.03212e-09 0
-9.21344e-08 2.19512e-08 0
-1.1514e-07 3.34289e-08 0
-7.47867e-08 3.19069e-08 0
-2.30093e-08 2.36478e-08 0
-1.84383e-08 1.29377e-08 0
-4.73819e-08 2.8281e-09 0
-7.1749e-08 -4.25226e-09 0
-8.09911e-08 -7.47642e-09 0
-8.28398e-08 -7.83735e-09 0
-8.37948e-08 -6.81429e-09 0
-8.55318e-08 -5.39354e-09 0
-8.76827e-08 -4.0381e-09 0
-8.9705e-08 -2.91735e-09 0
-9.13424e-08 -2.06046e-09 0
-9.25617e-08 -1.43596e-09 0
-9.34277e-08 -9.93789e-10 0
-9.40269e-08 -6.85728e-10 0
-9.44358e-08 -4.7279e-10 0
-9.47131e-08 -3.2605e-10 0
-9.49006e-08 -2.24982e-10 0
-9.50273e-08 -1.55327e-10 0
-9.51127e-08 -1.07277e-10 0
-9.51702e-08 -7.41022e-11 0
-9.52087e-08 -5.11809e-11 0
-9.52342e-08 -3.53372e-11 0
-9.52509e-08 -2.43841e-11 0
-9.52616e-08 -1.68138e-11 0
-9.52682e-08 -1.15859e-11 0
-9.52721e-08 -7.98304e-12 0
-9.52742e-08 -5.51221e-12 0
-9.5275e-08 -3.838e-12 0
-9.52751e-08 -2.73971e-12 0
-9.52748e-08 -2.08477e-12 0
-9.52743e-08 -1.81639e-12 0
-9.52738e-08 -1.96586e-12 0
-9.52736e-08 -2.66663e-12 0
-9.52739e-08 -4.22767e-12 0
-9.5275e-08 -7.66689e-12 0
-9.52791e-08 -1.43409e-11 0
0.00835188 1.23094e-07 0
0 -4.8472e-07 0
1.56092e-11 -2.50946e-09 0
-5.86187e-09 -8.52081e-09 0
-3.55118e-08 -1.28137e-08 0
-7.97505e-08 -1.07379e-08 0
-1.10879e-07 -5.28234e-09 0
-1.0355e-07 -1.80421e-09 0
-8.82946e-08 -1.21359e-08 0
-1.02383e-07 -1.38119e-08 0
-9.42986e-08 6.07927e-09 0
-8.34527e-08 2.50768e-08 0
-8.26012e-08 3.5155e-08 0
-7.6965e-08 2.92243e-08 0
-4.40912e-08 1.03101e-08 0
-1.46668e-08 -1.04471e-08 0
-2.53084e-08 -2.11702e-08 0
-6.00002e-08 -1.81272e-08 0
-8.64633e-08 -8.61748e-09 0
-9.64149e-08 -1.25571e-09 0
-9.76523e-08 1.58925e-09 0
-9.70725e-08 1.68063e-09 0
-9.70387e-08 9.50409e-10 0
-9.76525e-08 2.97466e-10 0
-9.85304e-08 -7.83381e-11 0
-9.93891e-08 -2.33098e-10 0
-1.00106e-07 -2.61966e-10 0
-1.00656e-07 -2.34353e-10 0
-1.0106e-07 -1.89069e-10 0
-1.01348e-07 -1.44148e-10 0
-1.01549e-07 -1.06252e-10 0
-1.01689e-07 -7.66768e-11 0
-1.01785e-07 -5.45746e-11 0
-1.01851e-07 -3.8481e-11 0
-1.01895e-07 -2.6953e-11 0
-1.01925e-07 -1.8784e-11 0
-1.01945e-07 -1.3038e-11 0
-1.01957e-07 -9.01828e-12 0
-1.01965e-07 -6.21849e-12 0
-1.0197e-07 -4.27663e-12 0
-1.01973e-07 -2.93704e-12 0
-1.01974e-07 -2.02167e-12 0
-1.01974e-07 -1.40952e-12 0
-1.01974e-07 -1.02312e-12 0
-1.01973e-07 -8.20684e-13 0
-1.01973e-07 -7.94524e-13 0
-1.01972e-07 -9.83567e-13 0
-1.01972e-07 -1.49057e-12 0
-1.01973e-07 -2.47911e-12 0
-1.01976e-07 -4.37793e-12 0
-1.01983e-07 -8.1927e-12 0
0.00594545 5.4555e-08 0
0 0 0
1.01833e-11 0 0
-3.26124e-09 0 0
-1.77704e-08 0 0
-3.70294e-08 0 0
-5.08138e-08 0 0
-5.20237e-08 0 0
-4.61275e-08 0 0
-5.44959e-08 0 0
-5.29255e-08 0 0
-3.74636e-08 0 0
-1.80797e-08 0 0
-4.61224e-09 0 0
3.3659e-09 0 0
1.25092e-09 0 0
-1.38056e-08 0 0
-3.20553e-08 0 0
-4.32696e-08 0 0
-4.6482e-08 0 0
-4.57556e-08 0 0
-4.43093e-08 0 0
-4.33358e-08 0 0
-4.29294e-08 0 0
-4.28817e-08 0 0
-4.29977e-08 0 0
-4.31607e-08 0 0
-4.33156e-08 0 0
-4.3443e-08 0 0
-4.35404e-08 0 0
-4.36117e-08 0 0
-4.36625e-08 0 0
-4.36981e-08 0 0
-4.37226e-08 0 0
-4.37392e-08 0 0
-4.37502e-08 0 0
-4.37574e-08 0 0
-4.3762e-08 0 0
-4.37647e-08 0 0
-4.37662e-08 0 0
-4.37669e-08 0 0
-4.37671e-08 0 0
-4.37669e-08 0 0
-4.37665e-08 0 0
-4.37661e-08 0 0
-4.37657e-08 0 0
-4.37655e-08 0 0
-4.37655e-08 0 0
-4.37661e-08 0 0
-4.37676e-08 0 0
-4.37715e-08 0 0
0.0020944 0 0
0 0 5.40647e-07
1.62207e-11 0 1.21949e-10
2.14191e-08 0 1.76797e-08
1.46879e-08 0 6.30543e-08
-1.4602e-07 0 3.51836e-08
-5.42801e-08 0 -2.3858e-08
-2.44756e-08 0 -3.56589e-08
-5.47045e-09 0 -4.38872e-08
1.23781e-08 0 -3.92459e-08
3.24727e-08 0 -2.70497e-08
4.73652e-08 0 -1.16551e-08
4.2862e-08 0 -4.72416e-10
1.75759e-08 0 3.30351e-09
-1.52291e-08 0 1.96035e-09
-4.13115e-08 0 -5.49057e-10
-5.68725e-08 0 -1.72446e-09
-6.61961e-08 0 -1.32737e-09
-7.38305e-08 0 -2.99609e-10
-8.1372e-08 0 5.41962e-10
-8.84827e-08 0 9.28769e-10
-9.44841e-08 0 9.49274e-10
-9.9056e-08 0 7.8376e-10
-1.02258e-07 0 5.70458e-10
-1.04349e-07 0 3.80628e-10
-1.05626e-07 0 2.37467e-10
-1.06354e-07 0 1.39735e-10
-1.06732e-07 0 7.75234e-11
-1.069e-07 0 4.00788e-11
-1.06951e-07 0 1.86704e-11
-1.06941e-07 0 7.08746e-12
-1.06904e-07 0 1.24856e-12
-1.06858e-07 0 -1.38437e-12
-1.06814e-07 0 -2.32147e-12
-1.06775e-07 0 -2.42506e-12
-1.06743e-07 0 -2.16639e-12
-1.06717e-07 0 -1.78936e-12
-1.06696e-07 0 -1.41059e-12
-1.0668e-07 0 -1.07844e-12
-1.06668e-07 0 -8.06591e-13
-1.06659e-07 0 -5.92342e-13
-1.06651e-07 0 -4.26207e-13
-1.06645e-07 0 -2.96627e-13
-1.06641e-07 0 -1.91509e-13
-1.06637e-07 0 -9.85176e-14
-1.06635e-07 0 -6.22882e-15
-1.06633e-07 0 1.00083e-13
-1.06632e-07 0 2.15707e-13
-1.06632e-07 0 2.80839e-13
-1.06635e-07 0 8.19085e-13
-1.06641e-07 0 4.0428e-12
0.00590832 0 -2.11083e-08
0.0036 -3.04001e-07 -5.86121e-08
0.00359981 -0.00133032 2.58987e-06
0.00673921 -0.0038233 8.27342e-05
0.0135944 -0.00618083 -0.000832132
0.0237964 -0.0143635 -0.00457573
0.046116 -0.0127811 -0.00493824
0.0495211 -0.00163412 -0.00168904
0.0492423 0.00282842 -0.000196351
0.044156 0.00510776 0.000529548
0.0384438 0.00527352 0.000505054
0.0332809 0.00460693 0.000229834
0.0290065 0.0036529 -6.26967e-05
0.0256699 0.00264389 -0.000274056
0.02317 0.00175996 -0.000353778
0.0213464 0.00111342 -0.000312819
0.0200398 0.000703495 -0.000212805
0.0191199 0.000458956 -0.000115478
0.0184862 0.000308319 -4.90864e-05
0.018061 0.000208244 -1.35821e-05
0.0177841 0.000138354 1.47497e-06
0.0176096 8.93276e-05 5.89538e-06
0.0175033 5.57442e-05 5.85414e-06
0.0174407 3.35093e-05 4.45942e-06
0.0174054 1.93082e-05 2.99568e-06
0.0173864 1.05591e-05 1.85983e-06
0.0173769 5.36698e-06 1.08783e-06
0.0173727 2.41293e-06 6.03015e-07
0.0173712 8.18532e-07 3.15372e-07
0.0173712 2.04506e-08 1.52731e-07
0.0173717 -3.3044e-07 6.50894e-08
0.0173725 -4.43332e-07 2.05079e-08
0.0173732 -4.39141e-07 -3.6225e-10
0.0173738 -3.84863e-07 -8.76551e-09
0.0173743 -3.15615e-07 -1.0996e-08
0.0173747 -2.48337e-07 -1.04423e-08
0.017375 -1.90042e-07 -8.84528e-09
0.0173752 -1.42624e-07 -7.04317e-09
0.0173754 -1.0557e-07 -5.39804e-09
0.0173755 -7.74087e-08 -4.03315e-09
0.0173756 -5.64549e-08 -2.96128e-09
0.0173757 -4.11498e-08 -2.15367e-09
0.0173757 -3.01964e-08 -1.57604e-09
0.0173758 -2.25919e-08 -1.2039e-09
0.0173758 -1.76319e-08 -1.03757e-09
0.0173758 -1.48916e-08 -1.07558e-09
0.0173758 -1.42184e-08 -1.215e-09
0.0173758 -1.59391e-08 -1.1199e-09
0.0173759 -2.04723e-08 1.76524e-09
0.0173759 -3.92848e-08 4.45564e-09
0.0173761 -1.26176e-07 -3.31249e-08
0.0173763 -1.97264e-07 -7.06882e-08
0.01 -1.42065e-07 -1.45645e-06
0.0100008 -0.0029913 -0.000555254
0.0148533 -0.00989133 -0.000740511
0.0241334 -0.0177467 -0.00146191
0.0381657 -0.0319993 -0.00350223
0.0584607 -0.0240148 -0.000816128
0.0558305 -0.00239387 0.00298391
0.0553916 0.00542285 0.00311003
0.0496559 0.0104748 0.00268989
0.0441672 0.0106026 0.00180417
0.0396795 0.00943403 0.000878577
0.0359679 0.00787347 0.000131949
0.0329443 0.0062299 -0.000375444
0.0305994 0.00469753 -0.000587048
0.0288397 0.00339893 -0.000540557
0.0275604 0.00237868 -0.000372079
0.0266618 0.0016201 -0.000203899
0.0260518 0.00107748 -8.83735e-05
0.0256522 0.000699895 -2.59248e-05
0.0254003 0.000443337 1.16046e-06
0.0252482 0.000273273 9.62848e-06
0.0251607 0.000163494 1.0104e-05
0.0251133 9.45595e-05 7.9977e-06
0.0250895 5.24927e-05 5.59549e-06
0.025079 2.75898e-05 3.6486e-06
0.0250755 1.3344e-05 2.27135e-06
0.0250755 5.52918e-06 1.36684e-06
0.0250769 1.47886e-06 8.00451e-07
0.0250787 -4.42724e-07 4.57687e-07
0.0250805 -1.21132e-06 2.55756e-07
0.025082 -1.39159e-06 1.39515e-07
0.0250832 -1.29894e-06 7.40301e-08
0.0250842 -1.10187e-06 3.79358e-08
0.0250849 -8.84864e-07 1.85136e-08
0.0250854 -6.86119e-07 8.36021e-09
0.0250858 -5.19454e-07 3.25122e-09
0.0250861 -3.86711e-07 8.22128e-10
0.0250863 -2.8449e-07 -2.24932e-10
0.0250865 -2.07635e-07 -5.8707e-10
0.0250866 -1.50923e-07 -6.29745e-10
0.0250867 -1.09785e-07 -5.42218e-10
0.0250867 -8.0541e-08 -4.27632e-10
0.0250868 -6.04216e-08 -3.43094e-10
0.0250868 -4.7522e-08 -3.27768e-10
0.0250868 -4.08563e-08 -3.80629e-10
0.0250868 -4.03727e-08 -1.00601e-10
0.0250869 -4.88533e-08 1.11968e-09
0.0250869 -7.82831e-08 5.08314e-09
0.025087 -1.48188e-07 3.852e-09
0.0250871 -2.90227e-07 -6.37993e-08
0.0250873 -3.84689e-07 -1.27175e-07
0.0148 -9.66088e-07 -1.74344e-06
0.0148024 -0.00527667 -0.001105
0.0202691 -0.0162621 -0.00238806
0.0271474 -0.0283308 -0.00402117
0.0316511 -0.0452852 -0.00566249
0.0301633 -0.0279593 -0.00122172
0.0265524 -1.20877e-05 0.00319721
0.0261092 0.007205 0.00329267
0.0299432 0.0148164 0.00311903
0.0304085 0.0143917 0.00214876
0.0295625 0.0126604 0.00116191
0.0286234 0.01077 0.000301695
0.0278599 0.008643 -0.000257988
0.0274903 0.00648192 -0.000480494
0.0273991 0.00460528 -0.000437559
0.0274437 0.00314494 -0.000283183
0.0275279 0.00208872 -0.000133449
0.0276065 0.00135705 -3.39981e-05
0.0276688 0.000861682 1.54241e-05
0.0277182 0.000532129 3.16138e-05
0.027759 0.000317689 3.10819e-05
0.0277934 0.000182089 2.45528e-05
0.027822 9.91645e-05 1.73555e-05
0.0278449 5.03139e-05 1.14647e-05
0.0278627 2.27387e-05 7.23445e-06
0.027876 7.97373e-06 4.41468e-06
0.0278856 6.32983e-07 2.62388e-06
0.0278926 -2.5867e-06 1.52518e-06
0.0278974 -3.63951e-06 8.6885e-07
0.0279008 -3.63892e-06 4.85347e-07
0.0279031 -3.19248e-06 2.65591e-07
0.0279047 -2.61362e-06 1.41964e-07
0.0279058 -2.05093e-06 7.36987e-08
0.0279066 -1.56468e-06 3.67644e-08
0.0279071 -1.17048e-06 1.72586e-08
0.0279075 -8.63333e-07 7.27551e-09
0.0279077 -6.30333e-07 2.39159e-09
0.0279079 -4.56948e-07 1.72501e-10
0.027908 -3.29817e-07 -6.97044e-10
0.0279081 -2.37775e-07 -9.12746e-10
0.0279081 -1.72017e-07 -8.34947e-10
0.0279082 -1.25898e-07 -6.49966e-10
0.0279082 -9.467e-08 -4.47136e-10
0.0279082 -7.52299e-08 -2.28809e-10
0.0279083 -6.62246e-08 9.96299e-11
0.0279083 -6.92842e-08 8.82413e-10
0.0279083 -8.93346e-08 2.01026e-09
0.0279083 -1.33594e-07 2.06409e-09
0.0279084 -2.08845e-07 -1.30345e-08
0.0279084 -3.13943e-07 -1.00128e-07
0.0279084 -3.7302e-07 -1.72643e-07
0.018 -1.96129e-06 -1.72488e-06
0.0180029 -0.00687527 -0.00188748
0.0206223 -0.0185473 -0.00489879
0.0204901 -0.0242932 -0.0063277
0.0159562 -0.0264367 -0.00754214
-1.55826e-06 -0.0138251 -0.00422681
9.86108e-05 2.78837e-05 8.8994e-07
-3.47171e-05 3.62092e-05 0.000601346
0.00678912 0.00435944 0.00129133
0.0140499 0.00999495 0.00122047
0.017506 0.0109814 0.000793238
0.0191741 0.00988047 0.000232726
0.0208314 0.00790869 -0.000214593
0.0225634 0.0056912 -0.000383506
0.0241571 0.0038274 -0.000343248
0.0254924 0.00246144 -0.000217948
0.0265243 0.00154167 -9.17405e-05
0.0272668 0.000948384 -3.60163e-06
0.0277741 0.000569095 4.02723e-05
0.0281116 0.000327111 5.15941e-05
0.0283339 0.000175554 4.58959e-05
0.0284798 8.43668e-05 3.46195e-05
0.0285751 3.26411e-05 2.37012e-05
0.0286369 5.55645e-06 1.52227e-05
0.0286764 -7.00764e-06 9.34332e-06
0.0287015 -1.15718e-05 5.53967e-06
0.0287173 -1.20875e-05 3.1926e-06
0.0287271 -1.08061e-05 1.79416e-06
0.0287331 -8.92648e-06 9.83878e-07
0.0287369 -7.03334e-06 5.25546e-07
0.0287392 -5.37323e-06 2.72042e-07
0.0287406 -4.01867e-06 1.35007e-07
0.0287415 -2.9605e-06 6.28314e-08
0.028742 -2.15715e-06 2.60399e-08
0.0287423 -1.55918e-06 8.13207e-09
0.0287425 -1.12035e-06 4.13258e-11
0.0287427 -8.01697e-07 -3.11849e-09
0.0287428 -5.72204e-07 -3.92341e-09
0.0287428 -4.0809e-07 -3.694e-09
0.0287429 -2.91571e-07 -3.0816e-09
0.0287429 -2.09628e-07 -2.39188e-09
0.0287429 -1.52941e-07 -1.75674e-09
0.0287429 -1.15079e-07 -1.21471e-09
0.0287429 -9.21189e-08 -7.75413e-10
0.0287429 -8.23259e-08 -4.95931e-10
0.028743 -8.53164e-08 -6.12183e-10
0.028743 -1.00766e-07 -2.25701e-09
0.0287429 -1.26274e-07 -7.58508e-09
0.0287429 -1.59799e-07 -3.34732e-08
0.0287429 -1.96708e-07 -1.25991e-07
0.0287428 -2.14851e-07 -1.96527e-07
0.0196 -2.77567e-06 -2.61825e-06
0.0196009 -0.00571145 -0.00274061
0.0190819 -0.0127612 -0.00643557
0.016049 -0.0156565 -0.00667276
0.0110705 -0.0146015 -0.00669603
0.00186 -0.00599757 -0.00495829
7.38231e-05 -6.78303e-05 -0.00123752
3.31132e-05 -3.31132e-05 -3.96947e-08
-3.40124e-05 3.54218e-05 0.000217377
0.00424886 0.00314587 0.000455008
0.00981986 0.00736959 0.000382064
0.0127182 0.00760185 5.18204e-05
0.0159525 0.00560242 -0.000293774
0.0191018 0.00352201 -0.000408904
0.0218142 0.00195512 -0.000375152
0.0240084 0.00094135 -0.000273393
0.0256756 0.000379705 -0.000150586
0.0268541 0.000109229 -4.64401e-05
0.0276362 -1.07651e-05 1.65537e-05
0.0281338 -6.16698e-05 4.06572e-05
0.028443 -7.95849e-05 4.10525e-05
0.0286325 -8.00403e-05 3.20353e-05
0.0287471 -7.14319e-05 2.18606e-05
0.0288155 -5.91695e-05 1.37197e-05
0.0288557 -4.65854e-05 8.12475e-06
0.0288789 -3.53971e-05 4.60277e-06
0.0288921 -2.62317e-05 2.51092e-06
0.0288995 -1.91019e-05 1.32057e-06
0.0289036 -1.37419e-05 6.6653e-07
0.0289057 -9.80382e-06 3.18606e-07
0.0289068 -6.95517e-06 1.39736e-07
0.0289074 -4.91604e-06 5.15504e-08
0.0289077 -3.46657e-06 1.06111e-08
0.0289078 -2.441e-06 -6.52315e-09
0.0289078 -1.71754e-06 -1.21854e-08
0.0289078 -1.20823e-06 -1.26874e-08
0.0289078 -8.502e-07 -1.11498e-08
0.0289078 -5.98844e-07 -9.04096e-09
0.0289077 -4.22691e-07 -6.99766e-09
0.0289077 -2.99616e-07 -5.25308e-09
0.0289077 -2.14148e-07 -3.86107e-09
0.0289077 -1.55579e-07 -2.81786e-09
0.0289077 -1.1662e-07 -2.12494e-09
0.0289077 -9.22688e-08 -1.88462e-09
0.0289077 -7.87375e-08 -2.37436e-09
0.0289077 -7.24519e-08 -3.94247e-09
0.0289076 -6.96482e-08 -7.72816e-09
0.0289076 -6.49539e-08 -1.52724e-08
0.0289076 -5.05852e-08 -4.35852e-08
0.0289075 -1.91019e-08 -1.33971e-07
0.0289073 1.69868e-09 -2.00918e-07
0.0196 -1.32354e-06 -3.59783e-06
0.0196 -0.00357222 -0.0031042
0.0188693 -0.00774479 -0.00646952
0.0176304 -0.00761202 -0.00609688
0.0134188 -0.00378103 -0.00561249
0.00935361 0.0029005 -0.00520279
0.00623425 0.00324341 -0.00290742
7.39465e-05 -6.17141e-05 -0.000589321
2.77017e-05 -2.77017e-05 -1.28956e-07
-3.33299e-05 3.46948e-05 7.24215e-05
0.00312423 0.00244626 0.000336748
0.00768709 0.00386857 0.000295997
0.0130655 0.00181819 -6.50072e-05
0.0177067 0.000168238 -0.000245521
0.0212663 -0.000776056 -0.00031628
0.0238937 -0.00117703 -0.000313506
0.0257647 -0.00117681 -0.000239928
0.0270131 -0.00096584 -0.00013509
0.0277853 -0.000713557 -4.94022e-05
0.028234 -0.000502533 -2.46827e-06
0.0284833 -0.000347705 1.39806e-05
0.0286173 -0.000238816 1.50235e-05
0.0286869 -0.00016304 1.10885e-05
0.0287217 -0.00011062 6.90997e-06
0.0287381 -7.46597e-05 3.87072e-06
0.028745 -5.0223e-05 1.99199e-06
0.0287475 -3.37507e-05 9.39791e-07
0.0287478 -2.27054e-05 3.93114e-07
0.0287472 -1.53154e-05 1.288e-07
0.0287465 -1.03688e-05 1.19665e-08
0.0287457 -7.04957e-06 -3.24124e-08
0.028745 -4.81383e-06 -4.36213e-08
0.0287445 -3.30108e-06 -4.11643e-08
0.0287441 -2.27268e-06 -3.41824e-08
0.0287438 -1.57032e-06 -2.6636e-08
0.0287435 -1.08863e-06 -2.00181e-08
0.0287434 -7.57094e-07 -1.47161e-08
0.0287432 -5.28282e-07 -1.06694e-08
0.0287432 -3.7011e-07 -7.67044e-09
0.0287431 -2.60776e-07 -5.49693e-09
0.028743 -1.85391e-07 -3.96973e-09
0.028743 -1.33689e-07 -2.98703e-09
0.028743 -9.83913e-08 -2.53785e-09
0.028743 -7.40181e-08 -2.72361e-09
0.0287429 -5.59969e-08 -3.7509e-09
0.0287429 -3.98559e-08 -5.72085e-09
0.0287429 -2.058e-08 -9.58893e-09
0.0287429 9.26203e-09 -1.6669e-08
0.0287428 6.44585e-08 -4.13968e-08
0.0287427 1.59048e-07 -1.24707e-07
0.0287426 2.17197e-07 -1.87737e-07
0.018 -8.58176e-07 -3.56304e-06
0.0180009 -0.00191274 -0.00302778
0.0183659 -0.00358346 -0.00612203
0.0185095 -0.00221416 -0.00533688
0.0176017 0.00109221 -0.00432567
0.0173927 0.0073604 -0.00395597
0.0181032 0.0126591 -0.00280497
0.0111601 0.00693349 -0.00132678
7.55319e-05 -4.78963e-05 -0.000390935
-2.63542e-05 -5.5487e-05 5.55564e-07
7.83324e-06 -0.000444069 0.000759137
0.00873168 -0.00241646 0.00114851
0.0164062 -0.0042944 0.000601279
0.0215161 -0.00442523 0.000321971
0.024563 -0.00391126 0.000104251
0.0262908 -0.00324477 -0.000102291
0.0272474 -0.00250443 -0.000211257
0.0277473 -0.00177682 -0.000200487
0.0279744 -0.00117701 -0.000133661
0.0280504 -0.000749311 -7.11311e-05
0.0280543 -0.000469333 -3.25811e-05
0.0280311 -0.000292827 -1.36623e-05
0.0280023 -0.000182907 -5.61823e-06
0.0279767 -0.000114643 -2.47014e-06
0.0279567 -7.22441e-05 -1.2549e-06
0.027942 -4.58574e-05 -7.4454e-07
0.0279316 -2.93666e-05 -4.88024e-07
0.0279244 -1.89919e-05 -3.32704e-07
0.0279194 -1.24083e-05 -2.27974e-07
0.0279159 -8.18827e-06 -1.54975e-07
0.0279136 -5.45426e-06 -1.04258e-07
0.0279119 -3.66406e-06 -6.95333e-08
0.0279108 -2.47996e-06 -4.6114e-08
0.02791 -1.68952e-06 -3.05077e-08
0.0279095 -1.15753e-06 -2.01913e-08
0.0279091 -7.96979e-07 -1.34017e-08
0.0279089 -5.51197e-07 -8.94016e-09
0.0279087 -3.82884e-07 -6.00894e-09
0.0279086 -2.67234e-07 -4.08693e-09
0.0279085 -1.87578e-07 -2.8433e-09
0.0279084 -1.32547e-07 -2.08404e-09
0.0279084 -9.42107e-08 -1.71946e-09
0.0279083 -6.67894e-08 -1.73185e-09
0.0279083 -4.57271e-08 -2.17253e-09
0.0279083 -2.69301e-08 -3.16652e-09
0.0279082 -5.94613e-09 -4.6939e-09
0.0279082 2.29202e-08 -7.52192e-09
0.0279082 6.81698e-08 -1.25909e-08
0.0279082 1.49962e-07 -2.90911e-08
0.0279082 2.87873e-07 -9.93923e-08
0.0279082 3.72043e-07 -1.56326e-07
0.0148 -4.83193e-07 -3.14852e-06
0.0148015 -0.000963052 -0.00279907
0.0162904 -0.001415 -0.00540223
0.018001 0.000339777 -0.00437585
0.019535 0.00356086 -0.0032404
0.0214386 0.00754634 -0.00294342
0.0252399 0.0129305 -0.00235766
0.0284905 0.0196004 -0.00139208
0.0233568 0.0114476 -0.000263833
0.0237759 1.10639e-11 0.000648655
0.0269883 -0.00666754 0.00157433
0.0308126 -0.0131439 0.00212044
0.0319603 -0.0113032 0.00172364
0.0314067 -0.0081065 0.00133813
0.0301627 -0.00546214 0.00083832
0.0288119 -0.00362305 0.000273814
0.0276493 -0.0023597 -0.000126579
0.0267766 -0.00147846 -0.000261173
0.0261736 -0.000888379 -0.000223671
0.0257758 -0.000520507 -0.00014126
0.02552 -0.000303425 -7.58868e-05
0.0253583 -0.000178351 -3.71966e-05
0.0252571 -0.000106359 -1.73297e-05
0.0251941 -6.44921e-05 -7.87169e-06
0.025155 -3.97834e-05 -3.54306e-06
0.0251306 -2.49598e-05 -1.59586e-06
0.0251152 -1.59124e-05 -7.22219e-07
0.0251054 -1.02942e-05 -3.2751e-07
0.0250992 -6.7469e-06 -1.47057e-07
0.0250951 -4.47228e-06 -6.36351e-08
0.0250924 -2.99335e-06 -2.49472e-08
0.0250906 -2.01999e-06 -7.26594e-09
0.0250894 -1.37262e-06 4.23344e-10
0.0250886 -9.38197e-07 3.3604e-09
0.0250881 -6.4448e-07 4.0883e-09
0.0250877 -4.44654e-07 3.85267e-09
0.0250874 -3.08015e-07 3.2582e-09
0.0250872 -2.14194e-07 2.58696e-09
0.0250871 -1.49533e-07 1.95711e-09
0.025087 -1.04756e-07 1.40356e-09
0.025087 -7.34446e-08 9.17209e-10
0.0250869 -5.10043e-08 4.6226e-10
0.0250869 -3.39347e-08 -1.06105e-11
0.0250869 -1.92425e-08 -5.70395e-10
0.0250869 -3.93148e-09 -1.31338e-09
0.0250868 1.55979e-08 -2.18753e-09
0.0250868 4.45964e-08 -3.58285e-09
0.0250868 9.03026e-08 -6.01642e-09
0.0250869 1.69854e-07 -1.41556e-08
0.025087 3.00321e-07 -6.84751e-08
0.0250871 3.793e-07 -1.16153e-07
0.01 -9.25775e-07 -2.83605e-06
0.0100008 -0.000594778 -0.00228643
0.0114067 -0.000592198 -0.0041577
0.0134734 0.000732042 -0.00302791