# vtk DataFile Version 2.0
Tobias Weinzierl: CPU, Manycore and Cluster Computing
ASCII

DATASET STRUCTURED_POINTS
DIMENSIONS  51 11 6

ORIGIN 0 0 0 

SPACING 0.1 0.1 0.1 

POINT_DATA 3366

VECTORS velocity float
0 0 0
-9.95906e-14 0 0
-2.092e-10 0 0
-3.8324e-10 0 0
-1.38752e-09 0 0
8.93608e-10 0 0
1.37454e-09 0 0
1.37767e-09 0 0
1.59503e-09 0 0
2.16524e-09 0 0
2.94648e-09 0 0
3.65417e-09 0 0
4.0146e-09 0 0
3.91154e-09 0 0
3.35983e-09 0 0
2.46946e-09 0 0
1.43544e-09 0 0
4.77307e-10 0 0
-2.85245e-10 0 0
-8.83167e-10 0 0
-1.42866e-09 0 0
-2.01381e-09 0 0
-2.66006e-09 0 0
-3.32848e-09 0 0
-3.95785e-09 0 0
-4.49775e-09 0 0
-4.92328e-09 0 0
-5.23389e-09 0 0
-5.44465e-09 0 0
-5.57719e-09 0 0
-5.6532e-09 0 0
-5.69115e-09 0 0
-5.70523e-09 0 0
-5.70551e-09 0 0
-5.69873e-09 0 0
-5.68912e-09 0 0
-5.67909e-09 0 0
-5.66994e-09 0 0
-5.66219e-09 0 0
-5.65595e-09 0 0
-5.65113e-09 0 0
-5.6475e-09 0 0
-5.64484e-09 0 0
-5.64293e-09 0 0
-5.64161e-09 0 0
-5.64071e-09 0 0
-5.64014e-09 0 0
-5.63982e-09 0 0
-5.63971e-09 0 0
-5.63987e-09 0 0
0.00188925 0 0
0 3.86925e-07 0
-1.98808e-13 3.37469e-12 0
-3.14349e-10 -2.56415e-10 0
-2.34818e-10 -7.70992e-11 0
-7.72647e-10 -8.07793e-10 0
2.96639e-09 -7.05866e-10 0
3.50871e-09 9.04542e-10 0
3.31894e-09 7.66019e-10 0
4.21319e-09 -3.64321e-10 0
6.23282e-09 -1.61862e-09 0
8.75126e-09 -2.58341e-09 0
1.09059e-08 -2.9574e-09 0
1.1951e-08 -2.54235e-09 0
1.1589e-08 -1.39566e-09 0
1.008e-08 2.7732e-11 0
7.98358e-09 1.12169e-09 0
5.788e-09 1.55868e-09 0
3.74193e-09 1.4374e-09 0
1.85091e-09 1.09151e-09 0
-1.7731e-11 8.06653e-10 0
-1.99595e-09 6.8477e-10 0
-4.12115e-09 6.81221e-10 0
-6.31697e-09 7.05559e-10 0
-8.43497e-09 6.93581e-10 0
-1.03217e-08 6.27063e-10 0
-1.18726e-08 5.20168e-10 0
-1.3052e-08 3.98054e-10 0
-1.38836e-08 2.82189e-10 0
-1.44261e-08 1.8501e-10 0
-1.47496e-08 1.10676e-10 0
-1.492e-08 5.80105e-11 0
-1.49913e-08 2.33086e-11 0
-1.50033e-08 2.22166e-12 0
-1.49836e-08 -9.25157e-12 0
-1.49498e-08 -1.43728e-11 0
-1.49126e-08 -1.55946e-11 0
-1.48776e-08 -1.46451e-11 0
-1.48474e-08 -1.26683e-11 0
-1.48227e-08 -1.03703e-11 0
-1.48034e-08 -8.14931e-12 0
-1.47887e-08 -6.19921e-12 0
-1.47778e-08 -4.5874e-12 0
-1.477e-08 -3.30906e-12 0
-1.47643e-08 -2.32322e-12 0
-1.47605e-08 -1.57442e-12 0
-1.47578e-08 -1.0046e-12 0
-1.47562e-08 -5.5529e-13 0
-1.47552e-08 -1.56385e-13 0
-1.47549e-08 3.28341e-13 0
-1.47554e-08 1.18772e-12 0
0.00544347 -1.05555e-08 0
0 -1.87857e-08 0
1.02955e-13 -5.91746e-11 0
2.98349e-10 -1.05642e-09 0
1.60952e-09 -2.68051e-09 0
3.28524e-09 -4.69857e-09 0
5.70685e-09 -3.3128e-09 0
4.4323e-09 7.67186e-11 0
3.3014e-09 -2.28551e-10 0
3.89542e-09 -2.32786e-09 0
6.74297e-09 -4.51805e-09 0
1.06037e-08 -6.50258e-09 0
1.38445e-08 -7.9669e-09 0
1.53458e-08 -8.28133e-09 0
1.45845e-08 -6.94204e-09 0
1.22487e-08 -4.20858e-09 0
9.38643e-09 -9.03983e-10 0
6.63078e-09 2.1231e-09 0
4.11439e-09 4.30462e-09 0
1.73859e-09 5.45067e-09 0
-5.96559e-10 5.7021e-09 0
-2.92827e-09 5.3662e-09 0
-5.24416e-09 4.73296e-09 0
-7.4854e-09 3.98638e-09 0
-9.54994e-09 3.21969e-09 0
-1.13237e-08 2.4843e-09 0
-1.27257e-08 1.81896e-09 0
-1.37347e-08 1.25337e-09 0
-1.43863e-08 8.02985e-10 0
-1.4751e-08 4.67221e-10 0
-1.49096e-08 2.33083e-10 0
-1.49349e-08 8.11084e-11 0
-1.48845e-08 -9.35623e-12 0
-1.47987e-08 -5.68431e-11 0
-1.47029e-08 -7.63079e-11 0
-1.46119e-08 -7.88943e-11 0
-1.45326e-08 -7.23633e-11 0
-1.44674e-08 -6.17771e-11 0
-1.44159e-08 -5.0202e-11 0
-1.43764e-08 -3.93202e-11 0
-1.4347e-08 -2.99121e-11 0
-1.43255e-08 -2.22114e-11 0
-1.431e-08 -1.61488e-11 0
-1.42991e-08 -1.15101e-11 0
-1.42915e-08 -8.0315e-12 0
-1.42863e-08 -5.45003e-12 0
-1.42828e-08 -3.52385e-12 0
-1.42807e-08 -2.02345e-12 0
-1.42795e-08 -6.74318e-13 0
-1.42792e-08 8.57356e-13 0
-1.42796e-08 2.91728e-12 0
0.00787574 -2.67001e-08 0
0 -6.39382e-07 0
4.72955e-13 -6.63673e-10 0
8.12893e-10 -2.5741e-09 0
2.59866e-09 -5.0829e-09 0
3.74775e-09 -6.71003e-09 0
3.63407e-09 -3.53865e-09 0
2.29729e-09 -2.19267e-12 0
1.36013e-09 -1.06783e-09 0
3.30111e-10 -3.44704e-09 0
1.61223e-09 -6.36953e-09 0
4.94202e-09 -9.83967e-09 0
7.89713e-09 -1.31366e-08 0
9.36376e-09 -1.44988e-08 0
8.54284e-09 -1.28274e-08 0
6.04447e-09 -8.52681e-09 0
2.81861e-09 -2.63875e-09 0
-4.55152e-10 3.41968e-09 0
-3.33915e-09 8.17088e-09 0
-5.51579e-09 1.06991e-08 0
-6.8204e-09 1.10196e-08 0
-7.33007e-09 9.83231e-09 0
-7.32389e-09 7.97089e-09 0
-7.11307e-09 6.02826e-09 0
-6.89294e-09 4.29674e-09 0
-6.71444e-09 2.87226e-09 0
-6.54541e-09 1.76201e-09 0
-6.34267e-09 9.40665e-10 0
-6.08915e-09 3.69441e-10 0
-5.7959e-09 2.38416e-12 0
-5.48824e-09 -2.08603e-10 0
-5.19208e-09 -3.08543e-10 0
-4.92616e-09 -3.35559e-10 0
-4.70033e-09 -3.19217e-10 0
-4.51691e-09 -2.80672e-10 0
-4.37321e-09 -2.33894e-10 0
-4.26392e-09 -1.8731e-10 0
-4.18281e-09 -1.45396e-10 0
-4.12385e-09 -1.10031e-10 0
-4.08172e-09 -8.15149e-11 0
-4.05208e-09 -5.92966e-11 0
-4.03148e-09 -4.24444e-11 0
-4.01734e-09 -2.99329e-11 0
-4.00773e-09 -2.07975e-11 0
-4.00129e-09 -1.42032e-11 0
-3.99704e-09 -9.45969e-12 0
-3.99432e-09 -5.99974e-12 0
-3.99267e-09 -3.34486e-12 0
-3.99175e-09 -1.06608e-12 0
-3.99126e-09 1.17864e-12 0
-3.99118e-09 3.50103e-12 0
0.00897714 -2.98388e-08 0
0 -1.25621e-06 0
-1.50417e-13 -1.28498e-09 0
1.16704e-10 -3.64641e-09 0
6.76366e-10 -4.84731e-09 0
7.99334e-10 -3.9279e-09 0
-2.39249e-13 -1.44274e-09 0
-1.20387e-11 -1.14461e-11 0
1.07112e-11 -1.10998e-11 0
-9.47151e-10 -1.69644e-09 0
-2.92378e-09 -6.03943e-09 0
-3.43319e-09 -1.13601e-08 0
-2.12712e-09 -1.61224e-08 0
-1.61286e-09 -1.82534e-08 0
-2.61427e-09 -1.62696e-08 0
-4.7006e-09 -1.05508e-08 0
-7.28398e-09 -2.44703e-09 0
-9.82251e-09 5.77423e-09 0
-1.17663e-08 1.1767e-08 0
-1.2578e-08 1.42887e-08 0
-1.19509e-08 1.36344e-08 0
-1.00239e-08 1.10623e-08 0
-7.32774e-09 7.89173e-09 0
-4.49002e-09 4.97419e-09 0
-1.95862e-09 2.6589e-09 0
8.54328e-11 9.87372e-10 0
1.65625e-09 -1.24598e-10 0
2.84891e-09 -7.91782e-10 0
3.7616e-09 -1.12616e-09 0
4.46694e-09 -1.22765e-09 0
5.01266e-09 -1.18034e-09 0
5.43097e-09 -1.05018e-09 0
5.7463e-09 -8.84775e-10 0
5.9792e-09 -7.15241e-10 0
6.1476e-09 -5.59542e-10 0
6.26687e-09 -4.26154e-10 0
6.34975e-09 -3.17373e-10 0
6.40636e-09 -2.31908e-10 0
6.44441e-09 -1.6671e-10 0
6.46965e-09 -1.18147e-10 0
6.48617e-09 -8.26805e-11 0
6.49686e-09 -5.7198e-11 0
6.5037e-09 -3.91315e-11 0
6.50803e-09 -2.64532e-11 0
6.51073e-09 -1.76092e-11 0
6.51238e-09 -1.14298e-11 0
6.51336e-09 -7.04156e-12 0
6.51396e-09 -3.80459e-12 0
6.51446e-09 -1.2839e-12 0
6.51514e-09 7.7375e-13 0
6.5158e-09 2.44764e-12 0
0.00943158 -1.53367e-08 0
0 -1.13891e-06 0
-7.94759e-13 -1.18603e-09 0
-7.31438e-10 -2.77721e-09 0
-9.42822e-10 -3.66777e-09 0
-1.31232e-09 -3.94603e-09 0
-9.30672e-10 -1.86967e-09 0
-1.12904e-11 1.11129e-11 0
-4.01857e-13 4.01857e-13 0
1.12203e-11 -1.02022e-11 0
-1.86061e-09 -2.6184e-09 0
-6.38947e-09 -9.58179e-09 0
-8.94783e-09 -1.6489e-08 0
-1.08413e-08 -1.90572e-08 0
-1.27077e-08 -1.6633e-08 0
-1.42874e-08 -9.9584e-09 0
-1.53808e-08 -9.49007e-10 0
-1.58389e-08 7.57812e-09 0
-1.54974e-08 1.31043e-08 0
-1.41062e-08 1.45946e-08 0
-1.14946e-08 1.27273e-08 0
-7.84212e-09 9.10273e-09 0
-3.70179e-09 5.22563e-09 0
2.65978e-10 1.97967e-09 0
3.58815e-09 -3.44563e-10 0
6.09089e-09 -1.79587e-09 0
7.83308e-09 -2.54807e-09 0
8.97977e-09 -2.79264e-09 0
9.70589e-09 -2.70108e-09 0
1.01526e-08 -2.41403e-09 0
1.04201e-08 -2.03814e-09 0
1.05747e-08 -1.64684e-09 0
1.06595e-08 -1.28462e-09 0
1.07021e-08 -9.73558e-10 0
1.07201e-08 -7.2031e-10 0
1.07245e-08 -5.22298e-10 0
1.0722e-08 -3.72309e-10 0
1.07166e-08 -2.61555e-10 0
1.07104e-08 -1.81458e-10 0
1.07045e-08 -1.24517e-10 0
1.06995e-08 -8.46097e-11 0
1.06954e-08 -5.6965e-11 0
1.06922e-08 -3.79934e-11 0
1.06898e-08 -2.50612e-11 0
1.0688e-08 -1.62733e-11 0
1.06867e-08 -1.02881e-11 0
1.06858e-08 -6.17956e-12 0
1.06854e-08 -3.33877e-12 0
1.06855e-08 -1.39772e-12 0
1.06861e-08 -1.84408e-13 0
1.06869e-08 4.23028e-13 0
0.00955192 8.93583e-09 0
0 -7.84226e-07 0
-4.73413e-13 -6.75119e-10 0
-6.91981e-10 -1.77625e-09 0
-7.55077e-10 -2.35794e-09 0
-1.57018e-09 -2.65328e-09 0
-2.04382e-09 -2.33592e-09 0
-8.93173e-10 -9.39392e-10 0
-1.09835e-11 1.12423e-11 0
-2.22356e-14 2.22356e-14 0
1.28063e-11 -9.63439e-12 0
-2.8132e-09 -4.86643e-09 0
-9.12854e-09 -1.32934e-08 0
-1.4417e-08 -1.68539e-08 0
-1.80096e-08 -1.41326e-08 0
-1.98535e-08 -7.15745e-09 0
-1.98049e-08 1.32315e-09 0
-1.80388e-08 8.42171e-09 0
-1.50485e-08 1.21393e-08 0
-1.12962e-08 1.20458e-08 0
-7.09812e-09 9.18351e-09 0
-2.78351e-09 5.21203e-09 0
1.21698e-09 1.49428e-09 0
4.48834e-09 -1.28694e-09 0
6.80116e-09 -3.01095e-09 0
8.16756e-09 -3.84069e-09 0
8.77185e-09 -4.01892e-09 0
8.85933e-09 -3.77572e-09 0
8.65305e-09 -3.2996e-09 0
8.31738e-09 -2.73146e-09 0
7.95557e-09 -2.16625e-09 0
7.62291e-09 -1.65915e-09 0
7.34275e-09 -1.23484e-09 0
7.11975e-09 -8.97485e-10 0
6.94912e-09 -6.39576e-10 0
6.82232e-09 -4.48367e-10 0
6.73014e-09 -3.10033e-10 0
6.66426e-09 -2.119e-10 0
6.61782e-09 -1.43385e-10 0
6.58543e-09 -9.61633e-11 0
6.56303e-09 -6.39601e-11 0
6.54766e-09 -4.21867e-11 0
6.53718e-09 -2.75649e-11 0
6.53009e-09 -1.77947e-11 0
6.52535e-09 -1.12895e-11 0
6.52225e-09 -6.97695e-12 0
6.52034e-09 -4.15229e-12 0
6.51932e-09 -2.3744e-12 0
6.51902e-09 -1.39558e-12 0
6.51936e-09 -1.16402e-12 0
6.51986e-09 -1.6256e-12 0
0.00943158 3.04224e-08 0
0 -5.49111e-07 0
-1.47074e-14 -3.42988e-10 0
-2.6669e-10 -9.94905e-10 0
-2.96201e-10 -1.6859e-09 0
-8.41872e-10 -2.01186e-09 0
-2.0986e-09 -1.47653e-09 0
-2.52478e-09 -4.33747e-10 0
-1.63246e-09 6.49305e-11 0
-1.16133e-11 1.08715e-11 0
1.31417e-11 9.27249e-12 0
1.90351e-12 -2.80651e-09 0
-4.75395e-09 -9.19431e-09 0
-1.24329e-08 -1.24285e-08 0
-1.93324e-08 -8.97513e-09 0
-2.31021e-08 -2.10061e-09 0
-2.25899e-08 4.57206e-09 0
-1.84999e-08 8.74447e-09 0
-1.26896e-08 9.59223e-09 0
-6.92496e-09 7.5966e-09 0
-2.2083e-09 4.12142e-09 0
1.15281e-09 6.26503e-10 0
3.20519e-09 -1.98303e-09 0
4.12054e-09 -3.47789e-09 0
4.12501e-09 -4.04597e-09 0
3.48219e-09 -3.99699e-09 0
2.4625e-09 -3.6018e-09 0
1.30135e-09 -3.0516e-09 0
1.70108e-10 -2.46831e-09 0
-8.29913e-10 -1.92349e-09 0
-1.65582e-09 -1.4534e-09 0
-2.3045e-09 -1.07029e-09 0
-2.79487e-09 -7.7144e-10 0
-3.15479e-09 -5.462e-10 0
-3.41297e-09 -3.81018e-10 0
-3.5949e-09 -2.62491e-10 0
-3.72132e-09 -1.7891e-10 0
-3.80822e-09 -1.20793e-10 0
-3.86744e-09 -8.08459e-11 0
-3.90752e-09 -5.36491e-11 0
-3.93449e-09 -3.52847e-11 0
-3.95254e-09 -2.29736e-11 0
-3.96455e-09 -1.47756e-11 0
-3.97248e-09 -9.35596e-12 0
-3.97766e-09 -5.81071e-12 0
-3.98096e-09 -3.53947e-12 0
-3.98299e-09 -2.15627e-12 0
-3.98414e-09 -1.43256e-12 0
-3.98465e-09 -1.2711e-12 0
-3.98475e-09 -1.72949e-12 0
-3.98487e-09 -2.82136e-12 0
0.00897715 3.81098e-08 0
0 -4.65212e-07 0
4.42251e-14 -1.64378e-10 0
8.81978e-11 -5.35197e-10 0
2.67159e-11 -9.53408e-10 0
-7.94519e-10 -1.17653e-09 0
-2.50552e-09 -4.95893e-10 0
-3.80518e-09 7.87747e-10 0
-3.88277e-09 -2.49166e-11 0
-2.58806e-09 -7.14666e-10 0
-1.90115e-09 -8.15482e-15 0
-6.38376e-10 -3.03193e-09 0
-3.70974e-09 -6.98041e-09 0
-1.20736e-08 -6.6453e-09 0
-2.05836e-08 -2.80716e-09 0
-2.43743e-08 2.14049e-09 0
-2.18722e-08 5.68706e-09 0
-1.51238e-08 6.70167e-09 0
-7.67547e-09 5.33736e-09 0
-2.19815e-09 2.58063e-09 0
4.44598e-10 -2.75658e-10 0
7.25473e-10 -2.28001e-09 0
-4.34757e-10 -3.16674e-09 0
-2.25176e-09 -3.1963e-09 0
-4.24172e-09 -2.78332e-09 0
-6.15704e-09 -2.24444e-09 0
-7.88171e-09 -1.74091e-09 0
-9.36445e-09 -1.32476e-09 0
-1.05899e-08 -9.97102e-10 0
-1.15671e-08 -7.43693e-10 0
-1.23217e-08 -5.49345e-10 0
-1.28882e-08 -4.01486e-10 0
-1.33036e-08 -2.90132e-10 0
-1.36022e-08 -2.07258e-10 0
-1.38135e-08 -1.46355e-10 0
-1.3961e-08 -1.02163e-10 0
-1.40629e-08 -7.04945e-11 0
-1.41326e-08 -4.80731e-11 0
-1.418e-08 -3.23843e-11 0
-1.42119e-08 -2.1532e-11 0
-1.42333e-08 -1.411e-11 0
-1.42476e-08 -9.09298e-12 0
-1.4257e-08 -5.74542e-12 0
-1.42631e-08 -3.54927e-12 0
-1.42671e-08 -2.14709e-12 0
-1.42696e-08 -1.30047e-12 0
-1.42712e-08 -8.62336e-13 0
-1.42721e-08 -7.58685e-13 0
-1.42728e-08 -9.74736e-13 0
-1.42733e-08 -1.5522e-12 0
-1.42742e-08 -2.49832e-12 0
0.00787577 2.8262e-08 0
0 -4.7924e-07 0
1.5598e-13 -4.57807e-12 0
2.45165e-10 -5.14067e-11 0
1.28788e-10 -1.22991e-10 0
-9.05381e-10 -1.48457e-10 0
-2.97569e-09 -9.53609e-11 0
-4.72968e-09 5.19751e-10 0
-4.86972e-09 5.41934e-10 0
-5.65456e-09 -2.79832e-10 0
-5.2527e-09 -1.02133e-09 0
-4.22705e-09 -1.83367e-09 0
-6.59358e-09 -1.45187e-09 0
-1.0983e-08 9.42562e-11 0
-1.49764e-08 1.51601e-09 0
-1.56234e-08 2.37288e-09 0
-1.22049e-08 2.42466e-09 0
-6.70746e-09 1.6771e-09 0
-1.97477e-09 4.98829e-10 0
2.66091e-10 -5.83686e-10 0
-3.55638e-11 -1.21248e-09 0
-1.93114e-09 -1.34439e-09 0
-4.3707e-09 -1.15542e-09 0
-6.67779e-09 -8.59258e-10 0
-8.58408e-09 -5.93404e-10 0
-1.00705e-08 -4.0477e-10 0
-1.12114e-08 -2.86082e-10 0
-1.20892e-08 -2.13432e-10 0
-1.27671e-08 -1.66116e-10 0
-1.32892e-08 -1.31643e-10 0
-1.36877e-08 -1.04066e-10 0
-1.39876e-08 -8.10826e-11 0
-1.42099e-08 -6.19275e-11 0
-1.43722e-08 -4.62824e-11 0
-1.44888e-08 -3.38452e-11 0
-1.45716e-08 -2.42296e-11 0
-1.46296e-08 -1.69891e-11 0
-1.46697e-08 -1.16686e-11 0
-1.46972e-08 -7.84615e-12 0
-1.47158e-08 -5.15762e-12 0
-1.47283e-08 -3.3051e-12 0
-1.47366e-08 -2.05533e-12 0
-1.4742e-08 -1.23244e-12 0
-1.47455e-08 -7.08597e-13 0
-1.47477e-08 -3.94806e-13 0
-1.47491e-08 -2.33482e-13 0
-1.475e-08 -1.92338e-13 0
-1.47507e-08 -2.5534e-13 0
-1.47512e-08 -4.10013e-13 0
-1.47519e-08 -6.32497e-13 0
-1.4753e-08 -9.48694e-13 0
0.00544351 9.56905e-09 0
0 0 0
1.969e-13 0 0
1.43512e-10 0 0
7.93191e-11 0 0
-4.16822e-10 0 0
-1.45537e-09 0 0
-2.55619e-09 0 0
-2.61954e-09 0 0
-3.06687e-09 0 0
-3.35122e-09 0 0
-3.58676e-09 0 0
-4.02552e-09 0 0
-4.19938e-09 0 0
-4.17309e-09 0 0
-3.56856e-09 0 0
-2.26829e-09 0 0
-7.9444e-10 0 0
1.39569e-10 0 0
1.89092e-10 0 0
-4.92454e-10 0 0
-1.50765e-09 0 0
-2.50885e-09 0 0
-3.32241e-09 0 0
-3.92123e-09 0 0
-4.34793e-09 0 0
-4.65671e-09 0 0
-4.8886e-09 0 0
-5.06845e-09 0 0
-5.20997e-09 0 0
-5.32105e-09 0 0
-5.40708e-09 0 0
-5.4725e-09 0 0
-5.52128e-09 0 0
-5.55697e-09 0 0
-5.5826e-09 0 0
-5.60072e-09 0 0
-5.61332e-09 0 0
-5.62196e-09 0 0
-5.6278e-09 0 0
-5.63169e-09 0 0
-5.63424e-09 0 0
-5.63589e-09 0 0
-5.63694e-09 0 0
-5.63759e-09 0 0
-5.63801e-09 0 0
-5.63828e-09 0 0
-5.6385e-09 0 0
-5.63873e-09 0 0
-5.63904e-09 0 0
-5.63951e-09 0 0
0.00188927 0 0
0 0 5.36666e-07
-1.06872e-13 0 2.0576e-10
-5.9567e-10 0 6.3949e-10
-8.34403e-10 0 1.25536e-09
-4.62092e-09 0 -4.6912e-10
1.4506e-09 0 -2.05627e-09
3.2787e-09 0 -1.38867e-09
3.81079e-09 0 -9.86568e-10
4.45215e-09 0 -4.23311e-10
5.5243e-09 0 2.67098e-10
6.96291e-09 0 1.09443e-09
8.87873e-09 0 1.88923e-09
1.12019e-08 0 2.2849e-09
1.33906e-08 0 2.05036e-09
1.4551e-08 0 1.41429e-09
1.40539e-08 0 8.0265e-10
1.19556e-08 0 4.3341e-10
8.88213e-09 0 2.83222e-10
5.52768e-09 0 2.68912e-10
2.276e-09 0 3.36707e-10
-8.02181e-10 0 4.45824e-10
-3.7456e-09 0 5.5013e-10
-6.54238e-09 0 6.09061e-10
-9.10215e-09 0 6.04156e-10
-1.13111e-08 0 5.42151e-10
-1.30927e-08 0 4.45221e-10
-1.44338e-08 0 3.38042e-10
-1.53766e-08 0 2.39134e-10
-1.59945e-08 0 1.58247e-10
-1.63688e-08 0 9.78285e-11
-1.65732e-08 0 5.59156e-11
-1.66669e-08 0 2.86843e-11
-1.66936e-08 0 1.2101e-11
-1.66833e-08 0 2.72684e-12
-1.66554e-08 0 -2.05258e-12
-1.66217e-08 0 -4.07564e-12
-1.65887e-08 0 -4.55848e-12
-1.65596e-08 0 -4.26274e-12
-1.65354e-08 0 -3.63908e-12
-1.65162e-08 0 -2.93651e-12
-1.65016e-08 0 -2.27965e-12
-1.64906e-08 0 -1.72037e-12
-1.64826e-08 0 -1.27055e-12
-1.64769e-08 0 -9.22508e-13
-1.64729e-08 0 -6.60988e-13
-1.64702e-08 0 -4.70539e-13
-1.64684e-08 0 -3.41229e-13
-1.64674e-08 0 -2.79173e-13
-1.64671e-08 0 -2.88219e-13
-1.64675e-08 0 -2.04417e-13
0.00536968 0 -7.34287e-10
0.0036 -3.06781e-07 -6.21602e-08
0.0035998 -0.00138916 -2.09553e-05
0.00669727 -0.00393834 0.000116142
0.0136102 -0.00587406 -0.000485452
0.0235004 -0.0145014 -0.00426352
0.0464203 -0.0134834 -0.00489124
0.0499639 -0.00195742 -0.00164785
0.0497091 0.00261728 -0.000165329
0.0447358 0.0049383 0.000571821
0.039147 0.00509685 0.000569951
0.0340647 0.00442009 0.000317151
0.0298059 0.00353076 5.74504e-05
0.0264346 0.00266334 -0.000130527
0.0238728 0.00192003 -0.00023263
0.0219607 0.00134349 -0.000260372
0.0205258 0.000930038 -0.000235579
0.0194294 0.000648594 -0.00018225
0.0185774 0.000461905 -0.000121113
0.0179117 0.000337605 -6.66559e-05
0.0173958 0.000251792 -2.61736e-05
0.0170039 0.000189011 -8.26402e-07
0.0167141 0.000140558 1.19869e-05
0.0165064 0.000102158 1.6217e-05
0.0163628 7.18538e-05 1.55558e-05
0.0162675 4.85643e-05 1.27315e-05
0.016207 3.13425e-05 9.42284e-06
0.0161708 1.91539e-05 6.47329e-06
0.0161507 1.09169e-05 4.18187e-06
0.0161407 5.61413e-06 2.55383e-06
0.0161368 2.37969e-06 1.47155e-06
0.0161363 5.33505e-07 7.90661e-07
0.0161374 -4.24656e-07 3.83646e-07
0.0161392 -8.43364e-07 1.53259e-07
0.0161411 -9.54322e-07 3.1478e-08
0.0161429 -9.04726e-07 -2.65501e-08
0.0161444 -7.83603e-07 -4.90521e-08
0.0161457 -6.41659e-07 -5.30626e-08
0.0161466 -5.05405e-07 -4.84302e-08
0.0161473 -3.86782e-07 -4.05674e-08
0.0161479 -2.89454e-07 -3.22482e-08
0.0161482 -2.12759e-07 -2.47397e-08
0.0161485 -1.5408e-07 -1.84904e-08
0.0161487 -1.1019e-07 -1.35396e-08
0.0161489 -7.79529e-08 -9.74778e-09
0.016149 -5.4643e-08 -6.91564e-09
0.016149 -3.8034e-08 -4.81436e-09
0.0161491 -2.63877e-08 -3.14893e-09
0.0161491 -1.84486e-08 -1.20417e-09
0.0161491 -1.42611e-08 1.76457e-09
0.0161492 -2.28229e-08 3.62123e-10
0.0161492 -3.24056e-08 -2.83084e-09
0.01 -1.36282e-07 -1.45862e-06
0.0100007 -0.00298315 -0.000597647
0.0147876 -0.00997117 -0.00079234
0.0242017 -0.0177775 -0.00122517
0.038656 -0.0326813 -0.00333057
0.0593855 -0.0249979 -0.000808839
0.0566002 -0.00278713 0.00319702
0.056033 0.00504591 0.00339396
0.0502655 0.0099994 0.00300388
0.0448261 0.0101197 0.00212783
0.0403611 0.00900539 0.00121288
0.0366901 0.00755957 0.00049623
0.0337556 0.00609035 -7.10623e-06
0.031502 0.00477636 -0.000311389
0.0297746 0.00370016 -0.000439024
0.0284232 0.00285562 -0.000436733
0.0273444 0.00219618 -0.000359271
0.0264789 0.00167594 -0.000253941
0.0257945 0.00126254 -0.000153484
0.0252689 0.000935189 -7.49239e-05
0.0248804 0.000679218 -2.25845e-05
0.0246048 0.000482435 6.88704e-06
0.024418 0.000333983 1.98658e-05
0.0242978 0.000224331 2.27204e-05
0.0242253 0.000145322 2.0412e-05
0.0241856 9.00426e-05 1.61908e-05
0.0241671 5.26719e-05 1.18547e-05
0.0241614 2.83872e-05 8.19619e-06
0.0241629 1.33191e-05 5.42222e-06
0.0241678 4.48888e-06 3.45947e-06
0.0241738 -2.95438e-07 2.13745e-06
0.0241797 -2.57625e-06 1.28008e-06
0.024185 -3.39259e-06 7.41441e-07
0.0241894 -3.41462e-06 4.12791e-07
0.0241928 -3.05481e-06 2.18129e-07
0.0241955 -2.55344e-06 1.06588e-07
0.0241975 -2.04064e-06 4.52224e-08
0.024199 -1.57913e-06 1.32782e-08
0.0242001 -1.19258e-06 -1.98635e-09
0.0242008 -8.83604e-07 -8.18752e-09
0.0242014 -6.44685e-07 -9.74473e-09
0.0242018 -4.64471e-07 -9.13001e-09
0.024202 -3.3115e-07 -7.66897e-09
0.0242022 -2.34068e-07 -6.03485e-09
0.0242023 -1.64345e-07 -4.53495e-09
0.0242024 -1.1499e-07 -3.22143e-09
0.0242025 -8.07801e-08 -1.84342e-09
0.0242025 -5.96227e-08 1.97939e-10
0.0242026 -5.2488e-08 3.14451e-09
0.0242026 -6.72309e-08 -2.24392e-09
0.0242026 -8.1823e-08 -9.29681e-09
0.0148 -9.5958e-07 -1.75276e-06
0.0148024 -0.00530175 -0.00112365
0.0204144 -0.0164688 -0.00244974
0.0276353 -0.02896 -0.00394485
0.0323186 -0.0464147 -0.00578289
0.0307638 -0.0286415 -0.00142374
0.0269429 -1.24018e-05 0.00331466
0.0263767 0.00704051 0.00352899
0.029856 0.0143312 0.00343425
0.0302089 0.013688 0.00247781
0.0294388 0.0118484 0.00153969
0.0286369 0.00996238 0.000730327
0.0280422 0.00808831 0.000144541
0.0277499 0.00639772 -0.000212123
0.027632 0.00501936 -0.000362265
0.027582 0.00392361 -0.000369329
0.0275525 0.00303892 -0.000299608
0.0275334 0.00231239 -0.000203435
0.027529 0.00171694 -0.000112198
0.0275434 0.00123942 -4.11584e-05
0.0275757 0.00086855 5.79965e-06
0.0276214 0.00058989 3.13449e-05
0.0276746 0.000386742 4.09436e-05
0.02773 0.000242765 4.04399e-05
0.0277837 0.000143726 3.47364e-05
0.0278328 7.79642e-05 2.72777e-05
0.0278757 3.62002e-05 2.00828e-05
0.0279117 1.11849e-05 1.40744e-05
0.0279408 -2.60198e-06 9.48219e-06
0.0279636 -9.22003e-06 6.18039e-06
0.027981 -1.15289e-05 3.91173e-06
0.0279939 -1.14488e-05 2.40792e-06
0.0280034 -1.02029e-05 1.44097e-06
0.0280101 -8.52382e-06 8.36132e-07
0.0280149 -6.8172e-06 4.67855e-07
0.0280183 -5.28213e-06 2.49837e-07
0.0280206 -3.99496e-06 1.24769e-07
0.0280221 -2.96447e-06 5.5688e-08
0.0280232 -2.16633e-06 1.9385e-08
0.028024 -1.56337e-06 1.66013e-09
0.0280244 -1.1166e-06 -5.94289e-09
0.0280248 -7.90678e-07 -8.30938e-09
0.028025 -5.55921e-07 -8.17136e-09
0.0280252 -3.8867e-07 -7.00051e-09
0.0280253 -2.70737e-07 -5.51334e-09
0.0280253 -1.88826e-07 -3.98067e-09
0.0280254 -1.33759e-07 -2.18704e-09
0.0280254 -1.00691e-07 -1.77428e-10
0.0280254 -8.86643e-08 2.09448e-11
0.0280255 -9.23226e-08 -1.00626e-08
0.0280255 -9.66947e-08 -1.93667e-08
0.018 -1.93659e-06 -1.69683e-06
0.018003 -0.00702329 -0.00187254
0.0208042 -0.0190867 -0.00492796
0.0207719 -0.0251412 -0.00635561
0.0161187 -0.0271523 -0.00764407
-1.61213e-06 -0.0140842 -0.00434489
9.71701e-05 2.59685e-05 9.3179e-07
-3.30506e-05 3.43944e-05 0.000655574
0.00654689 0.00402789 0.00144693
0.0133303 0.00908948 0.00142203
0.0167115 0.00979343 0.00102113
0.0185082 0.00875699 0.000499522
0.0202292 0.0072113 2.68537e-05
0.021934 0.00567606 -0.000243523
0.0234525 0.0044396 -0.000328008
0.0247198 0.00345901 -0.000300792
0.025749 0.00264924 -0.000224974
0.0265809 0.00196499 -0.000140123
0.0272554 0.00139573 -6.63394e-05
0.0278023 0.00094236 -1.11121e-05
0.0282421 0.000600444 2.48439e-05
0.0285909 0.000356056 4.39704e-05
0.028863 0.000189785 5.01098e-05
0.0290718 8.20581e-05 4.75641e-05
0.0292298 1.62259e-05 4.03328e-05
0.0293476 -2.06901e-05 3.15268e-05
0.029434 -3.84137e-05 2.3132e-05
0.0294965 -4.40658e-05 1.61222e-05
0.0295408 -4.27144e-05 1.07598e-05
0.0295717 -3.78115e-05 6.91144e-06
0.0295929 -3.15663e-05 4.28389e-06
0.0296072 -2.52776e-05 2.56245e-06
0.0296167 -1.9617e-05 1.47503e-06
0.0296229 -1.48564e-05 8.11432e-07
0.0296268 -1.10336e-05 4.2048e-07
0.0296294 -8.06584e-06 1.98951e-07
0.029631 -5.82043e-06 7.92076e-08
0.029632 -4.15548e-06 1.84981e-08
0.0296326 -2.94065e-06 -9.31148e-09
0.029633 -2.06572e-06 -1.96717e-08
0.0296333 -1.44228e-06 -2.13961e-08
0.0296334 -1.00193e-06 -1.93028e-08
0.0296335 -6.93221e-07 -1.58861e-08
0.0296335 -4.78277e-07 -1.23516e-08
0.0296336 -3.29782e-07 -9.15777e-09
0.0296336 -2.28543e-07 -6.45712e-09
0.0296336 -1.61505e-07 -4.13969e-09
0.0296336 -1.1905e-07 -2.52503e-09
0.0296336 -9.52466e-08 -6.00604e-09
0.0296336 -7.46333e-08 -1.78753e-08
0.0296336 -6.16475e-08 -2.57591e-08
0.0196 -2.81972e-06 -2.55851e-06
0.019601 -0.00594064 -0.00274351
0.0190504 -0.0132612 -0.00648951
0.0159188 -0.0163223 -0.00670423
0.0108398 -0.0153163 -0.00669934
0.00169198 -0.0063174 -0.00504936
7.2286e-05 -6.63606e-05 -0.00130581
3.331e-05 -3.331e-05 -4.24831e-08
-3.24446e-05 3.36566e-05 0.000265282
0.00384754 0.00266672 0.000569398
0.00875158 0.00617364 0.00050404
0.0116337 0.00634334 0.000157284
0.014869 0.0049005 -0.000226545
0.0180118 0.00359554 -0.000401036
0.0207015 0.0026912 -0.000407153
0.022877 0.00202634 -0.000331037
0.0246024 0.00147501 -0.000232622
0.025965 0.000995249 -0.000143005
0.0270374 0.00059315 -7.29734e-05
0.0278725 0.000283554 -2.29242e-05
0.0285107 6.89026e-05 9.96429e-06
0.0289867 -6.32128e-05 2.87209e-05
0.0293327 -0.000132841 3.63266e-05
0.029578 -0.000160066 3.60156e-05
0.029748 -0.000161059 3.1071e-05
0.0298632 -0.000147391 2.42824e-05
0.0299395 -0.000126824 1.75581e-05
0.029989 -0.000104316 1.18963e-05
0.0300202 -8.28264e-05 7.60782e-06
0.0300393 -6.39088e-05 4.60437e-06
0.0300506 -4.81641e-05 2.63001e-06
0.0300571 -3.55977e-05 1.40243e-06
0.0300606 -2.58893e-05 6.79117e-07
0.0300624 -1.85798e-05 2.76983e-07
0.0300632 -1.31889e-05 6.89329e-08
0.0300634 -9.27866e-06 -2.78337e-08
0.0300634 -6.48015e-06 -6.44645e-08
0.0300633 -4.4988e-06 -7.1011e-08
0.0300632 -3.10816e-06 -6.42282e-08
0.030063 -2.13895e-06 -5.28982e-08
0.0300629 -1.46728e-06 -4.12474e-08
0.0300628 -1.00398e-06 -3.10288e-08
0.0300628 -6.85701e-07 -2.27394e-08
0.0300627 -4.67908e-07 -1.63243e-08
0.0300627 -3.196e-07 -1.1506e-08
0.0300626 -2.19134e-07 -8.05227e-09
0.0300626 -1.51229e-07 -5.87701e-09
0.0300626 -1.03394e-07 -4.90419e-09
0.0300626 -6.59082e-08 -1.02683e-08
0.0300625 -2.19496e-08 -2.01087e-08
0.0300625 4.96555e-09 -2.43899e-08
0.0196 -1.35996e-06 -3.57703e-06
0.0195999 -0.00370577 -0.00312885
0.018746 -0.0081489 -0.00653128
0.017487 -0.00820351 -0.00606108
0.0131414 -0.00438801 -0.00554633
0.00903838 0.00249278 -0.00534249
0.00613089 0.00312177 -0.00313361
7.24677e-05 -6.02534e-05 -0.000682545
2.78088e-05 -2.78088e-05 -1.27422e-07
-3.19015e-05 3.29877e-05 9.83373e-05
0.00261699 0.00179405 0.000375888
0.00680137 0.00270053 0.000280205
0.0119997 0.00116214 -0.000164131
0.0165929 0.000288122 -0.000378219
0.0201722 1.26488e-05 -0.000398868
0.0228538 -7.57452e-05 -0.000326944
0.024853 -0.000167403 -0.000232853
0.0263452 -0.000289448 -0.000150893
0.0274499 -0.000406095 -8.99861e-05
0.0282495 -0.000481444 -4.75814e-05
0.0288075 -0.00050274 -1.909e-05
0.0291791 -0.000477968 -1.22299e-06
0.0294132 -0.00042415 8.29993e-06
0.0295515 -0.000357676 1.16661e-05
0.0296266 -0.000290144 1.11626e-05
0.0296626 -0.000228217 8.81914e-06
0.0296759 -0.000174963 6.0692e-06
0.029677 -0.00013122 3.68795e-06
0.0296724 -9.65602e-05 1.9461e-06
0.0296657 -6.99027e-05 8.23513e-07
0.0296589 -4.99088e-05 1.81084e-07
0.0296529 -3.52261e-05 -1.37426e-07
0.029648 -2.46308e-05 -2.60678e-07
0.0296441 -1.70936e-05 -2.78951e-07
0.0296412 -1.17929e-05 -2.48784e-07
0.029639 -8.09849e-06 -2.02159e-07
0.0296374 -5.5416e-06 -1.55199e-07
0.0296363 -3.78145e-06 -1.14722e-07
0.0296355 -2.57474e-06 -8.25968e-08
0.0296349 -1.75004e-06 -5.83643e-08
0.0296345 -1.18781e-06 -4.06912e-08
0.0296342 -8.05282e-07 -2.80888e-08
0.0296341 -5.45466e-07 -1.92375e-08
0.0296339 -3.69191e-07 -1.31147e-08
0.0296338 -2.4943e-07 -8.99273e-09
0.0296338 -1.67118e-07 -6.39502e-09
0.0296337 -1.08344e-07 -5.16853e-09
0.0296337 -6.16604e-08 -4.77991e-09
0.0296336 -1.65916e-08 -9.28773e-09
0.0296336 3.84665e-08 -1.5021e-08
0.0296335 7.01616e-08 -1.61239e-08
0.018 -8.63941e-07 -3.57294e-06
0.0180009 -0.00201994 -0.00305229
0.0183092 -0.00391522 -0.00616977
0.0183548 -0.00273778 -0.00529263
0.0173271 0.000542684 -0.0041894
0.0170369 0.00700296 -0.00396597
0.0177677 0.0125417 -0.00302348
0.0109043 0.00692309 -0.00151933
7.39264e-05 -4.65805e-05 -0.000443755
-2.49512e-05 -5.43091e-05 5.57534e-07
7.92167e-06 -0.000779724 0.000760597
0.00817665 -0.00306129 0.00110846
0.0153584 -0.00464548 0.000454659
0.0202341 -0.00420353 0.000106995
0.0233445 -0.00318173 -3.7994e-05
0.0253402 -0.00231455 -8.62495e-05
0.0266476 -0.00174723 -9.36461e-05
0.0275034 -0.00140215 -8.67648e-05
0.0280403 -0.00117123 -7.55998e-05
0.0283442 -0.000982639 -6.26403e-05
0.0284819 -0.000807469 -4.87727e-05
0.0285096 -0.000643567 -3.54108e-05
0.0284732 -0.000497716 -2.40937e-05
0.0284065 -0.000375263 -1.56382e-05
0.0283318 -0.000277289 -9.95013e-06
0.0282617 -0.000201643 -6.39403e-06
0.028202 -0.000144723 -4.23985e-06
0.0281543 -0.000102726 -2.91444e-06
0.0281177 -7.22287e-05 -2.05494e-06
0.0280905 -5.03827e-05 -1.46224e-06
0.0280709 -3.49157e-05 -1.03558e-06
0.0280569 -2.4072e-05 -7.23617e-07
0.0280471 -1.65298e-05 -4.96785e-07
0.0280403 -1.13162e-05 -3.34693e-07
0.0280356 -7.72892e-06 -2.21393e-07
0.0280324 -5.26911e-06 -1.43986e-07
0.0280302 -3.58659e-06 -9.22342e-08
0.0280287 -2.43791e-06 -5.83073e-08
0.0280276 -1.65488e-06 -3.64473e-08
0.0280269 -1.12182e-06 -2.25702e-08
0.0280265 -7.59387e-07 -1.38697e-08
0.0280261 -5.13242e-07 -8.46797e-09
0.0280259 -3.46109e-07 -5.15026e-09
0.0280258 -2.32279e-07 -3.16749e-09
0.0280257 -1.53782e-07 -2.07623e-09
0.0280256 -9.77043e-08 -1.58806e-09
0.0280255 -5.43136e-08 -1.60936e-09
0.0280255 -1.57487e-08 -1.59771e-09
0.0280255 2.62393e-08 -3.57476e-09
0.0280255 7.54716e-08 -5.74695e-09
0.0280254 1.01698e-07 -5.78572e-09
0.0148 -4.8361e-07 -3.16535e-06
0.0148015 -0.00104367 -0.00283364
0.0162275 -0.00167267 -0.00543468
0.017779 -8.02063e-05 -0.00429425
0.0190778 0.00310851 -0.00305765
0.0207886 0.00730053 -0.00283081
0.0245925 0.0129674 -0.00240893
0.0278834 0.0194954 -0.00153076
0.0229387 0.0112694 -0.000358258
0.0234018 1.76524e-11 0.000618122
0.0265576 -0.00675477 0.00156333
0.0299135 -0.0132016 0.00212765
0.0306007 -0.0111113 0.00165205
0.0299106 -0.0077161 0.0011329
0.0288828 -0.00500529 0.000658221
0.0279519 -0.00323785 0.000299412
0.0272089 -0.00216927 7.60003e-05
0.0266208 -0.00151991 -3.85553e-05
0.0261393 -0.0010974 -8.30413e-05
0.0257338 -0.000797183 -8.86924e-05
0.0253908 -0.000572309 -7.60299e-05
0.0251057 -0.000403541 -5.74364e-05
0.024875 -0.00028036 -3.96376e-05
0.0246939 -0.000193367 -2.54875e-05
0.0245557 -0.000133363 -1.54746e-05
0.0244528 -9.23811e-05 -8.95242e-06
0.0243778 -6.43444e-05 -4.95853e-06
0.0243242 -4.50131e-05 -2.62631e-06
0.0242863 -3.15647e-05 -1.31603e-06
0.02426 -2.21435e-05 -6.05492e-07
0.0242418 -1.55172e-05 -2.35008e-07
0.0242293 -1.08504e-05 -5.19369e-08
0.0242208 -7.56576e-06 3.07462e-08
0.0242149 -5.25849e-06 6.15521e-08
0.024211 -3.64226e-06 6.6969e-08
0.0242083 -2.5138e-06 6.11086e-08
0.0242065 -1.72872e-06 5.1228e-08
0.0242052 -1.18455e-06 4.08523e-08
0.0242044 -8.08773e-07 3.15227e-08
0.0242038 -5.5024e-07 2.37622e-08
0.0242034 -3.72959e-07 1.76027e-08
0.0242032 -2.51658e-07 1.2866e-08
0.024203 -1.68565e-07 9.3014e-09
0.0242029 -1.11107e-07 6.65619e-09
0.0242028 -7.0251e-08 4.71779e-09
0.0242027 -3.93399e-08 3.3466e-09
0.0242027 -1.31965e-08 2.47216e-09
0.0242027 1.19978e-08 2.28584e-09
0.0242027 3.97555e-08 2.21503e-09
0.0242027 6.90008e-08 1.01767e-09
0.0242027 8.32275e-08 2.29968e-11
0.01 -9.26941e-07 -2.86877e-06
0.0100008 -0.000639329 -0.00230786
0.0113163 -0.000726952 -0.00414844
0.0131626 0.000528588 -0.00290492
0.0155659 0.002491 -0.00179302
0.0194263 0.00553637 -0.00179559
0.0253221 0.0083561 -0.00235276
0.034444 0.0101194 -0.00209285
0.0460488 0.00481006 -0.000517599