# vtk DataFile Version 2.0
Tobias Weinzierl: CPU, Manycore and Cluster Computing
ASCII

DATASET STRUCTURED_POINTS
DIMENSIONS  51 11 6

ORIGIN 0 0 0 

SPACING 0.1 0.1 0.1 

POINT_DATA 3366

VECTORS velocity float
0 0 0
-3.64922e-11 0 0
-2.46645e-07 0 0
-3.54182e-07 0 0
-3.62525e-07 0 0
-3.12465e-07 0 0
-3.84571e-07 0 0
-3.91997e-07 0 0
-3.69729e-07 0 0
-3.44287e-07 0 0
-3.3334e-07 0 0
-3.32876e-07 0 0
-3.37381e-07 0 0
-3.43658e-07 0 0
-3.50093e-07 0 0
-3.55879e-07 0 0
-3.60707e-07 0 0
-3.64552e-07 0 0
-3.67529e-07 0 0
-3.69791e-07 0 0
-3.71493e-07 0 0
-3.72766e-07 0 0
-3.73716e-07 0 0
-3.74425e-07 0 0
-3.74955e-07 0 0
-3.75352e-07 0 0
-3.75651e-07 0 0
-3.75877e-07 0 0
-3.76049e-07 0 0
-3.7618e-07 0 0
-3.76281e-07 0 0
-3.76359e-07 0 0
-3.76421e-07 0 0
-3.76469e-07 0 0
-3.76508e-07 0 0
-3.76538e-07 0 0
-3.76563e-07 0 0
-3.76583e-07 0 0
-3.76599e-07 0 0
-3.76613e-07 0 0
-3.76624e-07 0 0
-3.76633e-07 0 0
-3.7664e-07 0 0
-3.76646e-07 0 0
-3.76652e-07 0 0
-3.76656e-07 0 0
-3.76661e-07 0 0
-3.76667e-07 0 0
-3.76678e-07 0 0
-3.76698e-07 0 0
0.00566182 0 0
0 1.32476e-07 0
-7.22055e-11 1.74031e-07 0
-4.27121e-07 2.75627e-07 0
-5.1929e-07 1.23805e-07 0
-4.73048e-07 -1.44794e-08 0
-2.62119e-07 3.2698e-08 0
-4.35308e-07 7.19113e-08 0
-4.29086e-07 -2.24784e-08 0
-3.83021e-07 -4.98453e-08 0
-3.50191e-07 -3.42502e-08 0
-3.63478e-07 -8.57755e-09 0
-3.922e-07 6.13573e-09 0
-4.19246e-07 1.20101e-08 0
-4.4191e-07 1.334e-08 0
-4.60146e-07 1.25104e-08 0
-4.74316e-07 1.07317e-08 0
-4.85025e-07 8.7097e-09 0
-4.92972e-07 6.81933e-09 0
-4.98812e-07 5.21628e-09 0
-5.03086e-07 3.93118e-09 0
-5.06214e-07 2.93553e-09 0
-5.08509e-07 2.1801e-09 0
-5.10199e-07 1.61416e-09 0
-5.11449e-07 1.1933e-09 0
-5.12379e-07 8.81622e-10 0
-5.13075e-07 6.51263e-10 0
-5.13598e-07 4.81149e-10 0
-5.13994e-07 3.55544e-10 0
-5.14296e-07 2.62786e-10 0
-5.14528e-07 1.94264e-10 0
-5.14708e-07 1.43629e-10 0
-5.14849e-07 1.06202e-10 0
-5.14959e-07 7.85304e-11 0
-5.15047e-07 5.80692e-11 0
-5.15118e-07 4.29381e-11 0
-5.15174e-07 3.17483e-11 0
-5.1522e-07 2.34738e-11 0
-5.15258e-07 1.73569e-11 0
-5.15289e-07 1.2839e-11 0
-5.15314e-07 9.50998e-12 0
-5.15335e-07 7.07271e-12 0
-5.15352e-07 5.31889e-12 0
-5.15366e-07 4.11614e-12 0
-5.15378e-07 3.40827e-12 0
-5.15388e-07 3.23697e-12 0
-5.15396e-07 3.80913e-12 0
-5.15404e-07 5.66882e-12 0
-5.15413e-07 9.99864e-12 0
-5.15426e-07 1.8559e-11 0
-5.15449e-07 3.88317e-11 0
0.0119574 -4.29532e-07 0
0 -7.62542e-09 0
-5.57401e-11 2.1765e-07 0
-4.1682e-07 3.40939e-07 0
-3.32535e-07 1.37559e-07 0
-2.69865e-07 -1.48315e-07 0
-3.66534e-07 3.7605e-09 0
-3.5352e-07 1.49293e-07 0
-3.92031e-07 -6.9102e-08 0
8.11036e-09 -7.77707e-08 0
5.95247e-09 -5.24521e-09 0
-5.16581e-08 5.38385e-08 0
-1.15318e-07 6.2983e-08 0
-1.60012e-07 5.35564e-08 0
-1.90722e-07 4.27487e-08 0
-2.1223e-07 3.32035e-08 0
-2.27161e-07 2.51701e-08 0
-2.37435e-07 1.87203e-08 0
-2.44505e-07 1.37533e-08 0
-2.49407e-07 1.00388e-08 0
-2.52847e-07 7.30992e-09 0
-2.55293e-07 5.32383e-09 0
-2.57056e-07 3.8836e-09 0
-2.58342e-07 2.83941e-09 0
-2.5929e-07 2.08098e-09 0
-2.59995e-07 1.52861e-09 0
-2.60525e-07 1.1251e-09 0
-2.60927e-07 8.29476e-10 0
-2.61234e-07 6.12333e-10 0
-2.6147e-07 4.5249e-10 0
-2.61654e-07 3.34622e-10 0
-2.61799e-07 2.47589e-10 0
-2.61913e-07 1.83258e-10 0
-2.62005e-07 1.35673e-10 0
-2.62078e-07 1.00457e-10 0
-2.62138e-07 7.43849e-11 0
-2.62187e-07 5.50787e-11 0
-2.62228e-07 4.07811e-11 0
-2.62261e-07 3.01933e-11 0
-2.62289e-07 2.2356e-11 0
-2.62312e-07 1.65626e-11 0
-2.62331e-07 1.22967e-11 0
-2.62347e-07 9.1886e-12 0
-2.62361e-07 6.98729e-12 0
-2.62371e-07 5.54636e-12 0
-2.6238e-07 4.82067e-12 0
-2.62387e-07 4.86057e-12 0
-2.62392e-07 5.7792e-12 0
-2.62397e-07 7.92273e-12 0
-2.62403e-07 1.34239e-11 0
-2.62411e-07 2.46734e-11 0
0.0126093 -3.46122e-07 0
0 -1.65575e-07 0
-2.13494e-11 1.88597e-07 0
-5.17279e-07 3.04152e-07 0
-2.84698e-07 1.81942e-07 0
-2.0414e-07 1.80958e-07 0
-4.16875e-07 1.14569e-07 0
-3.02749e-07 2.20153e-11 0
-3.54947e-07 -4.47116e-07 0
-4.32584e-07 -4.56562e-07 0
-1.85199e-07 5.32454e-08 0
-1.45487e-07 1.35049e-07 0
-1.59603e-07 1.26326e-07 0
-1.82282e-07 9.31341e-08 0
-2.01391e-07 6.80296e-08 0
-2.15337e-07 4.98417e-08 0
-2.24774e-07 3.61424e-08 0
-2.31048e-07 2.59958e-08 0
-2.35282e-07 1.865e-08 0
-2.38219e-07 1.34018e-08 0
-2.40315e-07 9.66756e-09 0
-2.41847e-07 7.00619e-09 0
-2.42985e-07 5.10077e-09 0
-2.43841e-07 3.72883e-09 0
-2.44491e-07 2.73536e-09 0
-2.44988e-07 2.01222e-09 0
-2.4537e-07 1.4835e-09 0
-2.45666e-07 1.09553e-09 0
-2.45897e-07 8.10018e-10 0
-2.46078e-07 5.99442e-10 0
-2.46222e-07 4.43877e-10 0
-2.46337e-07 3.28814e-10 0
-2.46429e-07 2.43637e-10 0
-2.46505e-07 1.80546e-10 0
-2.46567e-07 1.33798e-10 0
-2.46618e-07 9.91505e-11 0
-2.46661e-07 7.34684e-11 0
-2.46696e-07 5.44301e-11 0
-2.46726e-07 4.03162e-11 0
-2.46751e-07 2.98536e-11 0
-2.46772e-07 2.21009e-11 0
-2.4679e-07 1.63644e-11 0
-2.46805e-07 1.21382e-11 0
-2.46818e-07 9.06184e-12 0
-2.46828e-07 6.89326e-12 0
-2.46836e-07 5.4974e-12 0
-2.46842e-07 4.86721e-12 0
-2.46847e-07 5.22512e-12 0
-2.46851e-07 7.10303e-12 0
-2.46857e-07 1.10543e-11 0
-2.46864e-07 1.71951e-11 0
0.0126277 -2.3135e-07 0
0 -2.77309e-07 0
6.03223e-12 1.02667e-07 0
-6.40071e-07 1.42325e-07 0
-3.52e-07 1.07358e-07 0
-1.61137e-07 1.57994e-07 0
-6.03552e-12 9.02761e-08 0
3.33617e-10 2.2742e-10 0
-2.70336e-10 2.32858e-10 0
-4.53991e-07 -2.78439e-07 0
-4.76939e-07 -2.91138e-07 0
-2.66311e-07 4.11645e-08 0
-2.39338e-07 1.0985e-07 0
-2.34785e-07 1.00607e-07 0
-2.37144e-07 7.78438e-08 0
-2.39316e-07 5.70328e-08 0
-2.40543e-07 4.07211e-08 0
-2.41342e-07 2.89123e-08 0
-2.42009e-07 2.06176e-08 0
-2.42631e-07 1.48155e-08 0
-2.43209e-07 1.07289e-08 0
-2.43731e-07 7.82123e-09 0
-2.44185e-07 5.73141e-09 0
-2.4457e-07 4.2165e-09 0
-2.44891e-07 3.11086e-09 0
-2.45153e-07 2.29975e-09 0
-2.45368e-07 1.70247e-09 0
-2.45542e-07 1.26146e-09 0
-2.45684e-07 9.35222e-10 0
-2.45801e-07 6.93586e-10 0
-2.45896e-07 5.14465e-10 0
-2.45976e-07 3.81618e-10 0
-2.46043e-07 2.83064e-10 0
-2.46099e-07 2.09942e-10 0
-2.46147e-07 1.55688e-10 0
-2.46187e-07 1.15435e-10 0
-2.46222e-07 8.55712e-11 0
-2.46252e-07 6.3416e-11 0
-2.46277e-07 4.69785e-11 0
-2.46299e-07 3.47806e-11 0
-2.46318e-07 2.57258e-11 0
-2.46334e-07 1.90011e-11 0
-2.46347e-07 1.40069e-11 0
-2.46359e-07 1.03062e-11 0
-2.46368e-07 7.5938e-12 0
-2.46376e-07 5.68483e-12 0
-2.46381e-07 4.52192e-12 0
-2.46386e-07 4.18091e-12 0
-2.46389e-07 4.84704e-12 0
-2.46393e-07 6.52691e-12 0
-2.46399e-07 9.00096e-12 0
0.012628 -1.1566e-07 0
0 -2.28507e-07 0
3.2294e-11 4.66349e-08 0
-7.35061e-07 7.82758e-08 0
-4.73284e-07 3.40712e-08 0
-2.82989e-07 5.26014e-10 0
-1.40771e-07 -1.91143e-09 0
2.96174e-10 -3.13965e-10 0
4.32556e-11 -4.32556e-11 0
-2.72024e-10 2.68706e-10 0
-2.79889e-07 -1.54271e-07 0
-2.97103e-07 -1.06675e-07 0
-3.08597e-07 9.98329e-08 0
-2.92821e-07 9.49338e-08 0
-2.76167e-07 7.38223e-08 0
-2.63537e-07 5.31034e-08 0
-2.55564e-07 3.76153e-08 0
-2.50956e-07 2.69081e-08 0
-2.48401e-07 1.94982e-08 0
-2.47026e-07 1.42741e-08 0
-2.46312e-07 1.05236e-08 0
-2.45962e-07 7.7933e-09 0
-2.4581e-07 5.78656e-09 0
-2.45763e-07 4.30256e-09 0
-2.4577e-07 3.20111e-09 0
-2.45803e-07 2.38196e-09 0
-2.45848e-07 1.77218e-09 0
-2.45897e-07 1.31812e-09 0
-2.45946e-07 9.80037e-10 0
-2.45993e-07 7.28386e-10 0
-2.46037e-07 5.41142e-10 0
-2.46079e-07 4.01881e-10 0
-2.46117e-07 2.98352e-10 0
-2.46152e-07 2.21419e-10 0
-2.46183e-07 1.64272e-10 0
-2.46212e-07 1.21838e-10 0
-2.46238e-07 9.03354e-11 0
-2.46262e-07 6.69526e-11 0
-2.46282e-07 4.95958e-11 0
-2.46301e-07 3.67072e-11 0
-2.46317e-07 2.71277e-11 0
-2.46331e-07 1.99943e-11 0
-2.46343e-07 1.46642e-11 0
-2.46353e-07 1.06591e-11 0
-2.46362e-07 7.62664e-12 0
-2.46369e-07 5.31639e-12 0
-2.46374e-07 3.56637e-12 0
-2.46378e-07 2.29017e-12 0
-2.4638e-07 1.43479e-12 0
-2.46383e-07 8.41449e-13 0
-2.46389e-07 2.96662e-13 0
0.012628 3.50262e-11 0
0 -1.45887e-07 0
4.20324e-11 -1.22661e-08 0
-7.33565e-07 -6.43985e-09 0
-4.72912e-07 -5.0635e-09 0
-3.38867e-07 -1.63128e-08 0
-2.60238e-07 -1.42215e-07 0
-2.13762e-07 -1.36793e-07 0
2.96223e-10 -3.31874e-10 0
5.94222e-11 -5.94222e-11 0
-2.62318e-10 2.81765e-10 0
-1.54764e-07 6.64686e-08 0
-4.3906e-07 1.09905e-07 0
-3.67399e-07 7.27773e-08 0
-3.06688e-07 5.00317e-08 0
-2.77883e-07 3.62633e-08 0
-2.63876e-07 2.75136e-08 0
-2.56573e-07 2.11492e-08 0
-2.52532e-07 1.62309e-08 0
-2.5018e-07 1.23996e-08 0
-2.48748e-07 9.42847e-09 0
-2.47846e-07 7.13904e-09 0
-2.47261e-07 5.38565e-09 0
-2.46875e-07 4.05014e-09 0
-2.46619e-07 3.03777e-09 0
-2.46448e-07 2.27346e-09 0
-2.46337e-07 1.69838e-09 0
-2.46267e-07 1.26688e-09 0
-2.46225e-07 9.43847e-10 0
-2.46204e-07 7.02469e-10 0
-2.46197e-07 5.2238e-10 0
-2.462e-07 3.88186e-10 0
-2.4621e-07 2.88293e-10 0
-2.46223e-07 2.13997e-10 0
-2.46239e-07 1.58778e-10 0
-2.46256e-07 1.1776e-10 0
-2.46273e-07 8.73038e-11 0
-2.4629e-07 6.46951e-11 0
-2.46305e-07 4.79113e-11 0
-2.4632e-07 3.54455e-11 0
-2.46333e-07 2.61742e-11 0
-2.46345e-07 1.92576e-11 0
-2.46356e-07 1.40641e-11 0
-2.46366e-07 1.01125e-11 0
-2.46374e-07 7.02614e-12 0
-2.4638e-07 4.49696e-12 0
-2.46385e-07 2.25679e-12 0
-2.46388e-07 6.13799e-14 0
-2.46391e-07 -2.31461e-12 0
-2.46394e-07 -5.0963e-12 0
-2.464e-07 -8.50137e-12 0
0.012628 1.1572e-07 0
0 -9.54219e-08 0
1.42854e-11 -6.66984e-08 0
-6.67544e-07 -8.42596e-08 0
-4.49991e-07 -3.2328e-08 0
-3.42673e-07 -5.35106e-08 0
-2.94752e-07 -7.15697e-08 0
-3.44602e-07 -2.43212e-07 0
-2.63292e-07 -2.10398e-07 0
3.01149e-10 -3.62622e-10 0
-2.13669e-10 -4.13433e-10 0
3.61732e-11 3.28404e-07 0
-6.2685e-07 3.16613e-07 0
-4.3016e-07 -2.55074e-08 0
-3.10271e-07 -1.00389e-08 0
-2.74888e-07 1.17375e-08 0
-2.63112e-07 1.62978e-08 0
-2.57746e-07 1.52436e-08 0
-2.54594e-07 1.27969e-08 0
-2.52461e-07 1.02505e-08 0
-2.50922e-07 8.00586e-09 0
-2.49782e-07 6.15737e-09 0
-2.48932e-07 4.68826e-09 0
-2.48299e-07 3.54504e-09 0
-2.47831e-07 2.66742e-09 0
-2.47487e-07 1.99987e-09 0
-2.47239e-07 1.49536e-09 0
-2.47061e-07 1.11586e-09 0
-2.46938e-07 8.3137e-10 0
-2.46854e-07 6.18648e-10 0
-2.468e-07 4.59906e-10 0
-2.46767e-07 3.41625e-10 0
-2.46749e-07 2.53601e-10 0
-2.46743e-07 1.88155e-10 0
-2.46744e-07 1.39535e-10 0
-2.4675e-07 1.03436e-10 0
-2.46758e-07 7.6645e-11 0
-2.46769e-07 5.67673e-11 0
-2.4678e-07 4.20177e-11 0
-2.46791e-07 3.10666e-11 0
-2.46802e-07 2.29223e-11 0
-2.46812e-07 1.68413e-11 0
-2.46822e-07 1.22603e-11 0
-2.4683e-07 8.73981e-12 0
-2.46838e-07 5.91627e-12 0
-2.46844e-07 3.45382e-12 0
-2.46849e-07 9.96077e-13 0
-2.46853e-07 -1.86856e-12 0
-2.46856e-07 -5.58093e-12 0
-2.46861e-07 -1.05055e-11 0
-2.46867e-07 -1.70552e-11 0
0.0126277 2.31366e-07 0
0 -9.57177e-08 0
-2.89629e-11 -1.02648e-07 0
-5.569e-07 -1.34676e-07 0
-4.15491e-07 -4.27675e-08 0
-3.41005e-07 -2.05454e-08 0
-3.50775e-07 -7.42326e-08 0
-3.93967e-07 -1.40688e-07 0
-5.87186e-07 -3.37374e-07 0
-5.57556e-07 -2.61113e-07 0
-3.38859e-07 -1.09186e-11 0
-1.63167e-07 6.65806e-07 0
-5.21787e-08 5.23165e-07 0
-1.81023e-07 -2.2542e-07 0
-2.451e-07 -9.46908e-08 0
-2.66143e-07 -7.38618e-09 0
-2.71884e-07 1.12572e-08 0
-2.72429e-07 1.27392e-08 0
-2.71261e-07 1.08574e-08 0
-2.69654e-07 8.60176e-09 0
-2.68089e-07 6.62405e-09 0
-2.66733e-07 5.03028e-09 0
-2.65625e-07 3.78956e-09 0
-2.6475e-07 2.84061e-09 0
-2.64077e-07 2.12227e-09 0
-2.63568e-07 1.58199e-09 0
-2.63189e-07 1.17735e-09 0
-2.62912e-07 8.75172e-10 0
-2.62712e-07 6.49962e-10 0
-2.6257e-07 4.82363e-10 0
-2.62472e-07 3.57774e-10 0
-2.62407e-07 2.65238e-10 0
-2.62365e-07 1.96556e-10 0
-2.6234e-07 1.45608e-10 0
-2.62328e-07 1.07831e-10 0
-2.62323e-07 7.98325e-11 0
-2.62325e-07 5.90856e-11 0
-2.6233e-07 4.37139e-11 0
-2.62337e-07 3.23229e-11 0
-2.62345e-07 2.38757e-11 0
-2.62354e-07 1.76001e-11 0
-2.62362e-07 1.29174e-11 0
-2.62371e-07 9.38731e-12 0
-2.62378e-07 6.66134e-12 0
-2.62385e-07 4.43855e-12 0
-2.62391e-07 2.41277e-12 0
-2.62396e-07 1.98168e-13 0
-2.62401e-07 -2.77162e-12 0
-2.62407e-07 -7.30272e-12 0
-2.62414e-07 -1.42677e-11 0
-2.62424e-07 -2.52316e-11 0
0.0126092 3.46002e-07 0
0 -1.30376e-07 0
-6.06081e-11 -9.76514e-08 0
-5.24013e-07 -1.24818e-07 0
-5.29231e-07 -3.37934e-08 0
-5.15082e-07 6.2549e-09 0
-5.08396e-07 5.78632e-08 0
-5.45058e-07 4.685e-08 0
-5.83086e-07 -3.39983e-08 0
-8.3695e-07 -2.96749e-07 0
-8.87243e-07 -4.88507e-07 0
-9.51676e-07 -5.14008e-08 0
-3.20344e-07 3.01971e-07 0
-4.64642e-07 1.84379e-07 0
-5.43333e-07 8.64209e-08 0
-5.52832e-07 4.25827e-08 0
-5.47339e-07 2.37366e-08 0
-5.40329e-07 1.48363e-08 0
-5.34292e-07 9.96343e-09 0
-5.29514e-07 6.94857e-09 0
-5.25843e-07 4.94198e-09 0
-5.23066e-07 3.55428e-09 0
-5.20983e-07 2.57466e-09 0
-5.19434e-07 1.87455e-09 0
-5.18287e-07 1.37001e-09 0
-5.17442e-07 1.00414e-09 0
-5.16825e-07 7.37578e-10 0
-5.16376e-07 5.42654e-10 0
-5.16052e-07 3.99716e-10 0
-5.1582e-07 2.94679e-10 0
-5.15657e-07 2.17371e-10 0
-5.15544e-07 1.60409e-10 0
-5.15468e-07 1.18404e-10 0
-5.15418e-07 8.74119e-11 0
-5.15387e-07 6.4537e-11 0
-5.15369e-07 4.76487e-11 0
-5.1536e-07 3.51777e-11 0
-5.15358e-07 2.59664e-11 0
-5.1536e-07 1.916e-11 0
-5.15364e-07 1.41263e-11 0
-5.1537e-07 1.03968e-11 0
-5.15376e-07 7.62174e-12 0
-5.15383e-07 5.53582e-12 0
-5.15389e-07 3.92918e-12 0
-5.15396e-07 2.6184e-12 0
-5.15401e-07 1.4084e-12 0
-5.15407e-07 2.12293e-14 0
-5.15412e-07 -2.06553e-12 0
-5.1542e-07 -5.97088e-12 0
-5.15433e-07 -1.40731e-11 0
-5.15456e-07 -3.67666e-11 0
0.0119574 4.29023e-07 0
0 0 0
-3.4453e-11 0 0
-2.77016e-07 0 0
-3.29374e-07 0 0
-3.44533e-07 0 0
-3.32894e-07 0 0
-2.81935e-07 0 0
-2.5918e-07 0 0
-2.79419e-07 0 0
-5.4834e-07 0 0
-7.88468e-07 0 0
-6.28823e-07 0 0
-5.08551e-07 0 0
-4.4976e-07 0 0
-4.21076e-07 0 0
-4.05763e-07 0 0
-3.96619e-07 0 0
-3.90682e-07 0 0
-3.86632e-07 0 0
-3.83793e-07 0 0
-3.81775e-07 0 0
-3.80326e-07 0 0
-3.79282e-07 0 0
-3.78527e-07 0 0
-3.7798e-07 0 0
-3.77585e-07 0 0
-3.77299e-07 0 0
-3.77094e-07 0 0
-3.76948e-07 0 0
-3.76844e-07 0 0
-3.76772e-07 0 0
-3.76722e-07 0 0
-3.76689e-07 0 0
-3.76667e-07 0 0
-3.76654e-07 0 0
-3.76646e-07 0 0
-3.76643e-07 0 0
-3.76642e-07 0 0
-3.76643e-07 0 0
-3.76645e-07 0 0
-3.76648e-07 0 0
-3.7665e-07 0 0
-3.76653e-07 0 0
-3.76656e-07 0 0
-3.76659e-07 0 0
-3.76662e-07 0 0
-3.76664e-07 0 0
-3.76669e-07 0 0
-3.76677e-07 0 0
-3.76695e-07 0 0
0.00566184 0 0
0 0 9.9629e-08
-6.33561e-11 0 7.25382e-08
-4.53376e-07 0 7.84417e-08
-5.34666e-07 0 -8.00185e-09
-4.4735e-07 0 -2.73141e-08
-2.40311e-07 0 -1.07283e-08
-3.47294e-07 0 7.54478e-09
-3.49608e-07 0 7.56058e-09
-3.30584e-07 0 2.06043e-09
-3.22847e-07 0 -2.21408e-09
-3.43474e-07 0 -2.90877e-09
-3.75483e-07 0 -2.16914e-09
-4.06866e-07 0 -1.30208e-09
-4.33404e-07 0 -7.00294e-10
-4.54491e-07 0 -3.5917e-10
-4.70622e-07 0 -1.86351e-10
-4.82645e-07 0 -1.03184e-10
-4.91457e-07 0 -6.27758e-11
-4.97856e-07 0 -4.16821e-11
-5.02487e-07 0 -2.93607e-11
-5.05839e-07 0 -2.13338e-11
-5.08274e-07 0 -1.57029e-11
-5.10051e-07 0 -1.16008e-11
-5.11355e-07 0 -8.56849e-12
-5.1232e-07 0 -6.31962e-12
-5.13037e-07 0 -4.65365e-12
-5.13574e-07 0 -3.42245e-12
-5.1398e-07 0 -2.51474e-12
-5.14289e-07 0 -1.84684e-12
-5.14525e-07 0 -1.35612e-12
-5.14708e-07 0 -9.95968e-13
-5.14851e-07 0 -7.31839e-13
-5.14964e-07 0 -5.38237e-13
-5.15053e-07 0 -3.96399e-13
-5.15124e-07 0 -2.92557e-13
-5.15181e-07 0 -2.16658e-13
-5.15228e-07 0 -1.61415e-13
-5.15266e-07 0 -1.21646e-13
-5.15297e-07 0 -9.38141e-14
-5.15322e-07 0 -7.5737e-14
-5.15343e-07 0 -6.63282e-14
-5.15361e-07 0 -6.50416e-14
-5.15375e-07 0 -6.98775e-14
-5.15387e-07 0 -7.03568e-14
-5.15397e-07 0 -2.44242e-14
-5.15406e-07 0 2.1275e-13
-5.15415e-07 0 1.08483e-12
-5.15424e-07 0 3.70574e-12
-5.15438e-07 0 9.90666e-12
-5.15462e-07 0 2.71852e-11
0.0119574 0 -3.21745e-07
0.0036 1.98355e-07 1.03553e-07
0.00359964 -0.00528435 -0.00269208
0.0144842 -0.00973746 -0.00429376
0.0242664 -0.00867953 -0.00247868
0.0339127 -0.00808057 -0.00136344
0.0443881 -0.00492984 -0.000701508
0.0460383 -0.000728096 -0.000321114
0.0455169 0.00226374 -0.000160983
0.0401949 0.00405261 -9.52919e-05
0.0352656 0.00392497 -6.42373e-05
0.0314105 0.00308391 -3.71441e-05
0.0287745 0.00214937 -2.01279e-05
0.0271219 0.00137772 -1.05436e-05
0.0261504 0.000826124 -5.39064e-06
0.0256129 0.000465495 -2.71837e-06
0.025336 0.000244629 -1.37103e-06
0.0252072 0.00011678 -7.01566e-07
0.0251581 4.6855e-05 -3.6858e-07
0.0251487 1.1104e-05 -2.0038e-07
0.0251573 -5.4612e-06 -1.1314e-07
0.0251724 -1.18092e-05 -6.63608e-08
0.0251883 -1.30663e-05 -4.0352e-08
0.0252027 -1.20358e-05 -2.53568e-08
0.0252148 -1.01755e-05 -1.64059e-08
0.0252244 -8.19453e-06 -1.08878e-08
0.0252319 -6.40142e-06 -7.3843e-09
0.0252376 -4.90069e-06 -5.1007e-09
0.0252419 -3.69994e-06 -3.57762e-09
0.0252452 -2.7661e-06 -2.5416e-09
0.0252475 -2.05341e-06 -1.82518e-09
0.0252493 -1.51655e-06 -1.32302e-09
0.0252506 -1.11585e-06 -9.67169e-10
0.0252515 -8.18758e-07 -7.12835e-10
0.0252522 -5.99537e-07 -5.29913e-10
0.0252527 -4.38354e-07 -3.97918e-10
0.0252531 -3.20161e-07 -3.0288e-10
0.0252534 -2.33674e-07 -2.35472e-10
0.0252536 -1.70508e-07 -1.90006e-10
0.0252537 -1.24477e-07 -1.64164e-10
0.0252538 -9.10595e-08 -1.59637e-10
0.0252539 -6.69974e-08 -1.84303e-10
0.025254 -5.00256e-08 -2.57886e-10
0.025254 -3.87199e-08 -4.26804e-10
0.025254 -3.24926e-08 -8.06439e-10
0.0252541 -3.18224e-08 -1.71228e-09
0.0252541 -3.8973e-08 -4.10126e-09
0.0252541 -6.00475e-08 -1.11971e-08
0.0252542 -1.11973e-07 -3.52142e-08
0.0252544 -2.51051e-07 -1.26978e-07
0.0252546 -6.31177e-07 -4.40265e-07
0.0252551 -9.09077e-07 -6.80491e-07
0.01 1.89118e-07 1.32373e-07
0.0100001 -0.00833559 -0.00480355
0.0180592 -0.0163622 -0.00739055
0.0259695 -0.0166203 -0.00383104
0.0351654 -0.0184517 -0.00187454
0.0525271 -0.0111848 -0.000804829
0.051771 -0.000629938 -0.000257894
0.0522996 0.00611177 -0.000121957
0.0420967 0.0103963 -8.76302e-05
0.0353435 0.00886486 -8.06505e-05
0.0312349 0.00653429 -4.75766e-05
0.0288112 0.0043113 -2.40861e-05
0.0275181 0.00263588 -1.19655e-05
0.0268744 0.00151511 -5.74507e-06
0.0265828 0.00081749 -2.65771e-06
0.0264725 0.000407267 -1.19472e-06
0.0264491 0.000178787 -5.27567e-07
0.0264632 5.89767e-05 -2.31375e-07
0.0264903 9.89157e-07 -1.01903e-07
0.026519 -2.35314e-05 -4.56043e-08
0.0265447 -3.09556e-05 -2.10151e-08
0.026566 -3.03341e-05 -1.0119e-08
0.0265829 -2.64474e-05 -5.16611e-09
0.0265959 -2.16815e-05 -2.82806e-09
0.0266058 -1.71284e-05 -1.6671e-09
0.0266131 -1.32113e-05 -1.05405e-09
0.0266187 -1.0026e-05 -7.07744e-10
0.0266227 -7.52307e-06 -4.98732e-10
0.0266257 -5.59965e-06 -3.64986e-10
0.0266279 -4.14379e-06 -2.75258e-10
0.0266295 -3.05344e-06 -2.12858e-10
0.0266307 -2.24297e-06 -1.68313e-10
0.0266316 -1.64383e-06 -1.3594e-10
0.0266322 -1.20268e-06 -1.12194e-10
0.0266326 -8.78817e-07 -9.48608e-11
0.026633 -6.4159e-07 -8.26888e-11
0.0266332 -4.68134e-07 -7.52876e-11
0.0266334 -3.41512e-07 -7.32864e-11
0.0266335 -2.49264e-07 -7.88427e-11
0.0266336 -1.82288e-07 -9.67965e-11
0.0266337 -1.34033e-07 -1.37221e-10
0.0266337 -9.99275e-08 -2.21405e-10
0.0266338 -7.70597e-08 -3.97275e-10
0.0266338 -6.41318e-08 -7.83414e-10
0.0266338 -6.18206e-08 -1.70665e-09
0.0266339 -7.38771e-08 -4.16833e-09
0.0266339 -1.09593e-07 -1.15675e-08
0.0266339 -1.87439e-07 -3.68159e-08
0.026634 -3.32218e-07 -1.33851e-07
0.026634 -5.78475e-07 -4.64937e-07
0.0266339 -7.32439e-07 -7.1867e-07
0.0148 -1.57359e-07 3.09904e-07
0.0148005 -0.00911501 -0.00658031
0.0200066 -0.0187015 -0.0101346
0.0241296 -0.0215137 -0.00516572
0.0262698 -0.0323142 -0.00241473
0.0281114 -0.0203916 -0.00086028
0.0269333 -2.66544e-06 -8.38794e-05
0.0277081 0.0122118 -4.30497e-05
0.0331795 0.0211537 -3.37319e-05
0.0297483 0.0148697 -3.7348e-05
0.0272923 0.00966047 -3.35408e-05
0.0261479 0.00588916 -2.07778e-05
0.0258157 0.00332635 -1.07401e-05
0.0258538 0.0017675 -4.89514e-06
0.0260108 0.000870514 -1.98738e-06
0.0261774 0.000379906 -7.14581e-07
0.0263161 0.000126808 -2.1356e-07
0.0264207 6.04052e-06 -3.84588e-08
0.0264959 -4.44874e-05 1.17384e-08
0.0265488 -5.97744e-05 1.93987e-08
0.0265857 -5.87417e-05 1.53609e-08
0.0266113 -5.11839e-05 9.87689e-09
0.0266293 -4.1901e-05 5.64759e-09
0.0266419 -3.30532e-05 2.92123e-09
0.0266508 -2.5461e-05 1.32848e-09
0.0266571 -1.93015e-05 4.65343e-10
0.0266616 -1.44706e-05 3.29202e-11
0.0266649 -1.07638e-05 -1.60596e-10
0.0266672 -7.96131e-06 -2.29093e-10
0.0266689 -5.86425e-06 -2.36649e-10
0.0266701 -4.30653e-06 -2.1768e-10
0.026671 -3.15554e-06 -1.89768e-10
0.0266716 -2.30836e-06 -1.61319e-10
0.0266721 -1.68655e-06 -1.35968e-10
0.0266724 -1.23113e-06 -1.1504e-10
0.0266726 -8.98115e-07 -9.89299e-11
0.0266728 -6.54914e-07 -8.79459e-11
0.0266729 -4.77519e-07 -8.295e-11
0.026673 -3.48319e-07 -8.61251e-11
0.0266731 -2.54468e-07 -1.02267e-10
0.0266732 -1.86693e-07 -1.4143e-10
0.0266732 -1.3845e-07 -2.25037e-10
0.0266732 -1.05396e-07 -4.01618e-10
0.0266732 -8.51542e-08 -7.91765e-10
0.0266732 -7.74054e-08 -1.7285e-09
0.0266732 -8.43021e-08 -4.23129e-09
0.0266732 -1.11006e-07 -1.17484e-08
0.0266732 -1.66084e-07 -3.72927e-08
0.0266732 -2.61863e-07 -1.34741e-07
0.0266731 -4.05658e-07 -4.66075e-07
0.026673 -4.89615e-07 -7.1985e-07
0.018 -4.88337e-07 3.05794e-07
0.0180004 -0.00785512 -0.00785757
0.0206792 -0.0161621 -0.0121723
0.0208632 -0.0170428 -0.00615822
0.0159341 -0.0192924 -0.00278762
-5.02236e-08 -0.0105584 -0.000943778
3.29898e-05 1.51638e-05 2.21208e-08
-1.55854e-05 1.71774e-05 -6.75657e-06
0.0122246 0.00844749 -2.0199e-06
0.021181 0.0148068 4.32819e-06
0.0216504 0.0101676 -7.96947e-06
0.0224961 0.00580642 -1.33924e-05
0.0236586 0.00293997 -8.53367e-06
0.024658 0.00132527 -3.64777e-06
0.0253867 0.000496548 -1.18222e-06
0.0258726 0.000103236 -2.23532e-07
0.0261807 -6.38691e-05 6.62622e-08
0.0263707 -0.000120473 1.12172e-07
0.0264864 -0.00012692 8.89363e-08
0.0265567 -0.000113198 5.70599e-08
0.0265996 -9.34688e-05 3.26234e-08
0.0266261 -7.3947e-05 1.70151e-08
0.0266426 -5.69935e-05 7.97859e-09
0.0266531 -4.31889e-05 3.11295e-09
0.0266598 -3.23563e-05 6.77278e-10
0.0266643 -2.40496e-05 -4.25531e-10
0.0266673 -1.77757e-05 -8.36464e-10
0.0266693 -1.30859e-05 -9.11237e-10
0.0266707 -9.6054e-06 -8.38752e-10
0.0266717 -7.03563e-06 -7.14648e-10
0.0266723 -5.14529e-06 -5.84281e-10
0.0266728 -3.75848e-06 -4.66886e-10
0.0266732 -2.7431e-06 -3.68745e-10
0.0266734 -2.00075e-06 -2.90178e-10
0.0266736 -1.4586e-06 -2.29158e-10
0.0266737 -1.06301e-06 -1.83144e-10
0.0266738 -7.74548e-07 -1.50046e-10
0.0266739 -5.64342e-07 -1.28871e-10
0.0266739 -4.1129e-07 -1.20437e-10
0.026674 -3.00017e-07 -1.28636e-10
0.026674 -2.1938e-07 -1.631e-10
0.026674 -1.61395e-07 -2.45442e-10
0.026674 -1.20492e-07 -4.25305e-10
0.026674 -9.30469e-08 -8.25847e-10
0.026674 -7.71194e-08 -1.78446e-09
0.026674 -7.23786e-08 -4.32415e-09
0.026674 -8.01325e-08 -1.18808e-08
0.0266739 -1.03252e-07 -3.74246e-08
0.0266739 -1.46026e-07 -1.34862e-07
0.0266738 -2.08877e-07 -4.66131e-07
0.0266737 -2.44814e-07 -7.19835e-07
0.0196 -4.85476e-07 1.30838e-07
0.0196001 -0.00502181 -0.00851966
0.021004 -0.0100778 -0.0132282
0.0197483 -0.00968947 -0.00662971
0.0147133 -0.00773646 -0.0028633
0.00446413 -0.00310349 -0.0011848
2.62199e-05 -2.43689e-05 -0.000242814
8.78349e-06 -8.78349e-06 -7.5671e-09
-1.50109e-05 1.61599e-05 -2.8924e-06
0.00845126 0.00546696 -1.69354e-06
0.014816 0.00836289 -3.77993e-06
0.0184395 0.00389364 -1.06356e-05
0.0216021 0.00117227 -8.2983e-06
0.0237254 4.36869e-05 -3.51061e-06
0.0250121 -0.000341935 -1.02739e-06
0.0257526 -0.000412967 -1.11712e-07
0.0261679 -0.000370713 1.20449e-07
0.0263976 -0.000299457 1.26954e-07
0.0265236 -0.000230418 8.47934e-08
0.0265925 -0.000172933 4.67363e-08
0.02663 -0.000128056 2.20485e-08
0.0266504 -9.41208e-05 8.2458e-09
0.0266614 -6.88896e-05 1.33122e-09
0.0266673 -5.03033e-05 -1.7132e-09
0.0266705 -3.66827e-05 -2.75673e-09
0.0266722 -2.67302e-05 -2.8502e-09
0.0266731 -1.94698e-05 -2.54694e-09
0.0266736 -1.41782e-05 -2.12108e-09
0.0266738 -1.03235e-05 -1.69808e-09
0.026674 -7.51623e-06 -1.32783e-09
0.026674 -5.47212e-06 -1.02375e-09
0.0266741 -3.98383e-06 -7.83071e-10
0.0266741 -2.90027e-06 -5.96982e-10
0.0266741 -2.11141e-06 -4.55389e-10
0.0266741 -1.53709e-06 -3.49042e-10
0.0266741 -1.11899e-06 -2.7036e-10
0.0266741 -8.14617e-07 -2.13728e-10
0.0266741 -5.93046e-07 -1.75693e-10
0.0266741 -4.31763e-07 -1.55397e-10
0.0266741 -3.1438e-07 -1.55672e-10
0.0266741 -2.28966e-07 -1.85631e-10
0.0266741 -1.66839e-07 -2.66891e-10
0.0266741 -1.21667e-07 -4.49584e-10
0.026674 -8.88104e-08 -8.57504e-10
0.026674 -6.48119e-08 -1.82746e-09
0.026674 -4.69985e-08 -4.37757e-09
0.026674 -3.32078e-08 -1.19317e-08
0.0266739 -2.17767e-08 -3.74418e-08
0.0266739 -1.20444e-08 -1.34849e-07
0.0266738 -3.78811e-09 -4.66109e-07
0.0266736 3.29327e-11 -7.19807e-07
0.0196 -3.17543e-07 -6.30874e-08
0.0196001 -0.00192323 -0.00853412
0.0213224 -0.00381361 -0.0132356
0.0209855 -0.00309466 -0.00662524
0.0179552 -0.000196394 -0.0028076
0.0136522 0.00582882 -0.00135111
0.00866038 0.00482125 -0.000592048
2.63622e-05 -2.23757e-05 -0.000124866
7.36478e-06 -7.36478e-06 -4.47479e-09
-1.45501e-05 1.54716e-05 -1.1749e-06
0.00546797 0.000189462 -1.88935e-06
0.0145056 -0.000970371 -1.15572e-05
0.0205448 -0.00233911 -1.66539e-05
0.0236639 -0.00208073 -7.90731e-06
0.0252096 -0.00152861 -2.72405e-06
0.0259729 -0.00105149 -7.90017e-07
0.0263489 -0.000708277 -1.99653e-07
0.0265325 -0.000475965 -4.74959e-08
0.0266204 -0.000321724 -1.70787e-08
0.0266609 -0.000219489 -1.39086e-08
0.0266781 -0.00015128 -1.40408e-08
0.0266843 -0.000105301 -1.31362e-08
0.0266854 -7.39488e-05 -1.13065e-08
0.0266844 -5.23259e-05 -9.1942e-09
0.0266827 -3.72583e-05 -7.21144e-09
0.0266809 -2.66639e-05 -5.52973e-09
0.0266794 -1.91585e-05 -4.18098e-09
0.0266781 -1.38088e-05 -3.13427e-09
0.0266771 -9.97702e-06 -2.33811e-09
0.0266763 -7.22183e-06 -1.74009e-09
0.0266757 -5.23484e-06 -1.29447e-09
0.0266753 -3.79858e-06 -9.64131e-10
0.026675 -2.75858e-06 -7.20098e-10
0.0266747 -2.00451e-06 -5.40334e-10
0.0266745 -1.45722e-06 -4.08399e-10
0.0266744 -1.05968e-06 -3.12314e-10
0.0266743 -7.70751e-07 -2.43733e-10
0.0266742 -5.60633e-07 -1.97492e-10
0.0266742 -4.07722e-07 -1.71675e-10
0.0266741 -2.963e-07 -1.68501e-10
0.0266741 -2.14881e-07 -1.96803e-10
0.0266741 -1.54976e-07 -2.78188e-10
0.0266741 -1.10154e-07 -4.62944e-10
0.0266741 -7.52731e-08 -8.74902e-10
0.026674 -4.57796e-08 -1.85007e-09
0.026674 -1.70142e-08 -4.40324e-09
0.026674 1.64368e-08 -1.19497e-08
0.026674 6.09453e-08 -3.7429e-08
0.0266739 1.22408e-07 -1.34795e-07
0.0266738 2.01434e-07 -4.6606e-07
0.0266737 2.44875e-07 -7.19783e-07
0.018 -2.17568e-07 -1.96548e-07
0.0180002 0.000601909 -0.00795805
0.0209421 0.00102723 -0.0123017
0.0222855 0.00130682 -0.00615596
0.0217741 0.00332168 -0.00264232
0.0212116 0.0081182 -0.00126152
0.0220184 0.0145214 -0.000661508
0.0140632 0.00884321 -0.000293659
2.69014e-05 -1.785e-05 -6.34476e-05
-1.26104e-05 -1.92101e-05 1.16837e-07
1.64189e-06 -0.00613947 2.5186e-05
0.0147075 -0.0111751 8.56781e-06
0.0223592 -0.00797742 -2.65578e-05
0.0251825 -0.00461575 -1.38073e-05
0.026211 -0.00264825 -5.15599e-06
0.026594 -0.00155092 -1.85386e-06
0.0267289 -0.000929627 -7.12204e-07
0.0267659 -0.000570595 -3.0775e-07
0.0267655 -0.000358586 -1.5131e-07
0.0267524 -0.000230539 -8.278e-08
0.0267369 -0.000151395 -4.87198e-08
0.0267226 -0.000101341 -3.00311e-08
0.0267107 -6.89765e-05 -1.9086e-08
0.0267013 -4.76152e-05 -1.24105e-08
0.0266941 -3.32542e-05 -8.22748e-09
0.0266887 -2.3444e-05 -5.551e-09
0.0266846 -1.66517e-05 -3.80656e-09
0.0266816 -1.18966e-05 -2.6497e-09
0.0266794 -8.53786e-06 -1.86981e-09
0.0266777 -6.14868e-06 -1.33603e-09
0.0266765 -4.43979e-06 -9.65698e-10
0.0266757 -3.21228e-06 -7.05719e-10
0.026675 -2.32766e-06 -5.2142e-10
0.0266746 -1.68855e-06 -3.89817e-10
0.0266742 -1.22595e-06 -2.95522e-10
0.026674 -8.90617e-07 -2.28273e-10
0.0266738 -6.47244e-07 -1.8149e-10
0.0266736 -4.70416e-07 -1.51578e-10
0.0266735 -3.4175e-07 -1.37918e-10
0.0266735 -2.47888e-07 -1.43756e-10
0.0266734 -1.7902e-07 -1.78712e-10
0.0266734 -1.278e-07 -2.64976e-10
0.0266734 -8.84684e-08 -4.53266e-10
0.0266733 -5.60749e-08 -8.67778e-10
0.0266733 -2.56585e-08 -1.8449e-09
0.0266733 8.77308e-09 -4.39926e-09
0.0266733 5.56001e-08 -1.19412e-08
0.0266733 1.2707e-07 -3.73876e-08
0.0266732 2.38755e-07 -1.34653e-07
0.0266732 3.98184e-07 -4.659e-07
0.0266731 4.89655e-07 -7.19676e-07
0.0148 -1.98459e-07 -2.97662e-07
0.0148004 0.00201041 -0.00689262
0.0196209 0.00352325 -0.0106029
0.0228655 0.0031408 -0.00531689
0.0246088 0.0043549 -0.00236732
0.026325 0.00736914 -0.00116865
0.0295707 0.0129429 -0.000628374
0.0345768 0.0224527 -0.000320189
0.0298202 0.0141522 -6.65658e-05
0.0305182 -2.54771e-10 7.98913e-05
0.0328243 -0.0145172 7.83317e-05
0.0311823 -0.0233218 1.49259e-05
0.0294293 -0.0128026 -2.68388e-05
0.0284261 -0.00592496 -1.45856e-05
0.0278172 -0.00293622 -5.68648e-06
0.0274249 -0.00156755 -2.14139e-06
0.0271673 -0.000879322 -8.35738e-07
0.0269968 -0.00051207 -3.41564e-07
0.0268832 -0.000307985 -1.44189e-07
0.0268068 -0.000190761 -6.10225e-08
0.026755 -0.000121376 -2.45891e-08
0.0267193 -7.91232e-05 -8.39915e-09
0.0266946 -5.26895e-05 -1.35507e-09
0.0266772 -3.57321e-05 1.47056e-09
0.026665 -2.46033e-05 2.36215e-09
0.0266563 -1.71519e-05 2.40437e-09
0.02665 -1.20764e-05 2.11339e-09
0.0266456 -8.5696e-06 1.72914e-09
0.0266424 -6.11821e-06 1.35644e-09
0.02664 -4.38857e-06 1.03486e-09
0.0266383 -3.15922e-06 7.73555e-10
0.0266371 -2.28043e-06 5.68648e-10
0.0266362 -1.64948e-06 4.11552e-10
0.0266356 -1.19494e-06 2.92837e-10
0.0266351 -8.66647e-07 2.03803e-10
0.0266348 -6.29055e-07 1.36916e-10
0.0266345 -4.56823e-07 8.56643e-11
0.0266344 -3.31773e-07 4.40582e-11
0.0266342 -2.40793e-07 5.74916e-12
0.0266341 -1.7435e-07 -3.74995e-11
0.0266341 -1.2542e-07 -9.87697e-11
0.026634 -8.86733e-08 -2.02483e-10
0.026634 -5.97973e-08 -4.00594e-10
0.0266339 -3.48413e-08 -8.17873e-10
0.0266339 -9.40929e-09 -1.79134e-09
0.0266339 2.25789e-08 -4.33725e-09
0.0266339 7.11479e-08 -1.1863e-08
0.0266339 1.54738e-07 -3.72257e-08
0.026634 3.07448e-07 -1.34064e-07
0.026634 5.69497e-07 -4.64673e-07
0.0266339 7.32428e-07 -7.18168e-07
0.01 -3.00586e-07 -4.32843e-07
0.0100001 0.00182408 -0.00547003
0.0170457 0.00308528 -0.00834178
0.0218039 0.00245148 -0.00419123
0.0251396 0.00296486 -0.00196959
0.0287734 0.00477995 -0.00101277