# vtk DataFile Version 2.0
Tobias Weinzierl: CPU, Manycore and Cluster Computing
ASCII

DATASET STRUCTURED_POINTS
DIMENSIONS  51 11 6

ORIGIN 0 0 0 

SPACING 0.1 0.1 0.1 

POINT_DATA 3366

VECTORS velocity float
0 0 0
1.54897e-12 0 0
2.58721e-09 0 0
4.19984e-09 0 0
-7.08716e-09 0 0
4.8732e-09 0 0
6.21049e-09 0 0
4.84907e-09 0 0
4.05174e-09 0 0
2.51722e-09 0 0
1.01001e-09 0 0
3.69851e-10 0 0
-5.9273e-10 0 0
-3.27867e-09 0 0
-7.04657e-09 0 0
-1.00479e-08 0 0
-1.14281e-08 0 0
-1.17714e-08 0 0
-1.2042e-08 0 0
-1.27406e-08 0 0
-1.38403e-08 0 0
-1.50849e-08 0 0
-1.62367e-08 0 0
-1.71671e-08 0 0
-1.78471e-08 0 0
-1.83053e-08 0 0
-1.8592e-08 0 0
-1.87576e-08 0 0
-1.88435e-08 0 0
-1.88805e-08 0 0
-1.88896e-08 0 0
-1.88842e-08 0 0
-1.88725e-08 0 0
-1.88592e-08 0 0
-1.88465e-08 0 0
-1.88356e-08 0 0
-1.88267e-08 0 0
-1.88196e-08 0 0
-1.88142e-08 0 0
-1.88101e-08 0 0
-1.88071e-08 0 0
-1.88048e-08 0 0
-1.88032e-08 0 0
-1.8802e-08 0 0
-1.88011e-08 0 0
-1.88006e-08 0 0
-1.88002e-08 0 0
-1.88001e-08 0 0
-1.88003e-08 0 0
-1.88011e-08 0 0
0.00196883 0 0
0 3.86501e-07 0
1.40097e-12 -2.479e-09 0
3.99854e-09 -6.09698e-09 0
9.14037e-09 -1.91922e-09 0
-4.26147e-09 -9.50952e-09 0
1.7652e-08 -1.26184e-08 0
1.90117e-08 3.59055e-10 0
1.46157e-08 3.57772e-09 0
1.28831e-08 3.99877e-09 0
1.06696e-08 3.72234e-09 0
7.53544e-09 2.07367e-09 0
4.76495e-09 1.67809e-09 0
1.14251e-09 4.0498e-09 0
-4.89244e-09 6.67853e-09 0
-1.18347e-08 6.68295e-09 0
-1.68588e-08 4.34955e-09 0
-1.93558e-08 1.89686e-09 0
-2.09606e-08 7.27237e-10 0
-2.33416e-08 7.26483e-10 0
-2.69482e-08 1.15366e-09 0
-3.12615e-08 1.46116e-09 0
-3.55113e-08 1.4848e-09 0
-3.91411e-08 1.29054e-09 0
-4.1923e-08 1.00115e-09 0
-4.38775e-08 7.10333e-10 0
-4.51509e-08 4.66046e-10 0
-4.59213e-08 2.82317e-10 0
-4.63492e-08 1.54941e-10 0
-4.65592e-08 7.26639e-11 0
-4.66398e-08 2.32632e-11 0
-4.66493e-08 -3.8083e-12 0
-4.66242e-08 -1.66523e-11 0
-4.65857e-08 -2.10324e-11 0
-4.65454e-08 -2.07986e-11 0
-4.65087e-08 -1.83723e-11 0
-4.64779e-08 -1.51781e-11 0
-4.64532e-08 -1.1985e-11 0
-4.6434e-08 -9.15564e-12 0
-4.64195e-08 -6.8167e-12 0
-4.64086e-08 -4.96882e-12 0
-4.64006e-08 -3.55387e-12 0
-4.63947e-08 -2.49325e-12 0
-4.63905e-08 -1.70787e-12 0
-4.63875e-08 -1.12618e-12 0
-4.63854e-08 -6.86661e-13 0
-4.6384e-08 -3.35106e-13 0
-4.63833e-08 -1.0833e-14 0
-4.63833e-08 3.62723e-13 0
-4.63841e-08 1.14022e-12 0
-4.63866e-08 3.36758e-12 0
0.00564505 -3.28496e-08 0
0 -2.15355e-08 0
1.06723e-12 -2.30573e-09 0
4.54212e-09 -9.53442e-09 0
1.57795e-08 -1.52838e-08 0
1.67044e-08 -2.98757e-08 0
3.48441e-08 -2.51962e-08 0
2.97815e-08 -1.97038e-09 0
2.61611e-08 4.14332e-10 0
1.99821e-08 -5.37461e-09 0
1.20874e-08 -1.08038e-08 0
3.65734e-09 -1.18066e-08 0
-8.30562e-10 -7.06662e-09 0
-3.40693e-09 2.58228e-10 0
-8.40961e-09 5.80554e-09 0
-1.4652e-08 8.6349e-09 0
-1.89897e-08 1.02297e-08 0
-2.07667e-08 1.14071e-08 0
-2.16329e-08 1.19583e-08 0
-2.3312e-08 1.16381e-08 0
-2.6373e-08 1.05127e-08 0
-3.03609e-08 8.84366e-09 0
-3.44562e-08 6.95186e-09 0
-3.80024e-08 5.12382e-09 0
-4.06955e-08 3.55046e-09 0
-4.25286e-08 2.31355e-09 0
-4.3654e-08 1.41061e-09 0
-4.42688e-08 7.92442e-10 0
-4.45507e-08 3.94046e-10 0
-4.46348e-08 1.53169e-10 0
-4.46135e-08 1.84815e-11 0
-4.45444e-08 -4.8606e-11 0
-4.44609e-08 -7.52255e-11 0
-4.43803e-08 -7.93922e-11 0
-4.43102e-08 -7.2427e-11 0
-4.4253e-08 -6.10285e-11 0
-4.42082e-08 -4.88729e-11 0
-4.4174e-08 -3.7763e-11 0
-4.41484e-08 -2.84083e-11 0
-4.41296e-08 -2.09263e-11 0
-4.41158e-08 -1.51484e-11 0
-4.41059e-08 -1.07953e-11 0
-4.40988e-08 -7.56967e-12 0
-4.40937e-08 -5.19928e-12 0
-4.40901e-08 -3.45063e-12 0
-4.40877e-08 -2.12386e-12 0
-4.40862e-08 -1.03764e-12 0
-4.40855e-08 4.83134e-14 0
-4.40857e-08 1.54638e-12 0
-4.40868e-08 3.92752e-12 0
-4.40892e-08 7.60722e-12 0
0.00806879 -7.42277e-08 0
0 -6.41148e-07 0
4.83541e-12 -4.47883e-09 0
6.5927e-09 -1.55485e-08 0
1.99617e-08 -2.89128e-08 0
1.83346e-08 -3.94732e-08 0
2.20651e-08 -2.16401e-08 0
1.69857e-08 -1.13596e-11 0
1.63946e-08 -2.48675e-09 0
3.76968e-09 -1.1653e-08 0
-8.51827e-09 -2.2135e-08 0
-1.4632e-08 -2.75451e-08 0
-1.62723e-08 -2.7766e-08 0
-1.75246e-08 -2.09112e-08 0
-2.36658e-08 -7.87184e-09 0
-3.14951e-08 6.69543e-09 0
-3.62848e-08 1.78051e-08 0
-3.62637e-08 2.27622e-08 0
-3.2647e-08 2.23854e-08 0
-2.79402e-08 1.92203e-08 0
-2.41937e-08 1.53046e-08 0
-2.21511e-08 1.15771e-08 0
-2.14934e-08 8.33315e-09 0
-2.15389e-08 5.6589e-09 0
-2.17446e-08 3.57722e-09 0
-2.18447e-08 2.05859e-09 0
-2.17817e-08 1.02552e-09 0
-2.15961e-08 3.74391e-10 0
-2.13507e-08 -1.16378e-13 0
-2.10965e-08 -1.88902e-10 0
-2.08647e-08 -2.62119e-10 0
-2.06692e-08 -2.69478e-10 0
-2.05129e-08 -2.43689e-10 0
-2.03925e-08 -2.04758e-10 0
-2.03024e-08 -1.63924e-10 0
-2.02364e-08 -1.26784e-10 0
-2.01886e-08 -9.55527e-11 0
-2.01545e-08 -7.05788e-11 0
-2.01303e-08 -5.12968e-11 0
-2.01131e-08 -3.67865e-11 0
-2.01011e-08 -2.60735e-11 0
-2.00926e-08 -1.82732e-11 0
-2.00866e-08 -1.26427e-11 0
-2.00824e-08 -8.5851e-12 0
-2.00794e-08 -5.62809e-12 0
-2.00775e-08 -3.38531e-12 0
-2.00762e-08 -1.49782e-12 0
-2.00756e-08 3.9014e-13 0
-2.00753e-08 2.55664e-12 0
-2.00751e-08 5.08764e-12 0
-2.00755e-08 7.84951e-12 0
0.00904988 -7.85778e-08 0
0 -1.25197e-06 0
2.96353e-12 -8.50543e-09 0
2.70248e-09 -2.3348e-08 0
7.4384e-09 -3.05772e-08 0
2.74556e-09 -2.47627e-08 0
-3.1386e-12 -9.03467e-09 0
-7.81431e-11 -9.96214e-11 0
9.13436e-11 -9.75674e-11 0
-7.38091e-09 -9.9212e-09 0
-2.73168e-08 -3.00161e-08 0
-3.43737e-08 -4.41771e-08 0
-3.27184e-08 -4.54804e-08 0
-3.54646e-08 -3.25336e-08 0
-4.23124e-08 -1.00865e-08 0
-4.88078e-08 1.14951e-08 0
-5.19528e-08 2.48749e-08 0
-5.0125e-08 2.79776e-08 0
-4.32637e-08 2.39506e-08 0
-3.34649e-08 1.75148e-08 0
-2.37373e-08 1.16574e-08 0
-1.60787e-08 7.23061e-09 0
-1.08906e-08 4.07419e-09 0
-7.62154e-09 1.87542e-09 0
-5.54802e-09 4.12702e-10 0
-4.14787e-09 -4.73961e-10 0
-3.13499e-09 -9.28683e-10 0
-2.37362e-09 -1.08628e-09 0
-1.79831e-09 -1.06156e-09 0
-1.36969e-09 -9.41322e-10 0
-1.0571e-09 -7.84107e-10 0
-8.34077e-10 -6.25006e-10 0
-6.78037e-10 -4.82151e-10 0
-5.70594e-10 -3.6272e-10 0
-4.97512e-10 -2.67545e-10 0
-4.48219e-10 -1.94266e-10 0
-4.15131e-10 -1.39279e-10 0
-3.92949e-10 -9.8824e-11 0
-3.78045e-10 -6.9513e-11 0
-3.67977e-10 -4.85278e-11 0
-3.61117e-10 -3.36386e-11 0
-3.56391e-10 -2.31399e-11 0
-3.53094e-10 -1.57558e-11 0
-3.5077e-10 -1.05434e-11 0
-3.49114e-10 -6.80118e-12 0
-3.47913e-10 -4.00104e-12 0
-3.46989e-10 -1.76225e-12 0
-3.46091e-10 1.4484e-13 0
-3.45002e-10 1.79537e-12 0
-3.43592e-10 3.20865e-12 0
-3.42589e-10 4.59637e-12 0
0.00939402 -4.53611e-08 0
0 -1.13211e-06 0
-3.51575e-12 -9.33909e-09 0
-2.86268e-09 -2.03728e-08 0
-3.09315e-09 -2.37945e-08 0
-8.34604e-09 -2.39262e-08 0
-7.27923e-09 -1.11674e-08 0
-8.50802e-11 8.23761e-11 0
8.9793e-12 -8.9793e-12 0
8.66091e-11 -9.60746e-11 0
-1.48633e-08 -1.67267e-08 0
-4.19956e-08 -4.60704e-08 0
-4.46238e-08 -5.44336e-08 0
-4.68589e-08 -3.74447e-08 0
-4.86505e-08 -1.07501e-08 0
-4.91635e-08 1.34982e-08 0
-4.94942e-08 2.73964e-08 0
-4.84564e-08 2.87316e-08 0
-4.32623e-08 2.16435e-08 0
-3.36253e-08 1.24164e-08 0
-2.2332e-08 4.99688e-09 0
-1.24183e-08 2.80967e-10 0
-5.23249e-09 -2.30508e-09 0
-6.10326e-10 -3.50905e-09 0
2.19034e-09 -3.8587e-09 0
3.8644e-09 -3.69542e-09 0
4.87763e-09 -3.25484e-09 0
5.50132e-09 -2.70269e-09 0
5.88801e-09 -2.14702e-09 0
6.12624e-09 -1.64829e-09 0
6.27041e-09 -1.23205e-09 0
6.35534e-09 -9.01818e-10 0
6.40367e-09 -6.49307e-10 0
6.42999e-09 -4.6148e-10 0
6.44353e-09 -3.24661e-10 0
6.44995e-09 -2.26578e-10 0
6.4526e-09 -1.57121e-10 0
6.45342e-09 -1.08393e-10 0
6.45343e-09 -7.44516e-11 0
6.4532e-09 -5.09347e-11 0
6.45297e-09 -3.47002e-11 0
6.45284e-09 -2.3514e-11 0
6.45284e-09 -1.57999e-11 0
6.45296e-09 -1.04519e-11 0
6.4532e-09 -6.70395e-12 0
6.4536e-09 -4.04752e-12 0
6.45419e-09 -2.1686e-12 0
6.4551e-09 -8.81014e-13 0
6.45635e-09 -8.41478e-14 0
6.45783e-09 2.28096e-13 0
6.45884e-09 3.21878e-13 0
0.00947341 5.92865e-09 0
0 -7.81965e-07 0
-1.21143e-12 -5.72079e-09 0
-3.0442e-09 -1.45623e-08 0
-2.77448e-09 -1.8983e-08 0
-1.25425e-08 -1.85946e-08 0
-1.83981e-08 -1.10066e-08 0
-8.07534e-09 -2.55262e-09 0
-8.29556e-11 8.17949e-11 0
4.82689e-12 -4.82689e-12 0
7.95989e-11 -9.36175e-11 0
-1.93857e-08 -2.71245e-08 0
-3.48413e-08 -5.15155e-08 0
-4.22387e-08 -3.55637e-08 0
-4.29297e-08 -8.64075e-09 0
-3.8791e-08 1.47339e-08 0
-3.46886e-08 2.73993e-08 0
-3.30839e-08 2.72201e-08 0
-3.10466e-08 1.82512e-08 0
-2.558e-08 7.29793e-09 0
-1.75587e-08 -1.05677e-09 0
-9.80714e-09 -5.75258e-09 0
-4.18145e-09 -7.60779e-09 0
-9.1952e-10 -7.73083e-09 0
5.95241e-10 -6.95032e-09 0
1.08671e-09 -5.79537e-09 0
1.07874e-09 -4.58247e-09 0
8.74018e-10 -3.48239e-09 0
6.22923e-10 -2.56766e-09 0
3.90038e-10 -1.85024e-09 0
1.97127e-10 -1.31042e-09 0
4.6657e-11 -9.16245e-10 0
-6.64672e-11 -6.3462e-10 0
-1.49439e-10 -4.36556e-10 0
-2.0922e-10 -2.98827e-10 0
-2.51703e-10 -2.03815e-10 0
-2.81553e-10 -1.38639e-10 0
-3.0231e-10 -9.40998e-11 0
-3.16599e-10 -6.37432e-11 0
-3.26325e-10 -4.30872e-11 0
-3.32858e-10 -2.90439e-11 0
-3.37164e-10 -1.94965e-11 0
-3.39922e-10 -1.30017e-11 0
-3.41599e-10 -8.58481e-12 0
-3.42503e-10 -5.59777e-12 0
-3.42841e-10 -3.61756e-12 0
-3.42758e-10 -2.37773e-12 0
-3.42304e-10 -1.7306e-12 0
-3.4155e-10 -1.65441e-12 0
-3.40674e-10 -2.33529e-12 0
-3.40192e-10 -3.76993e-12 0
0.00939399 5.45496e-08 0
0 -5.48464e-07 0
2.78977e-12 -4.16655e-09 0
-1.29335e-09 -1.06595e-08 0
-3.04936e-09 -1.42331e-08 0
-1.23642e-08 -1.29053e-08 0
-2.34063e-08 -5.7441e-09 0
-2.24865e-08 -3.13791e-10 0
-1.25191e-08 2.64952e-10 0
-8.84174e-11 7.51683e-11 0
7.81436e-11 6.92593e-11 0
3.54918e-12 -1.50124e-08 0
-2.15503e-08 -2.94094e-08 0
-3.96145e-08 -1.8051e-08 0
-4.53635e-08 2.22761e-09 0
-3.73021e-08 1.67435e-08 0
-2.37533e-08 2.2015e-08 0
-1.54646e-08 1.8811e-08 0
-1.40234e-08 1.04233e-08 0
-1.45157e-08 1.49238e-09 0
-1.38559e-08 -4.80096e-09 0
-1.25053e-08 -7.83677e-09 0
-1.17644e-08 -8.4632e-09 0
-1.20882e-08 -7.74314e-09 0
-1.31848e-08 -6.4537e-09 0
-1.45787e-08 -5.05833e-09 0
-1.59238e-08 -3.79507e-09 0
-1.7055e-08 -2.75828e-09 0
-1.79328e-08 -1.95942e-09 0
-1.85809e-08 -1.36977e-09 0
-1.90444e-08 -9.47148e-10 0
-1.93694e-08 -6.50203e-10 0
-1.95942e-08 -4.44272e-10 0
-1.97485e-08 -3.02644e-10 0
-1.98538e-08 -2.05742e-10 0
-1.99254e-08 -1.39647e-10 0
-1.9974e-08 -9.46515e-11 0
-2.00068e-08 -6.40572e-11 0
-2.00289e-08 -4.32742e-11 0
-2.00437e-08 -2.91674e-11 0
-2.00535e-08 -1.96008e-11 0
-2.006e-08 -1.3123e-11 0
-2.00641e-08 -8.7516e-12 0
-2.00667e-08 -5.8254e-12 0
-2.00683e-08 -3.90491e-12 0
-2.00691e-08 -2.70871e-12 0
-2.00695e-08 -2.07949e-12 0
-2.00696e-08 -1.97389e-12 0
-2.00695e-08 -2.48201e-12 0
-2.00694e-08 -3.97901e-12 0
-2.00699e-08 -6.7943e-12 0
0.00904985 8.0404e-08 0
0 -4.65799e-07 0
2.90338e-12 -2.19012e-09 0
-2.84618e-10 -6.07142e-09 0
-4.38544e-09 -8.96322e-09 0
-1.61564e-08 -8.7708e-09 0
-2.95973e-08 -1.70814e-09 0
-3.20943e-08 4.2839e-09 0
-2.81385e-08 -5.19878e-09 0
-1.76596e-08 -7.50194e-09 0
-1.5378e-08 3.1532e-13 0
-1.71083e-08 -5.11717e-09 0
-3.51619e-08 -6.69619e-09 0
-5.25868e-08 3.77679e-09 0
-5.42299e-08 1.39042e-08 0
-3.79416e-08 1.55404e-08 0
-1.67098e-08 1.03436e-08 0
-6.30411e-09 3.19837e-09 0
-9.25601e-09 -2.48735e-09 0
-1.75816e-08 -5.35541e-09 0
-2.46076e-08 -5.81561e-09 0
-2.89822e-08 -5.07785e-09 0
-3.18421e-08 -4.08675e-09 0
-3.41841e-08 -3.21951e-09 0
-3.63217e-08 -2.52208e-09 0
-3.82184e-08 -1.95597e-09 0
-3.97925e-08 -1.49203e-09 0
-4.10209e-08 -1.11682e-09 0
-4.1936e-08 -8.21267e-10 0
-4.25959e-08 -5.94882e-10 0
-4.30613e-08 -4.25633e-10 0
-4.3385e-08 -3.01522e-10 0
-4.36081e-08 -2.1186e-10 0
-4.3761e-08 -1.47836e-10 0
-4.38653e-08 -1.02541e-10 0
-4.39362e-08 -7.0739e-11 0
-4.39844e-08 -4.85549e-11 0
-4.40169e-08 -3.31672e-11 0
-4.40388e-08 -2.2548e-11 0
-4.40534e-08 -1.52548e-11 0
-4.40631e-08 -1.02706e-11 0
-4.40695e-08 -6.88476e-12 0
-4.40736e-08 -4.60538e-12 0
-4.40762e-08 -3.09739e-12 0
-4.40777e-08 -2.14139e-12 0
-4.40787e-08 -1.60665e-12 0
-4.40793e-08 -1.43808e-12 0
-4.40798e-08 -1.66637e-12 0
-4.40803e-08 -2.4103e-12 0
-4.40812e-08 -4.01051e-12 0
-4.40834e-08 -6.91145e-12 0
0.00806878 6.80611e-08 0
0 -4.8085e-07 0
5.43051e-12 -4.06244e-10 0
2.77479e-10 -1.63059e-09 0
-5.4041e-09 -3.02266e-09 0
-1.84542e-08 -3.293e-09 0
-3.2899e-08 -2.16305e-09 0
-3.66121e-08 3.2362e-10 0
-3.30047e-08 -2.07623e-09 0
-3.79985e-08 -3.89297e-09 0
-3.55848e-08 1.28097e-09 0
-3.32486e-08 6.17701e-09 0
-3.64003e-08 9.10198e-09 0
-3.79498e-08 9.30161e-09 0
-3.17937e-08 7.06919e-09 0
-1.76405e-08 3.44492e-09 0
-5.20125e-09 -1.17171e-09 0
-4.22792e-09 -5.07735e-09 0
-1.36095e-08 -6.27837e-09 0
-2.52769e-08 -4.86607e-09 0
-3.36463e-08 -2.59744e-09 0
-3.81136e-08 -8.98993e-10 0
-4.02559e-08 -9.89859e-11 0
-4.14632e-08 9.51155e-11 0
-4.23901e-08 3.6972e-11 0
-4.32179e-08 -6.50211e-11 0
-4.39516e-08 -1.33411e-10 0
-4.45679e-08 -1.58443e-10 0
-4.50591e-08 -1.53088e-10 0
-4.54347e-08 -1.32302e-10 0
-4.57133e-08 -1.06671e-10 0
-4.59153e-08 -8.20849e-11 0
-4.60593e-08 -6.11166e-11 0
-4.61607e-08 -4.44149e-11 0
-4.62314e-08 -3.16873e-11 0
-4.62802e-08 -2.22804e-11 0
-4.63136e-08 -1.54805e-11 0
-4.63363e-08 -1.06471e-11 0
-4.63516e-08 -7.25686e-12 0
-4.63618e-08 -4.90518e-12 0
-4.63685e-08 -3.29055e-12 0
-4.63728e-08 -2.19443e-12 0
-4.63755e-08 -1.46256e-12 0
-4.63772e-08 -9.89742e-13 0
-4.63782e-08 -7.09373e-13 0
-4.63788e-08 -5.86464e-13 0
-4.63793e-08 -6.15336e-13 0
-4.63798e-08 -8.26939e-13 0
-4.63806e-08 -1.25689e-12 0
-4.63822e-08 -1.94818e-12 0
-4.63854e-08 -3.17319e-12 0
0.00564508 2.60609e-08 0
0 0 0
3.66923e-12 0 0
2.09699e-10 0 0
-2.70227e-09 0 0
-8.75515e-09 0 0
-1.55862e-08 0 0
-1.89305e-08 0 0
-1.73846e-08 0 0
-2.03457e-08 0 0
-2.02081e-08 0 0
-1.61368e-08 0 0
-1.08994e-08 0 0
-6.51552e-09 0 0
-3.20576e-09 0 0
-1.97022e-10 0 0
7.96456e-10 0 0
-2.06043e-09 0 0
-7.5322e-09 0 0
-1.27193e-08 0 0
-1.5959e-08 0 0
-1.73806e-08 0 0
-1.78023e-08 0 0
-1.78776e-08 0 0
-1.79151e-08 0 0
-1.79991e-08 0 0
-1.81223e-08 0 0
-1.82576e-08 0 0
-1.83841e-08 0 0
-1.84913e-08 0 0
-1.85765e-08 0 0
-1.86414e-08 0 0
-1.86892e-08 0 0
-1.87237e-08 0 0
-1.8748e-08 0 0
-1.8765e-08 0 0
-1.87767e-08 0 0
-1.87847e-08 0 0
-1.879e-08 0 0
-1.87934e-08 0 0
-1.87957e-08 0 0
-1.87971e-08 0 0
-1.87979e-08 0 0
-1.87984e-08 0 0
-1.87987e-08 0 0
-1.87989e-08 0 0
-1.8799e-08 0 0
-1.87992e-08 0 0
-1.87997e-08 0 0
-1.88005e-08 0 0
-1.8802e-08 0 0
0.00196885 0 0
0 0 5.36706e-07
1.23721e-12 0 -1.05748e-10
3.19541e-09 0 1.90115e-09
1.05744e-08 0 1.1596e-08
-2.2854e-08 0 8.83859e-09
7.30866e-09 0 -6.76794e-10
1.31009e-08 0 -3.32542e-10
1.20527e-08 0 -1.41663e-09
1.34619e-08 0 -1.66461e-09
1.5444e-08 0 -6.78321e-10
1.83299e-08 0 7.5965e-11
2.24285e-08 0 -7.31066e-11
2.4382e-08 0 -3.99063e-10
2.01846e-08 0 -2.22494e-10
1.02984e-08 0 8.84879e-11
-8.32546e-10 0 3.41723e-11
-9.77424e-09 0 -1.71312e-10
-1.63435e-08 0 -1.1128e-10
-2.19271e-08 0 2.44753e-10
-2.74485e-08 0 6.46575e-10
-3.29024e-08 0 8.85177e-10
-3.7849e-08 0 9.1355e-10
-4.19141e-08 0 7.93455e-10
-4.49715e-08 0 6.11043e-10
-4.71023e-08 0 4.29688e-10
-4.84895e-08 0 2.8064e-10
-4.9334e-08 0 1.71614e-10
-4.98102e-08 0 9.81804e-11
-5.00514e-08 0 5.18606e-11
-5.01516e-08 0 2.43212e-11
-5.01732e-08 0 8.93091e-12
-5.01552e-08 0 9.75878e-13
-5.01205e-08 0 -2.6621e-12
-5.00821e-08 0 -3.93686e-12
-5.00462e-08 0 -4.01566e-12
-5.00155e-08 0 -3.56272e-12
-4.99906e-08 0 -2.93476e-12
-4.99711e-08 0 -2.3084e-12
-4.99562e-08 0 -1.75964e-12
-4.99451e-08 0 -1.3113e-12
-4.99368e-08 0 -9.60289e-13
-4.99307e-08 0 -6.92613e-13
-4.99264e-08 0 -4.91387e-13
-4.99232e-08 0 -3.3983e-13
-4.9921e-08 0 -2.234e-13
-4.99196e-08 0 -1.32317e-13
-4.99188e-08 0 -6.13741e-14
-4.99186e-08 0 -4.98908e-14
-4.99193e-08 0 -1.29535e-14
-4.99217e-08 0 9.1538e-13
0.00559023 0 -4.83729e-09
0.0036 -3.09739e-07 -6.35398e-08
0.0035998 -0.00138383 -2.1536e-05
0.00671713 -0.00390953 0.000106589
0.0136055 -0.0059208 -0.000552494
0.0235414 -0.0144194 -0.00431117
0.0462706 -0.0132736 -0.00487846
0.0497584 -0.00186619 -0.00164778
0.0494975 0.00268615 -0.000170669
0.0445059 0.00501229 0.000555071
0.0388876 0.00517831 0.000525132
0.033756 0.0045123 0.000241749
0.0294341 0.00362719 -3.4187e-05
0.0260176 0.00273382 -0.000219965
0.0234468 0.00193018 -0.000306084
0.0215561 0.00128746 -0.000307441
0.0201635 0.000834534 -0.000249896
0.0191298 0.000547081 -0.000167594
0.0183637 0.00037289 -9.13083e-05
0.017804 0.000263289 -3.71764e-05
0.0174053 0.000187679 -6.52879e-06
0.0171304 0.000131608 6.90715e-06
0.0169477 8.93506e-05 1.0453e-05
0.016831 5.82772e-05 9.5076e-06
0.0167596 3.63574e-05 7.1676e-06
0.0167179 2.15782e-05 4.85836e-06
0.0166949 1.20493e-05 3.05962e-06
0.0166833 6.17577e-06 1.81588e-06
0.0166782 2.72797e-06 1.01889e-06
0.0166766 8.21352e-07 5.3649e-07
0.0166768 -1.47321e-07 2.58638e-07
0.0166778 -5.71513e-07 1.06552e-07
0.016679 -6.97688e-07 2.83745e-08
0.0166801 -6.74067e-07 -8.21949e-09
0.0166811 -5.85753e-07 -2.25321e-08
0.0166819 -4.78803e-07 -2.56519e-08
0.0166825 -3.76067e-07 -2.36966e-08
0.016683 -2.87225e-07 -1.98802e-08
0.0166834 -2.14921e-07 -1.5779e-08
0.0166836 -1.58365e-07 -1.20815e-08
0.0166838 -1.15352e-07 -9.0175e-09
0.0166839 -8.33237e-08 -6.59801e-09
0.016684 -5.98903e-08 -4.74756e-09
0.0166841 -4.30325e-08 -3.36933e-09
0.0166842 -3.11577e-08 -2.37211e-09
0.0166842 -2.30949e-08 -1.68441e-09
0.0166842 -1.80035e-08 -1.15279e-09
0.0166843 -1.54296e-08 -4.51764e-10
0.0166843 -1.53034e-08 1.77102e-09
0.0166843 -2.17851e-08 5.81322e-09
0.0166844 -6.1867e-08 -5.31912e-09
0.0166845 -9.60298e-08 -1.87171e-08
0.01 -1.40029e-07 -1.4594e-06
0.0100007 -0.00299014 -0.000597595
0.0147913 -0.00993991 -0.000784802
0.0241569 -0.0177076 -0.00126664
0.0384741 -0.032423 -0.00336743
0.0590829 -0.0246973 -0.000817291
0.0563404 -0.00267717 0.00316258
0.055782 0.00514472 0.0033715
0.0500005 0.0101523 0.00296975
0.0445136 0.0103338 0.00204424
0.0399999 0.00927955 0.0010756
0.036282 0.00784862 0.000329412
0.0333079 0.00631601 -0.000181765
0.0310276 0.0048794 -0.000468781
0.0292818 0.003665 -0.00054405
0.0279341 0.00270114 -0.000465838
0.0269037 0.0019585 -0.000320392
0.0261376 0.00139596 -0.000179432
0.0255878 0.000976065 -7.77245e-05
0.025208 0.000667379 -1.88522e-05
0.024956 0.000444492 8.24898e-06
0.0247962 0.000287216 1.67183e-05
0.0247001 0.000179323 1.63693e-05
0.0246462 0.000107634 1.29455e-05
0.0246186 6.16091e-05 9.18635e-06
0.0246065 3.31193e-05 6.09831e-06
0.0246031 1.61792e-05 3.8666e-06
0.0246039 6.57604e-06 2.36769e-06
0.0246065 1.46548e-06 1.40815e-06
0.0246097 -1.00183e-06 8.15012e-07
0.0246126 -1.98647e-06 4.5861e-07
0.0246152 -2.19115e-06 2.49865e-07
0.0246172 -2.02478e-06 1.3068e-07
0.0246188 -1.7141e-06 6.44997e-08
0.02462 -1.37683e-06 2.89579e-08
0.0246209 -1.06798e-06 1.06917e-08
0.0246215 -8.08234e-07 1.89517e-09
0.024622 -6.00696e-07 -1.88779e-09
0.0246223 -4.40468e-07 -3.13765e-09
0.0246225 -3.19772e-07 -3.19348e-09
0.0246227 -2.30556e-07 -2.74982e-09
0.0246228 -1.65653e-07 -2.15488e-09
0.0246229 -1.1919e-07 -1.5786e-09
0.024623 -8.66173e-08 -1.08404e-09
0.024623 -6.4648e-08 -6.9385e-10
0.0246231 -5.11426e-08 -1.72662e-10
0.0246231 -4.55681e-08 1.13591e-09
0.0246231 -5.29542e-08 4.2487e-09
0.0246232 -8.3896e-08 7.14334e-09
0.0246233 -1.60393e-07 -1.73736e-08
0.0246234 -2.14083e-07 -4.26307e-08
0.0148 -9.63594e-07 -1.75038e-06
0.0148024 -0.00529042 -0.00112812
0.020361 -0.016391 -0.00243766
0.0274728 -0.0287209 -0.00394301
0.0320864 -0.0460177 -0.00575907
0.0305758 -0.028417 -0.00140146
0.026822 -1.23175e-05 0.00329025
0.0262681 0.00709186 0.00350874
0.0298159 0.0145145 0.0033987
0.0301803 0.0140022 0.00240776
0.0293763 0.0122523 0.00142162
0.0285419 0.0104125 0.000573273
0.0278944 0.00849063 -3.0373e-05
0.0275603 0.00663973 -0.000371862
0.0274299 0.0050289 -0.000463912
0.0274097 0.00369574 -0.000390807
0.0274484 0.00263544 -0.000253334
0.0275146 0.00182859 -0.000122798
0.0275867 0.00123854 -3.06853e-05
0.0276538 0.000819038 1.999e-05
0.0277129 0.000526662 3.95438e-05
0.0277645 0.000326918 4.08576e-05
0.0278094 0.000193968 3.40803e-05
0.0278478 0.000108406 2.53434e-05
0.0278797 5.55529e-05 1.75234e-05
0.0279054 2.4471e-05 1.15218e-05
0.0279253 7.29287e-06 7.29924e-06
0.0279404 -1.39827e-06 4.49014e-06
0.0279515 -5.16636e-06 2.69372e-06
0.0279595 -6.2532e-06 1.57914e-06
0.0279651 -6.00565e-06 9.04782e-07
0.0279691 -5.19264e-06 5.05857e-07
0.0279719 -4.22603e-06 2.74929e-07
0.0279738 -3.30686e-06 1.44204e-07
0.0279751 -2.51779e-06 7.20092e-08
0.027976 -1.87926e-06 3.32943e-08
0.0279766 -1.38197e-06 1.33121e-08
0.027977 -1.0049e-06 3.55321e-09
0.0279773 -7.2455e-07 -7.92242e-10
0.0279775 -5.19226e-07 -2.38087e-09
0.0279776 -3.70702e-07 -2.63996e-09
0.0279777 -2.6449e-07 -2.31658e-09
0.0279778 -1.89541e-07 -1.79438e-09
0.0279778 -1.37748e-07 -1.22008e-09
0.0279779 -1.03515e-07 -5.87367e-10
0.0279779 -8.40772e-08 3.47497e-10
0.0279779 -7.97343e-08 2.16682e-09
0.027978 -9.45579e-08 4.01611e-09
0.027978 -1.34259e-07 -1.29401e-09
0.027978 -1.95186e-07 -3.82176e-08
0.027978 -2.29432e-07 -6.92103e-08
0.018 -1.94335e-06 -1.70438e-06
0.018003 -0.00697572 -0.00188115
0.020749 -0.0189111 -0.00491932
0.0206837 -0.0248456 -0.00632694
0.0160618 -0.0268942 -0.00761005
-1.60196e-06 -0.0139937 -0.00432229
9.76829e-05 2.65675e-05 9.18907e-07
-3.35934e-05 3.49579e-05 0.000647879
0.00661399 0.00414492 0.00141614
0.0135752 0.00944443 0.00137254
0.0170151 0.0103296 0.000955317
0.0187628 0.00937226 0.000404931
0.0204343 0.0077563 -8.39829e-05
0.0221241 0.00597164 -0.000336982
0.0236647 0.00439835 -0.000377651
0.0249818 0.00310533 -0.000301505
0.026066 0.00209855 -0.000187601
0.026928 0.00136319 -8.16243e-05
0.0275865 0.000856074 -4.35264e-06
0.0280706 0.000518959 3.95523e-05
0.0284162 0.000299156 5.5648e-05
0.0286586 0.000158487 5.3979e-05
0.0288271 7.14582e-05 4.40734e-05
0.0289432 2.06646e-05 3.23823e-05
0.0290225 -6.34217e-06 2.21359e-05
0.029076 -1.85346e-05 1.43563e-05
0.0291116 -2.21536e-05 8.94078e-06
0.029135 -2.12908e-05 5.38579e-06
0.0291501 -1.84478e-05 3.15039e-06
0.0291598 -1.50357e-05 1.79176e-06
0.029166 -1.17707e-05 9.89641e-07
0.0291699 -8.95797e-06 5.28558e-07
0.0291723 -6.67854e-06 2.70481e-07
0.0291738 -4.90323e-06 1.30153e-07
0.0291748 -3.55814e-06 5.64431e-08
0.0291754 -2.55914e-06 1.94645e-08
0.0291758 -1.82809e-06 2.15912e-09
0.029176 -1.29914e-06 -4.98024e-09
0.0291762 -9.19789e-07 -7.119e-09
0.0291763 -6.49701e-07 -6.97874e-09
0.0291763 -4.58677e-07 -5.93611e-09
0.0291764 -3.2456e-07 -4.65262e-09
0.0291764 -2.31392e-07 -3.41717e-09
0.0291764 -1.6804e-07 -2.29736e-09
0.0291764 -1.27258e-07 -1.26366e-09
0.0291764 -1.04847e-07 -3.49875e-10
0.0291764 -9.84965e-08 3.61558e-10
0.0291764 -1.05186e-07 -8.18384e-10
0.0291764 -1.22003e-07 -1.47473e-08
0.0291764 -1.36322e-07 -5.6291e-08
0.0291763 -1.39897e-07 -8.53907e-08
0.0196 -2.80883e-06 -2.57541e-06
0.019601 -0.00587264 -0.00274491
0.0190627 -0.0131018 -0.00646882
0.0159688 -0.0160967 -0.00667336
0.0109401 -0.0150716 -0.00668277
0.00175796 -0.00620689 -0.00503311
7.28067e-05 -6.68601e-05 -0.0012973
3.32667e-05 -3.32667e-05 -4.04787e-08
-3.29752e-05 3.42117e-05 0.000251797
0.00398835 0.00285152 0.000534272
0.00917083 0.00670226 0.000462345
0.0120942 0.00703405 0.000113887
0.0153415 0.00547641 -0.000262572
0.0184965 0.00386956 -0.000411377
0.0211966 0.00259055 -0.000395051
0.0233808 0.00159959 -0.000311169
0.0251034 0.000869105 -0.000211457
0.0264293 0.000384705 -0.000116647
0.027414 0.000103325 -3.89822e-05
0.0281147 -3.96538e-05 1.29087e-05
0.0285942 -0.000102214 3.81055e-05
0.0289125 -0.000122162 4.32085e-05
0.0291192 -0.000120208 3.73675e-05
0.029251 -0.000107414 2.79052e-05
0.0293335 -9.01565e-05 1.89287e-05
0.0293842 -7.2282e-05 1.19794e-05
0.0294148 -5.59588e-05 7.18253e-06
0.0294328 -4.21697e-05 4.11342e-06
0.0294432 -3.11279e-05 2.25618e-06
0.029449 -2.26184e-05 1.1817e-06
0.0294522 -1.62413e-05 5.84578e-07
0.0294538 -1.15596e-05 2.65879e-07
0.0294547 -8.17412e-06 1.03479e-07
0.029455 -5.75283e-06 2.56762e-08
0.0294552 -4.03505e-06 -8.09942e-09
0.0294552 -2.82346e-06 -2.00406e-08
0.0294552 -1.97251e-06 -2.18756e-08
0.0294552 -1.37672e-06 -1.95607e-08
0.0294551 -9.606e-07 -1.59671e-08
0.0294551 -6.70634e-07 -1.23693e-08
0.0294551 -4.69116e-07 -9.24653e-09
0.0294551 -3.29664e-07 -6.71526e-09
0.029455 -2.3398e-07 -4.75124e-09
0.029455 -1.69497e-07 -3.30023e-09
0.029455 -1.27519e-07 -2.41948e-09
0.029455 -1.01388e-07 -2.30456e-09
0.029455 -8.53014e-08 -3.24387e-09
0.029455 -7.27222e-08 -6.43292e-09
0.0294549 -5.58814e-08 -2.33857e-08
0.0294549 -2.12759e-08 -6.25526e-08
0.0294547 2.85218e-09 -8.7187e-08
0.0196 -1.34842e-06 -3.58241e-06
0.0195999 -0.00366892 -0.00312305
0.0187883 -0.00803524 -0.00650664
0.0175438 -0.0080303 -0.00604906
0.013244 -0.0041882 -0.00554982
0.00914854 0.00265886 -0.00531516
0.00616559 0.00318444 -0.00308392
7.29662e-05 -6.0754e-05 -0.000656859
2.77789e-05 -2.77789e-05 -1.27307e-07
-3.24212e-05 3.35292e-05 8.95962e-05
0.00281515 0.00208358 0.000350665
0.0072063 0.00331127 0.000261272
0.0125217 0.00169067 -0.000142181
0.0171761 0.000524591 -0.000312232
0.0207735 -0.000110261 -0.000320642
0.0234305 -0.000501976 -0.000274319
0.025363 -0.000740343 -0.000218403
0.0267446 -0.000825233 -0.000157587
0.027698 -0.000779227 -9.46006e-05
0.0283233 -0.000659445 -4.09318e-05
0.0287113 -0.000520843 -5.88546e-06
0.0289396 -0.000394676 1.0489e-05
0.0290672 -0.000291471 1.42869e-05
0.0291348 -0.000211339 1.21411e-05
0.0291682 -0.000150959 8.41664e-06
0.0291829 -0.000106467 5.1209e-06
0.029188 -7.4308e-05 2.80492e-06
0.0291885 -5.14508e-05 1.38113e-06
0.0291871 -3.5427e-05 5.88733e-07
0.0291851 -2.43104e-05 1.86602e-07
0.0291832 -1.66542e-05 3.81286e-09
0.0291815 -1.14052e-05 -6.54755e-08
0.0291802 -7.81472e-06 -8.10932e-08
0.0291792 -5.36049e-06 -7.43991e-08
0.0291784 -3.68218e-06 -6.06094e-08
0.0291778 -2.53321e-06 -4.64083e-08
0.0291774 -1.74551e-06 -3.42661e-08
0.0291771 -1.20471e-06 -2.47346e-08
0.0291769 -8.32976e-07 -1.75949e-08
0.0291768 -5.77279e-07 -1.23915e-08
0.0291767 -4.01447e-07 -8.66042e-09
0.0291766 -2.80747e-07 -6.02977e-09
0.0291766 -1.98154e-07 -4.26065e-09
0.0291765 -1.41677e-07 -3.23099e-09
0.0291765 -1.02449e-07 -2.98557e-09
0.0291765 -7.32913e-08 -3.57438e-09
0.0291764 -4.77341e-08 -5.06579e-09
0.0291764 -1.85494e-08 -8.21836e-09
0.0291763 2.58414e-08 -2.25063e-08
0.0291763 9.8986e-08 -5.49821e-08
0.0291762 1.44268e-07 -7.53338e-08
0.018 -8.64285e-07 -3.56881e-06
0.0180009 -0.00199506 -0.00304533
0.0183256 -0.00382988 -0.00614951
0.018397 -0.0025846 -0.00528625
0.0174002 0.000726178 -0.00421318
0.0171377 0.00715097 -0.0039676
0.0178726 0.0126102 -0.00296972
0.0109882 0.00693431 -0.00146294
7.44651e-05 -4.7043e-05 -0.000425902
-2.54719e-05 -5.47154e-05 5.55258e-07
7.87081e-06 -0.000632587 0.000743048
0.00839363 -0.00269828 0.00108681
0.0158114 -0.00429881 0.000477365
0.0208568 -0.00408924 0.000188455
0.0240331 -0.00334849 7.40534e-05
0.0259786 -0.00268766 8.46197e-07
0.0271418 -0.00218252 -6.99053e-05
0.0278012 -0.00175174 -0.000117495
0.0281341 -0.00135062 -0.000123412
0.0282643 -0.00099191 -9.78591e-05
0.0282812 -0.000699515 -6.35805e-05
0.0282449 -0.000479978 -3.58193e-05
0.0281915 -0.000323939 -1.8405e-05
0.0281391 -0.000216517 -9.10441e-06
0.0280951 -0.000143898 -4.60187e-06
0.028061 -9.53551e-05 -2.50149e-06
0.028036 -6.31476e-05 -1.48867e-06
0.0280181 -4.18753e-05 -9.50437e-07
0.0280056 -2.78509e-05 -6.28828e-07
0.0279969 -1.85983e-05 -4.19587e-07
0.027991 -1.24769e-05 -2.7823e-07
0.0279869 -8.4099e-06 -1.82301e-07
0.0279841 -5.69425e-06 -1.17928e-07
0.0279822 -3.87137e-06 -7.54259e-08
0.0279809 -2.64154e-06 -4.78122e-08
0.02798 -1.80799e-06 -3.01184e-08
0.0279793 -1.24079e-06 -1.89038e-08
0.0279789 -8.53574e-07 -1.18521e-08
0.0279786 -5.88583e-07 -7.44158e-09
0.0279784 -4.06929e-07 -4.69429e-09
0.0279783 -2.82255e-07 -2.99704e-09
0.0279782 -1.96504e-07 -1.99099e-09
0.0279781 -1.37078e-07 -1.49545e-09
0.027978 -9.4901e-08 -1.41757e-09
0.027978 -6.30419e-08 -1.76517e-09
0.027978 -3.56478e-08 -2.49213e-09
0.0279779 -6.91945e-09 -3.54944e-09
0.0279779 3.00412e-08 -5.45974e-09
0.0279779 8.81483e-08 -1.35139e-08
0.0279779 1.77461e-07 -3.70416e-08
0.0279779 2.30187e-07 -5.38101e-08
0.0148 -4.85341e-07 -3.1616e-06
0.0148015 -0.00102444 -0.00282237
0.0162388 -0.00160669 -0.00541525
0.0178284 3.9776e-05 -0.00429668
0.0191955 0.00325943 -0.00309646
0.0209737 0.00741093 -0.00287285
0.0247947 0.0129802 -0.00241069
0.0280828 0.0195328 -0.00149297
0.0230764 0.0113266 -0.000325588
0.0235166 1.19475e-10 0.00062971
0.0266621 -0.00667447 0.00155835
0.0301826 -0.0130466 0.00210883
0.0311358 -0.0110334 0.0016525
0.0306178 -0.00779389 0.00118446
0.029586 -0.00521452 0.000756037
0.0285108 -0.00348887 0.000385852
0.0275663 -0.00236497 9.45346e-05
0.0267927 -0.00159945 -8.74637e-05
0.0261841 -0.00105802 -0.00015561
0.0257211 -0.000680496 -0.000145713
0.0253799 -0.000429419 -0.000105142
0.025136 -0.000269773 -6.50039e-05
0.0249662 -0.000170677 -3.63681e-05
0.0248505 -0.000109327 -1.90603e-05
0.0247731 -7.09496e-05 -9.57557e-06
0.0247219 -4.65847e-05 -4.67911e-06
0.0246883 -3.08924e-05 -2.23997e-06
0.0246663 -2.06587e-05 -1.04979e-06
0.0246519 -1.39131e-05 -4.76313e-07
0.0246424 -9.42527e-06 -2.03041e-07
0.0246361 -6.41566e-06 -7.50339e-08
0.0246319 -4.38371e-06 -1.70939e-08
0.0246291 -3.00422e-06 7.26043e-09
0.0246272 -2.06352e-06 1.57831e-08
0.0246259 -1.41984e-06 1.71307e-08
0.024625 -9.7826e-07 1.55034e-08
0.0246244 -6.74761e-07 1.28999e-08
0.024624 -4.65902e-07 1.02275e-08
0.0246237 -3.22047e-07 7.85463e-09
0.0246235 -2.2287e-07 5.88953e-09
0.0246234 -1.54332e-07 4.32071e-09
0.0246233 -1.06615e-07 3.08275e-09
0.0246232 -7.27027e-08 2.09155e-09
0.0246232 -4.73603e-08 1.28161e-09
0.0246232 -2.63408e-08 5.76598e-10
0.0246231 -5.7626e-09 -7.41512e-12
0.0246231 1.86403e-08 -3.60293e-10
0.0246231 5.16623e-08 -8.4663e-10
0.0246231 1.01319e-07 -3.30727e-09
0.0246232 1.71348e-07 -1.9678e-08
0.0246233 2.11012e-07 -3.39711e-08
0.01 -9.26096e-07 -2.86138e-06
0.0100008 -0.000628533 -0.00229872
0.0113349 -0.00069255 -0.00414044
0.0132349 0.000586307 -0.0029271
0.0157291 0.00256138 -0.00185035
0.0196918 0.00560177 -0.00185991
0.0256315 0.00836948 -0.00238488