# vtk DataFile Version 2.0
Tobias Weinzierl: CPU, Manycore and Cluster Computing
ASCII

DATASET STRUCTURED_POINTS
DIMENSIONS  51 11 6

ORIGIN 0 0 0 

SPACING 0.1 0.1 0.1 

POINT_DATA 3366

VECTORS velocity float
0 0 0
-5.38673e-13 0 0
-1.01953e-10 0 0
4.96688e-11 0 0
-2.19705e-09 0 0
2.15891e-09 0 0
3.16634e-09 0 0
3.24613e-09 0 0
3.46882e-09 0 0
3.96351e-09 0 0
4.39435e-09 0 0
4.44367e-09 0 0
4.04382e-09 0 0
3.21662e-09 0 0
1.93108e-09 0 0
3.56837e-10 0 0
-1.09774e-09 0 0
-2.12655e-09 0 0
-2.76899e-09 0 0
-3.28546e-09 0 0
-3.90043e-09 0 0
-4.67615e-09 0 0
-5.54274e-09 0 0
-6.38647e-09 0 0
-7.11675e-09 0 0
-7.69034e-09 0 0
-8.1053e-09 0 0
-8.38403e-09 0 0
-8.55783e-09 0 0
-8.65716e-09 0 0
-8.70722e-09 0 0
-8.72682e-09 0 0
-8.72906e-09 0 0
-8.72246e-09 0 0
-8.71227e-09 0 0
-8.70147e-09 0 0
-8.69157e-09 0 0
-8.68321e-09 0 0
-8.67652e-09 0 0
-8.67137e-09 0 0
-8.66752e-09 0 0
-8.66472e-09 0 0
-8.66274e-09 0 0
-8.66136e-09 0 0
-8.66044e-09 0 0
-8.65985e-09 0 0
-8.65951e-09 0 0
-8.65937e-09 0 0
-8.6594e-09 0 0
-8.65973e-09 0 0
0.00190896 0 0
0 3.86753e-07 0
-1.22788e-12 -1.851e-10 0
-1.78743e-10 -9.56582e-10 0
8.23435e-10 -2.90092e-10 0
-8.0351e-10 -1.82469e-09 0
6.6536e-09 -2.13166e-09 0
7.81894e-09 8.26211e-10 0
7.87114e-09 5.77406e-10 0
9.33298e-09 -9.51507e-10 0
1.15363e-08 -2.23563e-09 0
1.32e-08 -2.88236e-09 0
1.36781e-08 -2.78964e-09 0
1.27134e-08 -1.71845e-09 0
1.03974e-08 1.53698e-10 0
7.16682e-09 1.90478e-09 0
3.74819e-09 2.64295e-09 0
8.1398e-10 2.31561e-09 0
-1.44194e-09 1.54736e-09 0
-3.35535e-09 9.57157e-10 0
-5.41042e-09 7.55389e-10 0
-7.86184e-09 8.16675e-10 0
-1.06376e-08 9.30769e-10 0
-1.34639e-08 9.64925e-10 0
-1.60442e-08 8.90531e-10 0
-1.81789e-08 7.40828e-10 0
-1.97979e-08 5.63901e-10 0
-2.09327e-08 3.96639e-10 0
-2.16697e-08 2.58343e-10 0
-2.21105e-08 1.54327e-10 0
-2.23473e-08 8.18407e-11 0
-2.24536e-08 3.47824e-11 0
-2.24825e-08 6.52344e-12 0
-2.24697e-08 -8.75965e-12 0
-2.2438e-08 -1.56481e-11 0
-2.24006e-08 -1.74841e-11 0
-2.23646e-08 -1.65573e-11 0
-2.23332e-08 -1.43434e-11 0
-2.23075e-08 -1.17298e-11 0
-2.22874e-08 -9.20313e-12 0
-2.22722e-08 -6.99333e-12 0
-2.22609e-08 -5.17645e-12 0
-2.22528e-08 -3.74393e-12 0
-2.2247e-08 -2.64681e-12 0
-2.2243e-08 -1.82181e-12 0
-2.22403e-08 -1.20442e-12 0
-2.22386e-08 -7.35252e-13 0
-2.22376e-08 -3.5589e-13 0
-2.22371e-08 6.18232e-15 0
-2.22373e-08 5.30085e-13 0
-2.22383e-08 1.67795e-12 0
0.00549456 -1.64234e-08 0
0 -1.94448e-08 0
-7.88776e-13 -3.01709e-10 0
6.71862e-10 -2.42473e-09 0
3.75341e-09 -5.08776e-09 0
6.65984e-09 -8.98798e-09 0
1.198e-08 -6.5458e-09 0
9.28899e-09 -5.98277e-11 0
8.20806e-09 -6.03948e-10 0
1.01213e-08 -3.76761e-09 0
1.41986e-08 -6.7759e-09 0
1.67791e-08 -9.38034e-09 0
1.67818e-08 -1.08542e-08 0
1.48733e-08 -9.67104e-09 0
1.14981e-08 -5.80031e-09 0
7.47774e-09 -1.00305e-09 0
3.62528e-09 3.0601e-09 0
4.2358e-10 5.76641e-09 0
-2.10744e-09 7.16292e-09 0
-4.2841e-09 7.53716e-09 0
-6.48202e-09 7.23109e-09 0
-8.91979e-09 6.53062e-09 0
-1.15784e-08 5.61796e-09 0
-1.42509e-08 4.60492e-09 0
-1.66727e-08 3.5821e-09 0
-1.86459e-08 2.63283e-09 0
-2.00945e-08 1.82037e-09 0
-2.10514e-08 1.17584e-09 0
-2.16111e-08 6.99201e-10 0
-2.18857e-08 3.69438e-10 0
-2.19759e-08 1.5622e-10 0
-2.19593e-08 2.86321e-11 0
-2.18898e-08 -4.00869e-11 0
-2.18012e-08 -7.08845e-11 0
-2.17128e-08 -7.89704e-11 0
-2.16341e-08 -7.47069e-11 0
-2.15686e-08 -6.473e-11 0
-2.15166e-08 -5.30043e-11 0
-2.14768e-08 -4.16905e-11 0
-2.1447e-08 -3.18023e-11 0
-2.14253e-08 -2.36721e-11 0
-2.14097e-08 -1.72617e-11 0
-2.13986e-08 -1.23574e-11 0
-2.13909e-08 -8.68512e-12 0
-2.13857e-08 -5.9713e-12 0
-2.13822e-08 -3.96841e-12 0
-2.138e-08 -2.45814e-12 0
-2.13787e-08 -1.22265e-12 0
-2.13782e-08 3.69607e-14 0
-2.13785e-08 1.6847e-12 0
-2.13796e-08 4.08716e-12 0
0.00792501 -4.00863e-08 0
0 -6.39772e-07 0
1.37706e-13 -1.39864e-09 0
1.64992e-09 -5.09476e-09 0
5.6862e-09 -9.80992e-09 0
7.69593e-09 -1.35683e-08 0
7.48534e-09 -7.45723e-09 0
4.63578e-09 -4.3925e-12 0
3.58299e-09 -1.25148e-09 0
2.9642e-09 -5.23884e-09 0
4.57596e-09 -1.08716e-08 0
6.72274e-09 -1.61522e-08 0
6.74177e-09 -1.92895e-08 0
5.4413e-09 -1.82985e-08 0
2.5057e-09 -1.3141e-08 0
-1.5641e-09 -5.49817e-09 0
-5.92961e-09 2.80339e-09 0
-9.66835e-09 9.74771e-09 0
-1.20588e-08 1.37584e-08 0
-1.28645e-08 1.45867e-08 0
-1.24256e-08 1.31798e-08 0
-1.14268e-08 1.07802e-08 0
-1.04867e-08 8.25373e-09 0
-9.89175e-09 5.99551e-09 0
-9.61526e-09 4.12149e-09 0
-9.49358e-09 2.64071e-09 0
-9.37969e-09 1.5282e-09 0
-9.20309e-09 7.41375e-10 0
-8.95949e-09 2.24396e-10 0
-8.67759e-09 -8.46004e-11 0
-8.39171e-09 -2.44846e-10 0
-8.128e-09 -3.06714e-10 0
-7.90103e-09 -3.09125e-10 0
-7.71562e-09 -2.79776e-10 0
-7.57015e-09 -2.36889e-10 0
-7.45957e-09 -1.91476e-10 0
-7.37765e-09 -1.49485e-10 0
-7.31821e-09 -1.13568e-10 0
-7.27581e-09 -8.44004e-11 0
-7.24602e-09 -6.15852e-11 0
-7.22533e-09 -4.42397e-11 0
-7.21114e-09 -3.13408e-11 0
-7.2015e-09 -2.19108e-11 0
-7.19503e-09 -1.50998e-11 0
-7.19075e-09 -1.02084e-11 0
-7.188e-09 -6.67385e-12 0
-7.18633e-09 -4.03051e-12 0
-7.18542e-09 -1.86839e-12 0
-7.18501e-09 1.8786e-13 0
-7.18485e-09 2.39439e-12 0
-7.18504e-09 4.71106e-12 0
0.00899232 -4.4517e-08 0
0 -1.25543e-06 0
-8.60323e-13 -2.71419e-09 0
4.57068e-10 -7.64075e-09 0
1.97777e-09 -1.0144e-08 0
1.86163e-09 -8.20862e-09 0
-4.78557e-13 -2.99293e-09 0
-2.4232e-11 -2.56913e-11 0
2.40058e-11 -2.45854e-11 0
-1.29304e-09 -3.20499e-09 0
-6.20098e-09 -1.13401e-08 0
-8.83803e-09 -2.01068e-08 0
-8.17533e-09 -2.56762e-08 0
-8.55615e-09 -2.53059e-08 0
-1.07864e-08 -1.82913e-08 0
-1.41121e-08 -7.09204e-09 0
-1.7572e-08 4.95223e-09 0
-2.02333e-08 1.42142e-08 0
-2.12084e-08 1.84513e-08 0
-1.99305e-08 1.78853e-08 0
-1.65943e-08 1.4457e-08 0
-1.21371e-08 1.02371e-08 0
-7.67015e-09 6.47248e-09 0
-3.92378e-09 3.57944e-09 0
-1.10796e-09 1.53293e-09 0
9.04132e-10 1.77144e-10 0
2.34016e-09 -6.46892e-10 0
3.3928e-09 -1.07675e-09 0
4.18625e-09 -1.23044e-09 0
4.79195e-09 -1.20678e-09 0
5.25237e-09 -1.08339e-09 0
5.59704e-09 -9.16117e-10 0
5.84987e-09 -7.41303e-10 0
6.03141e-09 -5.79747e-10 0
6.15911e-09 -4.41211e-10 0
6.24731e-09 -3.28385e-10 0
6.30723e-09 -2.39937e-10 0
6.34735e-09 -1.72611e-10 0
6.37389e-09 -1.22551e-10 0
6.39124e-09 -8.60244e-11 0
6.40247e-09 -5.97796e-11 0
6.40966e-09 -4.11536e-11 0
6.4142e-09 -2.80588e-11 0
6.41704e-09 -1.89067e-11 0
6.41876e-09 -1.25102e-11 0
6.41977e-09 -7.98639e-12 0
6.42034e-09 -4.68039e-12 0
6.42072e-09 -2.12634e-12 0
6.42117e-09 -4.21418e-14 0
6.42193e-09 1.69503e-12 0
6.42263e-09 3.09378e-12 0
0.00941303 -2.49355e-08 0
0 -1.13784e-06 0
-2.48914e-12 -2.7156e-09 0
-1.33418e-09 -6.23297e-09 0
-1.5726e-09 -7.81827e-09 0
-2.61221e-09 -7.91611e-09 0
-1.8758e-09 -3.61585e-09 0
-2.39228e-11 2.32034e-11 0
7.99517e-13 -7.99517e-13 0
2.41375e-11 -2.38756e-11 0
-4.15112e-09 -5.68848e-09 0
-1.40433e-08 -1.88282e-08 0
-1.74129e-08 -2.83453e-08 0
-1.97215e-08 -2.77019e-08 0
-2.18552e-08 -1.91915e-08 0
-2.3229e-08 -6.37611e-09 0
-2.36694e-08 6.62578e-09 0
-2.32846e-08 1.5804e-08 0
-2.18988e-08 1.90277e-08 0
-1.89685e-08 1.69538e-08 0
-1.4314e-08 1.2047e-08 0
-8.59138e-09 6.75922e-09 0
-2.90672e-09 2.47224e-09 0
1.86486e-09 -4.54791e-10 0
5.39282e-09 -2.18675e-09 0
7.77903e-09 -3.02614e-09 0
9.30521e-09 -3.25392e-09 0
1.02524e-08 -3.09649e-09 0
1.08319e-08 -2.72757e-09 0
1.11827e-08 -2.2728e-09 0
1.13918e-08 -1.81488e-09 0
1.15131e-08 -1.40105e-09 0
1.15804e-08 -1.05244e-09 0
1.1615e-08 -7.7312e-10 0
1.16306e-08 -5.57597e-10 0
1.16356e-08 -3.96094e-10 0
1.16352e-08 -2.77841e-10 0
1.16322e-08 -1.92845e-10 0
1.16285e-08 -1.32659e-10 0
1.16249e-08 -9.05524e-11 0
1.16216e-08 -6.13779e-11 0
1.16189e-08 -4.13156e-11 0
1.16168e-08 -2.75929e-11 0
1.16151e-08 -1.82284e-11 0
1.16139e-08 -1.18236e-11 0
1.1613e-08 -7.40673e-12 0
1.16125e-08 -4.32852e-12 0
1.16123e-08 -2.18578e-12 0
1.16127e-08 -7.49783e-13 0
1.16136e-08 5.74618e-14 0
1.16145e-08 3.49053e-13 0
0.00952024 7.57822e-09 0
0 -7.83871e-07 0
-1.84386e-12 -1.59074e-09 0
-1.32855e-09 -4.06663e-09 0
-1.28716e-09 -5.3471e-09 0
-3.27757e-09 -5.73903e-09 0
-4.41608e-09 -4.42832e-09 0
-2.03073e-09 -1.56034e-09 0
-2.31298e-11 2.32777e-11 0
8.56528e-13 -8.56528e-13 0
2.47619e-11 -2.35146e-11 0
-6.45594e-09 -1.052e-08 0
-1.62951e-08 -2.45389e-08 0
-2.29832e-08 -2.51877e-08 0
-2.63477e-08 -1.63657e-08 0
-2.67811e-08 -3.83095e-09 0
-2.46112e-08 7.73345e-09 0
-2.08769e-08 1.48857e-08 0
-1.6663e-08 1.63001e-08 0
-1.22468e-08 1.30498e-08 0
-7.48586e-09 7.63624e-09 0
-2.59086e-09 2.37362e-09 0
1.81315e-09 -1.52868e-09 0
5.15839e-09 -3.86204e-09 0
7.26389e-09 -4.90952e-09 0
8.30454e-09 -5.06538e-09 0
8.60989e-09 -4.67842e-09 0
8.49627e-09 -4.01637e-09 0
8.19398e-09 -3.26716e-09 0
7.84255e-09 -2.54879e-09 0
7.51356e-09 -1.92337e-09 0
7.23609e-09 -1.41328e-09 0
7.01609e-09 -1.01654e-09 0
6.84856e-09 -7.18771e-10 0
6.72456e-09 -5.01297e-10 0
6.63462e-09 -3.45788e-10 0
6.57036e-09 -2.36398e-10 0
6.52497e-09 -1.60427e-10 0
6.49317e-09 -1.08191e-10 0
6.47104e-09 -7.25547e-11 0
6.4557e-09 -4.83909e-11 0
6.44511e-09 -3.20814e-11 0
6.43784e-09 -2.11075e-11 0
6.43286e-09 -1.37367e-11 0
6.42951e-09 -8.79419e-12 0
6.42733e-09 -5.50067e-12 0
6.42602e-09 -3.35413e-12 0
6.42542e-09 -2.04924e-12 0
6.42542e-09 -1.43095e-12 0
6.42594e-09 -1.53648e-12 0
6.42642e-09 -2.35019e-12 0
0.00941302 3.73069e-08 0
0 -5.4913e-07 0
-7.2943e-13 -9.51277e-10 0
-4.9418e-10 -2.62707e-09 0
-6.27771e-10 -4.01533e-09 0
-2.30187e-09 -4.28564e-09 0
-5.20204e-09 -2.63794e-09 0
-5.86826e-09 -4.91318e-10 0
-3.64386e-09 2.00441e-10 0
-2.47688e-11 2.17882e-11 0
2.49747e-11 1.90338e-11 0
2.65432e-12 -5.84875e-09 0
-9.49414e-09 -1.5715e-08 0
-2.09859e-08 -1.70002e-08 0
-2.85588e-08 -8.60769e-09 0
-3.0061e-08 1.99644e-09 0
-2.56553e-08 9.59126e-09 0
-1.80327e-08 1.23744e-08 0
-1.05495e-08 1.07641e-08 0
-5.03166e-09 6.50349e-09 0
-1.52812e-09 1.7444e-09 0
5.46461e-10 -1.98612e-09 0
1.5796e-09 -4.18669e-09 0
1.72358e-09 -5.06578e-09 0
1.13076e-09 -5.06085e-09 0
4.57738e-11 -4.56291e-09 0
-1.25467e-09 -3.84672e-09 0
-2.54481e-09 -3.08614e-09 0
-3.68652e-09 -2.38152e-09 0
-4.6221e-09 -1.7814e-09 0
-5.34826e-09 -1.29964e-09 0
-5.8902e-09 -9.29543e-10 0
-6.28325e-09 -6.54506e-10 0
-6.56241e-09 -4.55201e-10 0
-6.75768e-09 -3.13504e-10 0
-6.89277e-09 -2.14211e-10 0
-6.98549e-09 -1.45395e-10 0
-7.04878e-09 -9.81079e-11 0
-7.0918e-09 -6.58341e-11 0
-7.12097e-09 -4.39298e-11 0
-7.1407e-09 -2.91337e-11 0
-7.15402e-09 -1.91816e-11 0
-7.16299e-09 -1.25172e-11 0
-7.16899e-09 -8.08235e-12 0
-7.17296e-09 -5.16616e-12 0
-7.17554e-09 -3.30035e-12 0
-7.17715e-09 -2.18911e-12 0
-7.17808e-09 -1.6708e-12 0
-7.17849e-09 -1.71255e-12 0
-7.17858e-09 -2.46486e-12 0
-7.17888e-09 -4.01506e-12 0
0.00899232 4.99342e-08 0
0 -4.65357e-07 0
-6.85844e-13 -4.93375e-10 0
9.74883e-11 -1.44681e-09 0
-3.75446e-10 -2.32657e-09 0
-2.78198e-09 -2.61897e-09 0
-6.70072e-09 -8.71485e-10 0
-8.83686e-09 1.57801e-09 0
-8.52699e-09 -7.0912e-10 0
-5.65303e-09 -1.9129e-09 0
-4.47181e-09 -1.06287e-13 0
-3.15519e-09 -4.13525e-09 0
-1.01727e-08 -8.7686e-09 0
-2.30607e-08 -6.55698e-09 0
-3.20321e-08 -3.35846e-11 0
-3.16581e-08 6.18619e-09 0
-2.32477e-08 8.81558e-09 0
-1.23925e-08 7.56273e-09 0
-4.41265e-09 3.90621e-09 0
-1.27026e-09 -1.34166e-10 0
-1.88052e-09 -2.98545e-09 0
-4.25515e-09 -4.16214e-09 0
-7.01389e-09 -4.08699e-09 0
-9.6004e-09 -3.43905e-09 0
-1.1901e-08 -2.69667e-09 0
-1.39167e-08 -2.06117e-09 0
-1.56454e-08 -1.56663e-09 0
-1.70794e-08 -1.18869e-09 0
-1.8225e-08 -8.97553e-10 0
-1.9108e-08 -6.71737e-10 0
-1.97682e-08 -4.97033e-10 0
-2.02498e-08 -3.63251e-10 0
-2.05943e-08 -2.62235e-10 0
-2.08371e-08 -1.87098e-10 0
-2.10065e-08 -1.32016e-10 0
-2.11235e-08 -9.21782e-11 0
-2.12039e-08 -6.37217e-11 0
-2.12589e-08 -4.36246e-11 0
-2.12963e-08 -2.95793e-11 0
-2.13216e-08 -1.98591e-11 0
-2.13388e-08 -1.31946e-11 0
-2.13503e-08 -8.66885e-12 0
-2.13581e-08 -5.62941e-12 0
-2.13632e-08 -3.62e-12 0
-2.13667e-08 -2.32833e-12 0
-2.13689e-08 -1.55055e-12 0
-2.13704e-08 -1.16824e-12 0
-2.13715e-08 -1.13633e-12 0
-2.13722e-08 -1.47804e-12 0
-2.1373e-08 -2.29988e-12 0
-2.13743e-08 -3.67823e-12 0
0.00792502 3.87454e-08 0
0 -4.79511e-07 0
-2.41722e-13 -4.98158e-11 0
3.94727e-10 -2.36953e-10 0
-3.35821e-10 -4.91252e-10 0
-3.25172e-09 -6.01181e-10 0
-7.84689e-09 -4.40314e-10 0
-1.0689e-08 6.53957e-10 0
-1.04557e-08 3.69433e-10 0
-1.22066e-08 -8.55305e-10 0
-1.13198e-08 -9.62214e-10 0
-9.63199e-09 -1.09432e-09 0
-1.31099e-08 7.53414e-11 0
-1.87434e-08 2.17968e-09 0
-2.17004e-08 3.42595e-09 0
-1.8637e-08 3.50312e-09 0
-1.11443e-08 2.46421e-09 0
-3.8774e-09 6.94756e-10 0
-5.27935e-10 -1.04966e-09 0
-1.59334e-09 -2.06968e-09 0
-5.22743e-09 -2.18842e-09 0
-9.33049e-09 -1.72749e-09 0
-1.27435e-08 -1.12665e-09 0
-1.52256e-08 -6.54865e-10 0
-1.69686e-08 -3.74834e-10 0
-1.82271e-08 -2.39661e-10 0
-1.91791e-08 -1.82631e-10 0
-1.99225e-08 -1.5663e-10 0
-2.05072e-08 -1.38237e-10 0
-2.09625e-08 -1.19466e-10 0
-2.13111e-08 -9.9525e-11 0
-2.15728e-08 -7.98573e-11 0
-2.17657e-08 -6.19489e-11 0
-2.19057e-08 -4.66728e-11 0
-2.20059e-08 -3.42904e-11 0
-2.20767e-08 -2.46483e-11 0
-2.21263e-08 -1.73776e-11 0
-2.21607e-08 -1.20374e-11 0
-2.21843e-08 -8.20088e-12 0
-2.22005e-08 -5.49705e-12 0
-2.22115e-08 -3.62442e-12 0
-2.22189e-08 -2.34961e-12 0
-2.22239e-08 -1.49882e-12 0
-2.22272e-08 -9.4732e-13 0
-2.22295e-08 -6.09747e-13 0
-2.2231e-08 -4.33185e-13 0
-2.22321e-08 -3.90463e-13 0
-2.22329e-08 -4.75107e-13 0
-2.22338e-08 -6.84795e-13 0
-2.22349e-08 -9.99351e-13 0
-2.22366e-08 -1.48004e-12 0
0.00549459 1.35943e-08 0
0 0 0
1.6701e-13 0 0
2.41631e-10 0 0
-1.44802e-10 0 0
-1.53825e-09 0 0
-3.80738e-09 0 0
-5.68993e-09 0 0
-5.57268e-09 0 0
-6.55504e-09 0 0
-6.8478e-09 0 0
-6.4741e-09 0 0
-6.17948e-09 0 0
-5.6133e-09 0 0
-4.75975e-09 0 0
-3.18178e-09 0 0
-1.20172e-09 0 0
1.27845e-10 0 0
4.11393e-11 0 0
-1.31272e-09 0 0
-3.17738e-09 0 0
-4.86067e-09 0 0
-6.06951e-09 0 0
-6.83336e-09 0 0
-7.30029e-09 0 0
-7.60415e-09 0 0
-7.82602e-09 0 0
-8.00367e-09 0 0
-8.15114e-09 0 0
-8.27292e-09 0 0
-8.37117e-09 0 0
-8.44825e-09 0 0
-8.50711e-09 0 0
-8.55101e-09 0 0
-8.58309e-09 0 0
-8.60613e-09 0 0
-8.62244e-09 0 0
-8.63385e-09 0 0
-8.64174e-09 0 0
-8.64714e-09 0 0
-8.65082e-09 0 0
-8.6533e-09 0 0
-8.65497e-09 0 0
-8.65609e-09 0 0
-8.65685e-09 0 0
-8.65738e-09 0 0
-8.65778e-09 0 0
-8.65814e-09 0 0
-8.65852e-09 0 0
-8.65903e-09 0 0
-8.6598e-09 0 0
0.00190898 0 0
0 0 5.36568e-07
-1.13999e-12 0 2.86213e-10
-7.17783e-10 0 9.05536e-10
1.00538e-10 0 2.38435e-09
-7.71661e-09 0 -2.85379e-10
3.56508e-09 0 -3.23254e-09
7.04731e-09 0 -1.91425e-09
8.12739e-09 0 -8.80701e-10
8.80091e-09 0 2.3332e-10
9.59646e-09 0 1.3093e-09
1.09902e-08 0 2.40141e-09
1.3322e-08 0 3.1394e-09
1.60078e-08 0 2.94473e-09
1.77089e-08 0 1.95828e-09
1.70704e-08 0 9.54259e-10
1.38941e-08 0 3.85141e-10
9.26456e-09 0 1.67051e-10
4.50803e-09 0 1.23184e-10
2.41976e-10 0 2.01057e-10
-3.62526e-09 0 3.75372e-10
-7.35874e-09 0 5.73344e-10
-1.10244e-08 0 7.10887e-10
-1.447e-08 0 7.44758e-10
-1.748e-08 0 6.82853e-10
-1.99087e-08 0 5.62446e-10
-2.17255e-08 0 4.2407e-10
-2.29916e-08 0 2.9648e-10
-2.38154e-08 0 1.93631e-10
-2.43132e-08 0 1.18273e-10
-2.45874e-08 0 6.70409e-11
-2.47181e-08 0 3.43913e-11
-2.47626e-08 0 1.48473e-11
-2.47597e-08 0 3.94958e-12
-2.4734e-08 0 -1.56375e-12
-2.47e-08 0 -3.91283e-12
-2.46658e-08 0 -4.52499e-12
-2.46353e-08 0 -4.27155e-12
-2.46099e-08 0 -3.65627e-12
-2.45899e-08 0 -2.95157e-12
-2.45745e-08 0 -2.29102e-12
-2.45631e-08 0 -1.72908e-12
-2.45548e-08 0 -1.27782e-12
-2.45489e-08 0 -9.28853e-13
-2.45448e-08 0 -6.6606e-13
-2.4542e-08 0 -4.71882e-13
-2.45402e-08 0 -3.32253e-13
-2.45391e-08 0 -2.40217e-13
-2.45386e-08 0 -2.0949e-13
-2.45387e-08 0 -2.3423e-13
-2.45396e-08 0 -5.74821e-15
0.00542637 0 -8.79112e-10
0.0036 -3.07055e-07 -6.21926e-08
0.0035998 -0.0013899 -2.22117e-05
0.00670227 -0.00393655 0.000111978
0.0136126 -0.005881 -0.000497398
0.0235057 -0.0144794 -0.00426958
0.0463882 -0.0134408 -0.00488711
0.0499213 -0.00194015 -0.00164569
0.0496632 0.00262996 -0.000163099
0.0446812 0.00495386 0.000573203
0.0390808 0.0051175 0.000566886
0.033987 0.00444637 0.000305427
0.0297136 0.00356133 3.53995e-05
0.026324 0.00269275 -0.0001596
0.0237462 0.00193928 -0.000261696
0.0218266 0.0013454 -0.000282869
0.0203939 0.000914838 -0.000248059
0.0193089 0.000623223 -0.000184773
0.0184771 0.000434418 -0.000116569
0.0178391 0.000312694 -5.92703e-05
0.0173562 0.000230381 -1.9626e-05
0.0169992 0.000170281 2.91628e-06
0.0167433 0.000123759 1.26798e-05
0.0165662 8.72e-05 1.46577e-05
0.0164484 5.90581e-05 1.2841e-05
0.0163735 3.82285e-05 9.77836e-06
0.0163282 2.35028e-05 6.79409e-06
0.0163025 1.35732e-05 4.40499e-06
0.0162892 7.19146e-06 2.69284e-06
0.0162832 3.29465e-06 1.55499e-06
0.0162815 1.05458e-06 8.41804e-07
0.0162819 -1.31623e-07 4.17176e-07
0.0162833 -6.79514e-07 1.77187e-07
0.0162849 -8.62477e-07 4.97881e-08
0.0162865 -8.52684e-07 -1.19891e-08
0.0162879 -7.53625e-07 -3.73496e-08
0.016289 -6.24113e-07 -4.37244e-08
0.0162899 -4.95075e-07 -4.10974e-08
0.0162906 -3.808e-07 -3.49211e-08
0.0162911 -2.86188e-07 -2.79878e-08
0.0162915 -2.11236e-07 -2.15881e-08
0.0162917 -1.53692e-07 -1.62029e-08
0.0162919 -1.10542e-07 -1.19068e-08
0.0162921 -7.87906e-08 -8.59777e-09
0.0162922 -5.5808e-08 -6.11331e-09
0.0162922 -3.94562e-08 -4.28481e-09
0.0162923 -2.80743e-08 -2.9184e-09
0.0162923 -2.04381e-08 -1.71226e-09
0.0162923 -1.57938e-08 2.06283e-10
0.0162924 -1.52904e-08 3.58248e-09
0.0162924 -3.2363e-08 6.46758e-10
0.0162925 -4.83051e-08 -4.35729e-09
0.01 -1.37166e-07 -1.45803e-06
0.0100007 -0.00298563 -0.000598984
0.0147861 -0.00996726 -0.000794153
0.0241886 -0.0177577 -0.00123272
0.0386145 -0.0326214 -0.00333776
0.0593257 -0.0249367 -0.0008152
0.0565512 -0.00276573 0.00318545
0.0559863 0.00506562 0.00338868
0.05021 0.010032 0.00300761
0.0447518 0.0101657 0.00213038
0.0402667 0.00906814 0.00120047
0.0365742 0.00764052 0.000464157
0.0336179 0.00617781 -5.36748e-05
0.0313489 0.00484744 -0.000361608
0.029613 0.00373469 -0.000480613
0.0282591 0.00284648 -0.000460422
0.0271871 0.00214903 -0.000362467
0.0263427 0.00160367 -0.00024133
0.0256936 0.00117929 -0.000133704
0.0252119 0.000852145 -5.59681e-05
0.0248683 0.000603199 -9.09314e-06
0.0246333 0.000416675 1.37898e-05
0.0244799 0.000279587 2.13353e-05
0.0243853 0.00018126 2.07685e-05
0.024331 0.000112799 1.69175e-05
0.0243032 6.6741e-05 1.24594e-05
0.0242917 3.69216e-05 8.58422e-06
0.0242894 1.84314e-05 5.63563e-06
0.0242918 7.53625e-06 3.56302e-06
0.0242963 1.5275e-06 2.18176e-06
0.0243012 -1.47235e-06 1.2966e-06
0.0243057 -2.71073e-06 7.46992e-07
0.0243095 -2.98294e-06 4.15221e-07
0.0243126 -2.77453e-06 2.20465e-07
0.0243151 -2.36755e-06 1.0958e-07
0.0243169 -1.9156e-06 4.87222e-08
0.0243182 -1.49458e-06 1.69065e-08
0.0243192 -1.13562e-06 1.43786e-09
0.0243199 -8.4572e-07 -5.17461e-09
0.0243204 -6.20057e-07 -7.23115e-09
0.0243208 -4.49033e-07 -7.11934e-09
0.024321 -3.22043e-07 -6.10952e-09
0.0243212 -2.29303e-07 -4.85042e-09
0.0243213 -1.62569e-07 -3.64677e-09
0.0243214 -1.15304e-07 -2.61404e-09
0.0243215 -8.26034e-08 -1.68104e-09
0.0243215 -6.11305e-08 -4.32441e-10
0.0243216 -5.11789e-08 1.91109e-09
0.0243216 -5.68316e-08 5.12079e-09
0.0243217 -9.08565e-08 -3.93261e-09
0.0243217 -1.17533e-07 -1.4636e-08
0.0148 -9.6109e-07 -1.75213e-06
0.0148024 -0.00529945 -0.0011253
0.0204027 -0.0164526 -0.00244926
0.0276033 -0.0289092 -0.00394232
0.0322751 -0.0463356 -0.00577675
0.0307292 -0.0285992 -0.00142264
0.0269226 -1.23834e-05 0.00330571
0.0263598 0.00705079 0.00352464
0.0298475 0.0143679 0.00343854
0.0301951 0.0137569 0.0024835
0.0294056 0.0119522 0.00153232
0.0285844 0.0100979 0.000703827
0.0279703 0.00823181 0.000103713
0.0276661 0.00651388 -0.000257531
0.027544 0.00507912 -0.000400098
0.0274987 0.00391215 -0.000390124
0.0274851 0.00295962 -0.000300756
0.0274927 0.00218548 -0.00018934
0.02752 0.00157049 -9.08468e-05
0.0275633 0.00109791 -2.01771e-05
0.0276165 0.000746506 2.1447e-05
0.0276735 0.000492341 3.98481e-05
0.0277301 0.000312951 4.29735e-05
0.0277833 0.000189599 3.79786e-05
0.0278312 0.000107441 2.99752e-05
0.0278726 5.48799e-05 2.19367e-05
0.027907 2.29301e-05 1.52e-05
0.0279347 4.78384e-06 1.01017e-05
0.0279563 -4.53666e-06 6.49171e-06
0.0279727 -8.51404e-06 4.05361e-06
0.0279848 -9.47099e-06 2.46525e-06
0.0279936 -8.88033e-06 1.46066e-06
0.0279998 -7.62516e-06 8.41715e-07
0.0280042 -6.20006e-06 4.698e-07
0.0280073 -4.85644e-06 2.51977e-07
0.0280094 -3.70179e-06 1.2794e-07
0.0280108 -2.76397e-06 5.96091e-08
0.0280118 -2.03078e-06 2.35281e-08
0.0280125 -1.47318e-06 5.58937e-09
0.028013 -1.05786e-06 -2.48776e-09
0.0280133 -7.53505e-07 -5.43563e-09
0.0280135 -5.33384e-07 -5.87479e-09
0.0280136 -3.75974e-07 -5.21647e-09
0.0280137 -2.64654e-07 -4.18093e-09
0.0280138 -1.8701e-07 -3.05845e-09
0.0280138 -1.34471e-07 -1.86892e-09
0.0280139 -1.01862e-07 -1.74681e-10
0.0280139 -8.807e-08 1.90784e-09
0.0280139 -9.53103e-08 9.07193e-10
0.028014 -1.19822e-07 -1.52985e-08
0.0280139 -1.35094e-07 -2.94959e-08
0.018 -1.93763e-06 -1.69846e-06
0.018003 -0.00701436 -0.00187425
0.0207951 -0.0190539 -0.00492615
0.0207586 -0.0250856 -0.00634797
0.0161115 -0.0271014 -0.00763617
-1.61029e-06 -0.0140651 -0.0043411
9.72883e-05 2.60854e-05 9.28735e-07
-3.31583e-05 3.45048e-05 0.000655846
0.00655744 0.00405091 0.00144705
0.0133727 0.00916645 0.00142171
0.0167677 0.00992454 0.00101729
0.0185554 0.00892969 0.000485946
0.0202648 0.0073953 3.34542e-06
0.0219631 0.00582154 -0.000269504
0.023483 0.0045058 -0.000347691
0.0247612 0.0034268 -0.000309369
0.0258091 0.0025284 -0.000222601
0.026661 0.00178989 -0.000129767
0.0273484 0.00120894 -5.16844e-05
0.0278951 0.000777156 4.15943e-06
0.0283208 0.000472839 3.74175e-05
0.0286454 0.000267479 5.16547e-05
0.0288883 0.000134051 5.24283e-05
0.0290675 5.10408e-05 4.55614e-05
0.0291979 2.57476e-06 3.57752e-05
0.0292917 -2.28566e-05 2.60945e-05
0.0293581 -3.35908e-05 1.79845e-05
0.0294043 -3.55699e-05 1.18436e-05
0.0294361 -3.28618e-05 7.50636e-06
0.0294575 -2.80887e-05 4.59738e-06
0.0294717 -2.28114e-05 2.72498e-06
0.029481 -1.78627e-05 1.56127e-06
0.0294871 -1.3612e-05 8.60836e-07
0.0294909 -1.01578e-05 4.5237e-07
0.0294934 -7.45647e-06 2.22094e-07
0.0294949 -5.40243e-06 9.73006e-08
0.0294959 -3.87344e-06 3.30401e-08
0.0294965 -2.75389e-06 2.35025e-09
0.0294969 -1.9447e-06 -1.04691e-08
0.0294971 -1.36588e-06 -1.42817e-08
0.0294972 -9.55344e-07 -1.39163e-08
0.0294973 -6.66259e-07 -1.18855e-08
0.0294974 -4.64062e-07 -9.42504e-09
0.0294974 -3.23749e-07 -7.08437e-09
0.0294975 -2.2767e-07 -4.99512e-09
0.0294975 -1.63857e-07 -3.19921e-09
0.0294975 -1.2458e-07 -1.55947e-09
0.0294975 -1.03829e-07 -6.73415e-10
0.0294975 -9.77677e-08 -7.01141e-09
0.0294975 -9.18538e-08 -2.63131e-08
0.0294974 -8.55115e-08 -3.92246e-08
0.0196 -2.8176e-06 -2.56122e-06
0.019601 -0.0059294 -0.00274398
0.0190536 -0.0132337 -0.00648556
0.0159296 -0.0162801 -0.00669676
0.0108614 -0.015267 -0.00669452
0.00170754 -0.00629407 -0.00504731
7.23975e-05 -6.64684e-05 -0.00130551
3.33102e-05 -3.33102e-05 -4.21517e-08
-3.25543e-05 3.37622e-05 0.000263934
0.00387435 0.00270524 0.000565635
0.00884064 0.00629761 0.000498538
0.0117427 0.00653303 0.000148875
0.0149861 0.00509684 -0.000235922
0.0181352 0.00374129 -0.000405225
0.0208318 0.00274413 -0.000404162
0.023015 0.00197108 -0.000323973
0.0247462 0.00132952 -0.000225531
0.0261073 0.000803235 -0.000137183
0.0271653 0.000404036 -6.70988e-05
0.0279713 0.000132677 -1.5837e-05
0.0285688 -3.03718e-05 1.74792e-05
0.0289989 -0.000114843 3.46616e-05
0.0293001 -0.000148729 3.91921e-05
0.029506 -0.000152839 3.56802e-05
0.0296438 -0.000140873 2.84846e-05
0.029734 -0.000121428 2.07064e-05
0.0297918 -9.9784e-05 1.39978e-05
0.029828 -7.90355e-05 8.91132e-06
0.0298502 -6.07912e-05 5.37911e-06
0.0298633 -4.56635e-05 3.08376e-06
0.0298708 -3.36494e-05 1.67162e-06
0.029875 -2.44162e-05 8.4485e-07
0.0298772 -1.74986e-05 3.84355e-07
0.0298783 -1.24179e-05 1.42069e-07
0.0298787 -8.74389e-06 2.38801e-08
0.0298789 -6.11925e-06 -2.71286e-08
0.0298788 -4.26197e-06 -4.38734e-08
0.0298788 -2.95739e-06 -4.45561e-08
0.0298787 -2.04631e-06 -3.87483e-08
0.0298786 -1.41294e-06 -3.117e-08
0.0298785 -9.74277e-07 -2.39279e-08
0.0298785 -6.71482e-07 -1.77894e-08
0.0298784 -4.6324e-07 -1.28964e-08
0.0298784 -3.20786e-07 -9.1472e-09
0.0298784 -2.24256e-07 -6.3603e-09
0.0298784 -1.59678e-07 -4.49591e-09
0.0298783 -1.16785e-07 -3.62511e-09
0.0298783 -8.62161e-08 -3.96019e-09
0.0298783 -5.96588e-08 -1.27589e-08
0.0298783 -2.12832e-08 -3.00071e-08
0.0298782 3.98204e-09 -3.89795e-08
0.0196 -1.3585e-06 -3.5778e-06
0.0195999 -0.00369971 -0.00312809
0.0187542 -0.00812984 -0.00652679
0.017499 -0.00817459 -0.00605693
0.0131627 -0.00435171 -0.00554455
0.00906256 0.00252934 -0.00533809
0.00613854 0.00313796 -0.00312632
7.2575e-05 -6.03619e-05 -0.000678294
2.78076e-05 -2.78076e-05 -1.27272e-07
-3.20194e-05 3.30891e-05 9.70891e-05
0.00265852 0.00185967 0.000367926
0.0069019 0.00285994 0.000268279
0.0121398 0.00133911 -0.000166975
0.0167584 0.000416125 -0.00036601
0.0203533 4.93292e-05 -0.000376171
0.0230402 -0.000141248 -0.00030368
0.0250312 -0.000311257 -0.0002174
0.0264989 -0.000464536 -0.000145271
0.0275629 -0.000563568 -9.04207e-05
0.0283099 -0.000590078 -4.90343e-05
0.0288116 -0.000555082 -1.90091e-05
0.0291316 -0.000483678 1.21912e-07
0.0293245 -0.000399268 9.5944e-06
0.0294335 -0.000317007 1.20658e-05
0.0294903 -0.000244374 1.06407e-05
0.0295164 -0.000183942 7.79901e-06
0.0295255 -0.000135697 4.99878e-06
0.0295259 -9.84038e-05 2.83759e-06
0.0295226 -7.03372e-05 1.39948e-06
0.029518 -4.96845e-05 5.47996e-07
0.0295135 -3.47675e-05 9.89324e-08
0.0295096 -2.41537e-05 -1.04666e-07
0.0295064 -1.669e-05 -1.73273e-07
0.029504 -1.14881e-05 -1.75804e-07
0.0295022 -7.8863e-06 -1.51261e-07
0.0295008 -5.40396e-06 -1.19652e-07
0.0294998 -3.69864e-06 -9.001e-08
0.0294991 -2.52963e-06 -6.55517e-08
0.0294986 -1.72943e-06 -4.67158e-08
0.0294983 -1.18224e-06 -3.28052e-08
0.029498 -8.08386e-07 -2.28e-08
0.0294979 -5.53217e-07 -1.57184e-08
0.0294978 -3.79291e-07 -1.0772e-08
0.0294977 -2.60858e-07 -7.40303e-09
0.0294976 -1.79945e-07 -5.25809e-09
0.0294976 -1.2346e-07 -4.17129e-09
0.0294975 -8.12796e-08 -4.13647e-09
0.0294975 -4.42349e-08 -4.87455e-09
0.0294974 -2.19019e-09 -1.21839e-08
0.0294974 5.67649e-08 -2.42299e-08
0.0294973 9.20913e-08 -2.94544e-08
0.018 -8.63854e-07 -3.57221e-06
0.0180009 -0.00201676 -0.00305117
0.0183125 -0.00390306 -0.00616579
0.0183626 -0.00271265 -0.00528972
0.0173387 0.000576778 -0.00419159
0.0170539 0.00703578 -0.0039657
0.0177874 0.0125609 -0.00301425
0.0109202 0.00692739 -0.00150901
7.40403e-05 -4.66835e-05 -0.000440162
-2.50706e-05 -5.43987e-05 5.5686e-07
7.90651e-06 -0.000748051 0.000751946
0.00822136 -0.00296478 0.00109191
0.0154673 -0.00452136 0.000446966
0.020402 -0.00411933 0.000117269
0.02355 -0.0031763 -1.17195e-05
0.0255521 -0.00238897 -5.48718e-05
0.0268351 -0.00187096 -7.01421e-05
0.027643 -0.00153037 -7.79089e-05
0.028119 -0.00126594 -7.91892e-05
0.0283611 -0.00102671 -7.15797e-05
0.028447 -0.000804921 -5.69128e-05
0.0284392 -0.000609835 -4.02166e-05
0.0283847 -0.000449257 -2.5853e-05
0.0283142 -0.000324094 -1.56137e-05
0.0282452 -0.000230219 -9.20568e-06
0.0281859 -0.000161626 -5.505e-06
0.0281384 -0.000112425 -3.42753e-06
0.0281024 -7.76327e-05 -2.23274e-06
0.0280759 -5.33114e-05 -1.50196e-06
0.028057 -3.64667e-05 -1.02395e-06
0.0280436 -2.48827e-05 -6.96779e-07
0.0280343 -1.6956e-05 -4.68991e-07
0.0280279 -1.15488e-05 -3.10961e-07
0.0280235 -7.86629e-06 -2.02907e-07
0.0280205 -5.35963e-06 -1.3039e-07
0.0280184 -3.65313e-06 -8.26468e-08
0.028017 -2.49083e-06 -5.17696e-08
0.028016 -1.69874e-06 -3.21131e-08
0.0280154 -1.15872e-06 -1.97667e-08
0.0280149 -7.90476e-07 -1.2097e-08
0.0280146 -5.39382e-07 -7.37381e-09
0.0280144 -3.68164e-07 -4.48797e-09
0.0280142 -2.51233e-07 -2.76736e-09
0.0280141 -1.70787e-07 -1.8265e-09
0.0280141 -1.14135e-07 -1.45048e-09
0.028014 -7.18042e-08 -1.50886e-09
0.028014 -3.61453e-08 -1.93596e-09
0.0280139 -2.14733e-10 -2.36679e-09
0.0280139 4.51151e-08 -5.80406e-09
0.0280139 1.04876e-07 -1.24224e-08
0.0280139 1.38205e-07 -1.57329e-08
0.0148 -4.84368e-07 -3.16471e-06
0.0148015 -0.0010411 -0.00283174
0.0162285 -0.0016629 -0.00543063
0.0177849 -6.03694e-05 -0.00429223
0.0190945 0.00313667 -0.0030618
0.0208179 0.00732578 -0.00283814
0.0246282 0.0129747 -0.00241051
0.0279209 0.0195037 -0.00152397
0.0229647 0.0112801 -0.000351621
0.0234221 3.50375e-11 0.000621534
0.0265705 -0.00672845 0.00156086
0.0299544 -0.0131437 0.00211643
0.0307132 -0.0110607 0.00164131
0.030094 -0.00770197 0.00113411
0.0290982 -0.00503874 0.000676521
0.0281493 -0.00330734 0.000326686
0.0273537 -0.00224733 9.71756e-05
0.0267035 -0.00157751 -3.27068e-05
0.0261696 -0.00111829 -9.05746e-05
0.0257306 -0.000782985 -0.000101492
0.0253743 -0.000536354 -8.7119e-05
0.0250919 -0.000360667 -6.40674e-05
0.0248746 -0.000240487 -4.22931e-05
0.024712 -0.000160635 -2.5777e-05
0.0245934 -0.00010817 -1.47945e-05
0.0245088 -7.35612e-05 -8.10709e-06
0.0244495 -5.04533e-05 -4.27546e-06
0.0244085 -3.48129e-05 -2.17218e-06
0.0243805 -2.41073e-05 -1.0539e-06
0.0243615 -1.67225e-05 -4.75604e-07
0.0243486 -1.16044e-05 -1.85729e-07
0.0243399 -8.04883e-06 -4.68345e-08
0.024334 -5.57664e-06 1.4647e-08
0.0243301 -3.85809e-06 3.75556e-08
0.0243274 -2.66454e-06 4.21321e-08
0.0243255 -1.83678e-06 3.87394e-08
0.0243243 -1.26373e-06 3.25308e-08
0.0243234 -8.67786e-07 2.59401e-08
0.0243229 -5.94796e-07 2.00059e-08
0.0243225 -4.06967e-07 1.50725e-08
0.0243222 -2.7793e-07 1.11578e-08
0.024322 -1.89249e-07 8.14255e-09
0.0243219 -1.27947e-07 5.85608e-09
0.0243218 -8.47599e-08 4.13426e-09
0.0243217 -5.28707e-08 2.84975e-09
0.0243217 -2.69936e-08 1.9272e-09
0.0243217 -2.62015e-09 1.40095e-09
0.0243217 2.40306e-08 1.40919e-09
0.0243217 5.7297e-08 1.0722e-09
0.0243217 9.67296e-08 -2.87968e-09
0.0243217 1.17204e-07 -6.33738e-09
0.01 -9.26735e-07 -2.86784e-06
0.0100008 -0.00063772 -0.00230611
0.0113185 -0.000721616 -0.00414596
0.0131723 0.000538203 -0.00290673
0.0155904 0.00250427 -0.00180203
0.0194709 0.00555136 -0.00180907
0.0253798 0.00836127 -0.00236237
0.034498 0.0101201 -0.00209541
0.0461092 0.00481683 -0.000515842