# vtk DataFile Version 2.0
Tobias Weinzierl: CPU, Manycore and Cluster Computing
ASCII

DATASET STRUCTURED_POINTS
DIMENSIONS  51 11 6

ORIGIN 0 0 0 

SPACING 0.1 0.1 0.1 

POINT_DATA 3366

VECTORS velocity float
0 0 0
-1.98405e-13 0 0
-1.99754e-10 0 0
-3.9361e-10 0 0
-1.26346e-09 0 0
7.25507e-10 0 0
1.15198e-09 0 0
1.14391e-09 0 0
1.32026e-09 0 0
1.83912e-09 0 0
2.60635e-09 0 0
3.36332e-09 0 0
3.82812e-09 0 0
3.85446e-09 0 0
3.43793e-09 0 0
2.67626e-09 0 0
1.74069e-09 0 0
8.2948e-10 0 0
6.90627e-11 0 0
-5.41499e-10 0 0
-1.08699e-09 0 0
-1.65101e-09 0 0
-2.26293e-09 0 0
-2.89677e-09 0 0
-3.5004e-09 0 0
-4.02619e-09 0 0
-4.44742e-09 0 0
-4.75995e-09 0 0
-4.97556e-09 0 0
-5.11357e-09 0 0
-5.19446e-09 0 0
-5.23623e-09 0 0
-5.253e-09 0 0
-5.25502e-09 0 0
-5.24927e-09 0 0
-5.24016e-09 0 0
-5.23033e-09 0 0
-5.22118e-09 0 0
-5.21333e-09 0 0
-5.20697e-09 0 0
-5.20201e-09 0 0
-5.19827e-09 0 0
-5.19552e-09 0 0
-5.19354e-09 0 0
-5.19217e-09 0 0
-5.19124e-09 0 0
-5.19065e-09 0 0
-5.19032e-09 0 0
-5.1902e-09 0 0
-5.19034e-09 0 0
0.00188616 0 0
0 3.86947e-07 0
-3.87211e-13 1.36994e-11 0
-2.97471e-10 -1.93174e-10 0
-2.98502e-10 -5.86324e-11 0
-7.51499e-10 -7.014e-10 0
2.47082e-09 -5.9578e-10 0
2.95217e-09 8.25447e-10 0
2.76435e-09 7.41216e-10 0
3.50649e-09 -2.51014e-10 0
5.30966e-09 -1.42332e-09 0
7.75141e-09 -2.39848e-09 0
1.00392e-08 -2.85119e-09 0
1.13762e-08 -2.56194e-09 0
1.13675e-08 -1.55958e-09 0
1.01919e-08 -2.37739e-10 0
8.36715e-09 8.51837e-10 0
6.36187e-09 1.37315e-09 0
4.42124e-09 1.36085e-09 0
2.57642e-09 1.08674e-09 0
7.405e-10 8.18488e-10 0
-1.18167e-09 6.7837e-10 0
-3.21936e-09 6.51122e-10 0
-5.31339e-09 6.63741e-10 0
-7.34031e-09 6.54337e-10 0
-9.16359e-09 5.98767e-10 0
-1.06822e-08 5.04401e-10 0
-1.18543e-08 3.92298e-10 0
-1.26936e-08 2.8272e-10 0
-1.32501e-08 1.88603e-10 0
-1.35883e-08 1.15156e-10 0
-1.3771e-08 6.21757e-11 0
-1.38512e-08 2.664e-11 0
-1.3869e-08 4.60799e-12 0
-1.38525e-08 -7.7134e-12 0
-1.38203e-08 -1.35029e-11 0
-1.37834e-08 -1.52013e-11 0
-1.37481e-08 -1.45605e-11 0
-1.37172e-08 -1.27615e-11 0
-1.36918e-08 -1.05487e-11 0
-1.36718e-08 -8.35314e-12 0
-1.36565e-08 -6.39383e-12 0
-1.36451e-08 -4.75585e-12 0
-1.36369e-08 -3.4457e-12 0
-1.3631e-08 -2.42886e-12 0
-1.36269e-08 -1.65307e-12 0
-1.36241e-08 -1.06135e-12 0
-1.36224e-08 -5.95545e-13 0
-1.36214e-08 -1.86026e-13 0
-1.3621e-08 2.9737e-13 0
-1.36215e-08 1.11739e-12 0
0.00543536 -9.58022e-09 0
0 -1.86941e-08 0
-1.14126e-13 -3.74011e-11 0
2.5818e-10 -8.93423e-10 0
1.35539e-09 -2.35317e-09 0
2.81195e-09 -4.10967e-09 0
4.85287e-09 -2.88611e-09 0
3.77922e-09 5.47156e-11 0
2.77273e-09 -2.07475e-10 0
3.19699e-09 -2.0721e-09 0
5.62699e-09 -4.0798e-09 0
9.26371e-09 -5.96975e-09 0
1.26964e-08 -7.41037e-09 0
1.46925e-08 -7.85386e-09 0
1.4497e-08 -6.83525e-09 0
1.26048e-08 -4.48658e-09 0
1.00226e-08 -1.45693e-09 0
7.42749e-09 1.48215e-09 0
4.99461e-09 3.72902e-09 0
2.64929e-09 5.01001e-09 0
3.16229e-10 5.39184e-09 0
-2.01112e-09 5.14833e-09 0
-4.29909e-09 4.57354e-09 0
-6.48983e-09 3.8693e-09 0
-8.49899e-09 3.14058e-09 0
-1.02309e-08 2.4401e-09 0
-1.16128e-08 1.80296e-09 0
-1.26207e-08 1.25614e-09 0
-1.32827e-08 8.1532e-10 0
-1.36615e-08 4.82197e-10 0
-1.38325e-08 2.46575e-10 0
-1.38667e-08 9.13049e-11 0
-1.38211e-08 -2.75624e-12 0
-1.37368e-08 -5.33501e-11 0
-1.36404e-08 -7.51379e-11 0
-1.35475e-08 -7.92566e-11 0
-1.34657e-08 -7.35973e-11 0
-1.33979e-08 -6.33946e-11 0
-1.33441e-08 -5.18796e-11 0
-1.33027e-08 -4.08685e-11 0
-1.32717e-08 -3.12397e-11 0
-1.3249e-08 -2.32915e-11 0
-1.32326e-08 -1.69928e-11 0
-1.3221e-08 -1.21488e-11 0
-1.3213e-08 -8.50207e-12 0
-1.32075e-08 -5.7895e-12 0
-1.32038e-08 -3.7655e-12 0
-1.32015e-08 -2.19751e-12 0
-1.32002e-08 -8.13393e-13 0
-1.31998e-08 7.1705e-13 0
-1.32002e-08 2.73657e-12 0
0.00786789 -2.44041e-08 0
0 -6.39325e-07 0
1.98521e-13 -5.64203e-10 0
7.05245e-10 -2.2219e-09 0
2.20333e-09 -4.4189e-09 0
3.18784e-09 -5.77224e-09 0
3.10758e-09 -3.0118e-09 0
1.97798e-09 -1.82742e-12 0
1.15227e-09 -1.00433e-09 0
1.07751e-10 -3.16159e-09 0
1.14365e-09 -5.72102e-09 0
4.26514e-09 -8.81871e-09 0
7.40106e-09 -1.19525e-08 0
9.3182e-09 -1.35518e-08 0
9.0113e-09 -1.24431e-08 0
6.91971e-09 -8.78364e-09 0
3.96891e-09 -3.42252e-09 0
8.58426e-10 2.348e-09 0
-1.98474e-09 7.10073e-09 0
-4.26026e-09 9.85747e-09 0
-5.77685e-09 1.04893e-08 0
-6.53657e-09 9.56786e-09 0
-6.74021e-09 7.87635e-09 0
-6.66112e-09 6.02148e-09 0
-6.50213e-09 4.32869e-09 0
-6.3429e-09 2.91851e-09 0
-6.17694e-09 1.81009e-09 0
-5.97435e-09 9.83214e-10 0
-5.72128e-09 4.02274e-10 0
-5.42777e-09 2.40591e-11 0
-5.1178e-09 -1.97342e-10 0
-4.81695e-09 -3.05646e-10 0
-4.54457e-09 -3.38524e-10 0
-4.31143e-09 -3.25691e-10 0
-4.12073e-09 -2.8876e-10 0
-3.97039e-09 -2.42251e-10 0
-3.85543e-09 -1.95092e-10 0
-3.76973e-09 -1.52163e-10 0
-3.70719e-09 -1.15625e-10 0
-3.66239e-09 -8.59605e-11 0
-3.63078e-09 -6.27167e-11 0
-3.6088e-09 -4.50047e-11 0
-3.59369e-09 -3.18053e-11 0
-3.58344e-09 -2.21395e-11 0
-3.57656e-09 -1.51488e-11 0
-3.57203e-09 -1.01178e-11 0
-3.56913e-09 -6.45698e-12 0
-3.56736e-09 -3.67126e-12 0
-3.56637e-09 -1.31906e-12 0
-3.56584e-09 9.57946e-13 0
-3.56574e-09 3.30434e-12 0
0.00897499 -2.72172e-08 0
0 -1.25631e-06 0
-3.59339e-13 -1.09348e-09 0
8.40319e-11 -3.109e-09 0
5.24486e-10 -4.13174e-09 0
6.49039e-10 -3.34561e-09 0
-1.59851e-13 -1.22995e-09 0
-1.59446e-11 -1.46339e-11 0
1.39654e-11 -1.44655e-11 0
-9.03022e-10 -1.50722e-09 0
-2.61529e-09 -5.31329e-09 0
-2.93276e-09 -1.00391e-08 0
-1.55539e-09 -1.4515e-08 0
-8.37249e-10 -1.68668e-08 0
-1.56718e-09 -1.55754e-08 0
-3.40755e-09 -1.07503e-08 0
-5.81046e-09 -3.44027e-09 0
-8.264e-09 4.36015e-09 0
-1.02607e-08 1.04131e-08 0
-1.12945e-08 1.33493e-08 0
-1.10325e-08 1.32063e-08 0
-9.52101e-09 1.10337e-08 0
-7.18334e-09 8.08021e-09 0
-4.58603e-09 5.23162e-09 0
-2.17782e-09 2.90204e-09 0
-1.76237e-10 1.18267e-09 0
1.39331e-09 1.57335e-11 0
2.59988e-09 -7.02119e-10 0
3.5296e-09 -1.07835e-09 0
4.25125e-09 -1.21136e-09 0
4.81188e-09 -1.18547e-09 0
5.24362e-09 -1.068e-09 0
5.57079e-09 -9.08501e-10 0
5.81376e-09 -7.40188e-10 0
5.99038e-09 -5.82838e-10 0
6.11611e-09 -4.46334e-10 0
6.20385e-09 -3.3394e-10 0
6.26398e-09 -2.44957e-10 0
6.30452e-09 -1.76652e-10 0
6.33144e-09 -1.25515e-10 0
6.34907e-09 -8.80134e-11 0
6.36047e-09 -6.09792e-11 0
6.36774e-09 -4.17645e-11 0
6.37232e-09 -2.82579e-11 0
6.37516e-09 -1.883e-11 0
6.37687e-09 -1.22489e-11 0
6.37788e-09 -7.59212e-12 0
6.37848e-09 -4.18089e-12 0
6.37895e-09 -1.54689e-12 0
6.37958e-09 5.91815e-13 0
6.38022e-09 2.34089e-12 0
0.00943527 -1.35336e-08 0
0 -1.13902e-06 0
-8.91221e-13 -9.9096e-10 0
-6.4153e-10 -2.32898e-09 0
-8.40674e-10 -3.10772e-09 0
-1.13365e-09 -3.39117e-09 0
-8.05508e-10 -1.62166e-09 0
-1.49507e-11 1.47889e-11 0
-8.24535e-13 8.24535e-13 0
1.44233e-11 -1.35079e-11 0
-1.60251e-09 -2.21822e-09 0
-5.42352e-09 -8.25584e-09 0
-7.78917e-09 -1.45879e-08 0
-9.54469e-09 -1.74286e-08 0
-1.13045e-08 -1.58352e-08 0
-1.28598e-08 -1.01752e-08 0
-1.4023e-08 -1.9935e-09 0
-1.46242e-08 6.17129e-09 0
-1.44788e-08 1.18603e-08 0
-1.33439e-08 1.38579e-08 0
-1.10521e-08 1.25549e-08 0
-7.73987e-09 9.3389e-09 0
-3.88774e-09 5.65479e-09 0
-1.05963e-10 2.43497e-09 0
3.13446e-09 4.65393e-11 0
5.62788e-09 -1.50162e-09 0
7.39547e-09 -2.35159e-09 0
8.57573e-09 -2.6802e-09 0
9.33084e-09 -2.65333e-09 0
9.79849e-09 -2.4109e-09 0
1.00794e-08 -2.06187e-09 0
1.0242e-08 -1.68357e-09 0
1.03311e-08 -1.32477e-09 0
1.03756e-08 -1.01134e-09 0
1.03942e-08 -7.52834e-10 0
1.03983e-08 -5.48639e-10 0
1.03951e-08 -3.9269e-10 0
1.03889e-08 -2.76768e-10 0
1.03819e-08 -1.92485e-10 0
1.03754e-08 -1.32315e-10 0
1.03697e-08 -9.00073e-11 0
1.03651e-08 -6.06318e-11 0
1.03615e-08 -4.04426e-11 0
1.03588e-08 -2.66724e-11 0
1.03567e-08 -1.7319e-11 0
1.03552e-08 -1.09591e-11 0
1.03543e-08 -6.6047e-12 0
1.03537e-08 -3.59996e-12 0
1.03537e-08 -1.54289e-12 0
1.03542e-08 -2.38248e-13 0
1.0355e-08 4.45906e-13 0
0.00955794 9.29291e-09 0
0 -7.84257e-07 0
-6.0549e-13 -5.56848e-10 0
-5.98971e-10 -1.48073e-09 0
-6.68125e-10 -1.97693e-09 0
-1.34998e-09 -2.24694e-09 0
-1.74757e-09 -2.02418e-09 0
-7.51095e-10 -8.30261e-10 0
-1.47151e-11 1.4863e-11 0
-4.40776e-13 4.40776e-13 0
1.6014e-11 -1.2833e-11 0
-2.34429e-09 -4.06662e-09 0
-8.04408e-09 -1.15644e-08 0
-1.29861e-08 -1.53331e-08 0
-1.65115e-08 -1.34522e-08 0
-1.85188e-08 -7.42027e-09 0
-1.87992e-08 3.9469e-10 0
-1.74215e-08 7.29852e-09 0
-1.47699e-08 1.12636e-08 0
-1.12631e-08 1.16561e-08 0
-7.23559e-09 9.26916e-09 0
-3.03996e-09 5.60345e-09 0
8.928e-10 1.99754e-09 0
4.15402e-09 -8.08242e-10 0
6.50581e-09 -2.62344e-09 0
7.9371e-09 -3.56283e-09 0
8.60746e-09 -3.84368e-09 0
8.74628e-09 -3.6845e-09 0
8.57141e-09 -3.26976e-09 0
8.24927e-09 -2.74112e-09 0
7.88826e-09 -2.19718e-09 0
7.54898e-09 -1.69814e-09 0
7.2589e-09 -1.27353e-09 0
7.02539e-09 -9.31498e-10 0
6.84516e-09 -6.67242e-10 0
6.7103e-09 -4.69659e-10 0
6.61172e-09 -3.25743e-10 0
6.54098e-09 -2.23107e-10 0
6.49094e-09 -1.51159e-10 0
6.45594e-09 -1.01428e-10 0
6.43169e-09 -6.74487e-11 0
6.41501e-09 -4.4452e-11 0
6.40362e-09 -2.90064e-11 0
6.3959e-09 -1.86926e-11 0
6.39072e-09 -1.18342e-11 0
6.38731e-09 -7.29373e-12 0
6.38518e-09 -4.32037e-12 0
6.384e-09 -2.44127e-12 0
6.38359e-09 -1.38749e-12 0
6.38384e-09 -1.08928e-12 0
6.38432e-09 -1.48468e-12 0
0.00943528 2.93235e-08 0
0 -5.49096e-07 0
-2.27397e-13 -2.71703e-10 0
-2.31942e-10 -7.99067e-10 0
-2.55191e-10 -1.3909e-09 0
-6.84027e-10 -1.70126e-09 0
-1.7359e-09 -1.29025e-09 0
-2.10744e-09 -4.04523e-10 0
-1.37447e-09 4.80151e-11 0
-1.52293e-11 1.44972e-11 0
1.62865e-11 1.32549e-11 0
1.58222e-12 -2.37592e-09 0
-4.06063e-09 -8.16416e-09 0
-1.10237e-08 -1.15175e-08 0
-1.7629e-08 -8.77361e-09 0
-2.16297e-08 -2.60209e-09 0
-2.17242e-08 3.73767e-09 0
-1.83142e-08 8.00194e-09 0
-1.29865e-08 9.22269e-09 0
-7.40225e-09 7.65939e-09 0
-2.62422e-09 4.49009e-09 0
9.15847e-10 1.10724e-09 0
3.16867e-09 -1.54068e-09 0
4.26247e-09 -3.14202e-09 0
4.41221e-09 -3.82275e-09 0
3.88013e-09 -3.86552e-09 0
2.93688e-09 -3.5366e-09 0
1.82019e-09 -3.03069e-09 0
7.06936e-10 -2.47448e-09 0
-2.9397e-10 -1.94389e-09 0
-1.13193e-09 -1.47906e-09 0
-1.79754e-09 -1.09563e-09 0
-2.30547e-09 -7.93537e-10 0
-2.68117e-09 -5.63983e-10 0
-2.95239e-09 -3.94522e-10 0
-3.14445e-09 -2.72295e-10 0
-3.27843e-09 -1.85771e-10 0
-3.37079e-09 -1.25445e-10 0
-3.43386e-09 -8.39094e-11 0
-3.4766e-09 -5.56095e-11 0
-3.50539e-09 -3.65009e-11 0
-3.52467e-09 -2.37005e-11 0
-3.53751e-09 -1.51884e-11 0
-3.54599e-09 -9.5712e-12 0
-3.55154e-09 -5.90344e-12 0
-3.55509e-09 -3.55617e-12 0
-3.55729e-09 -2.12419e-12 0
-3.55854e-09 -1.36556e-12 0
-3.55913e-09 -1.17146e-12 0
-3.55927e-09 -1.58385e-12 0
-3.55938e-09 -2.60698e-12 0
0.008975 3.61755e-08 0
0 -4.65186e-07 0
-1.74474e-13 -1.2489e-10 0
8.38277e-11 -4.24052e-10 0
5.77943e-11 -7.8221e-10 0
-5.89632e-10 -9.87726e-10 0
-2.01931e-09 -4.33691e-10 0
-3.17138e-09 6.81976e-10 0
-3.27765e-09 4.42006e-11 0
-2.18111e-09 -5.6685e-10 0
-1.56021e-09 -3.47128e-14 0
-3.38983e-10 -2.81429e-09 0
-2.88926e-09 -6.57789e-09 0
-1.04509e-08 -6.4912e-09 0
-1.85966e-08 -3.09795e-09 0
-2.27977e-08 1.53762e-09 0
-2.12155e-08 5.08733e-09 0
-1.5333e-08 6.37593e-09 0
-8.285e-09 5.39263e-09 0
-2.69008e-09 2.94158e-09 0
3.76573e-10 2.03034e-10 0
1.13072e-09 -1.86312e-09 0
3.38567e-10 -2.89918e-09 0
-1.25004e-09 -3.07317e-09 0
-3.12018e-09 -2.75554e-09 0
-4.9815e-09 -2.26253e-09 0
-6.68754e-09 -1.77299e-09 0
-8.1704e-09 -1.35577e-09 0
-9.40611e-09 -1.02213e-09 0
-1.03986e-08 -7.62364e-10 0
-1.11701e-08 -5.62734e-10 0
-1.17528e-08 -4.10868e-10 0
-1.21823e-08 -2.96589e-10 0
-1.24924e-08 -2.11626e-10 0
-1.27125e-08 -1.4925e-10 0
-1.28666e-08 -1.04034e-10 0
-1.29732e-08 -7.16629e-11 0
-1.30463e-08 -4.87674e-11 0
-1.3096e-08 -3.27655e-11 0
-1.31295e-08 -2.17121e-11 0
-1.3152e-08 -1.41657e-11 0
-1.31669e-08 -9.07564e-12 0
-1.31767e-08 -5.68822e-12 0
-1.31832e-08 -3.47269e-12 0
-1.31873e-08 -2.06287e-12 0
-1.319e-08 -1.21418e-12 0
-1.31916e-08 -7.74745e-13 0
-1.31926e-08 -6.66115e-13 0
-1.31933e-08 -8.67837e-13 0
-1.31938e-08 -1.41249e-12 0
-1.31947e-08 -2.30067e-12 0
0.00786792 2.65817e-08 0
0 -4.79207e-07 0
-9.48795e-14 6.61084e-13 0
2.20951e-10 -3.15921e-11 0
1.59969e-10 -8.51369e-11 0
-6.61492e-10 -1.00615e-10 0
-2.40136e-09 -5.61228e-11 0
-3.96362e-09 4.8857e-10 0
-4.12584e-09 5.39554e-10 0
-4.77663e-09 -2.14497e-10 0
-4.43237e-09 -1.00756e-09 0
-3.51381e-09 -1.86982e-09 0
-5.69895e-09 -1.57841e-09 0
-9.79994e-09 -1.48179e-10 0
-1.37509e-08 1.22604e-09 0
-1.48291e-08 2.12995e-09 0
-1.20998e-08 2.31626e-09 0
-7.10897e-09 1.73847e-09 0
-2.42745e-09 6.90967e-10 0
1.66973e-10 -3.48695e-10 0
3.78766e-10 -1.01861e-09 0
-1.07118e-09 -1.23205e-09 0
-3.23295e-09 -1.11875e-09 0
-5.41762e-09 -8.69166e-10 0
-7.29829e-09 -6.21212e-10 0
-8.80192e-09 -4.32861e-10 0
-9.97104e-09 -3.07512e-10 0
-1.08748e-08 -2.27484e-10 0
-1.15732e-08 -1.74439e-10 0
-1.21108e-08 -1.36184e-10 0
-1.2521e-08 -1.06344e-10 0
-1.28298e-08 -8.20959e-11 0
-1.30588e-08 -6.22754e-11 0
-1.32261e-08 -4.63017e-11 0
-1.33464e-08 -3.3716e-11 0
-1.34319e-08 -2.40437e-11 0
-1.34917e-08 -1.67913e-11 0
-1.35332e-08 -1.14795e-11 0
-1.35616e-08 -7.67473e-12 0
-1.35808e-08 -5.00683e-12 0
-1.35937e-08 -3.17516e-12 0
-1.36022e-08 -1.94504e-12 0
-1.36078e-08 -1.13979e-12 0
-1.36114e-08 -6.31107e-13 0
-1.36137e-08 -3.29688e-13 0
-1.36151e-08 -1.77556e-13 0
-1.3616e-08 -1.41875e-13 0
-1.36167e-08 -2.05629e-13 0
-1.36172e-08 -3.55435e-13 0
-1.36179e-08 -5.67788e-13 0
-1.36189e-08 -8.65196e-13 0
0.0054354 8.94494e-09 0
0 0 0
4.96474e-14 0 0
1.27938e-10 0 0
9.29963e-11 0 0
-3.00744e-10 0 0
-1.17571e-09 0 0
-2.14865e-09 0 0
-2.22274e-09 0 0
-2.59587e-09 0 0
-2.87191e-09 0 0
-3.17323e-09 0 0
-3.67946e-09 0 0
-3.92038e-09 0 0
-3.98172e-09 0 0
-3.52574e-09 0 0
-2.38455e-09 0 0
-9.76769e-10 0 0
3.52121e-11 0 0
2.66279e-10 0 0
-2.17101e-10 0 0
-1.08508e-09 0 0
-2.00951e-09 0 0
-2.80082e-09 0 0
-3.40611e-09 0 0
-3.84841e-09 0 0
-4.17208e-09 0 0
-4.41512e-09 0 0
-4.60255e-09 0 0
-4.74909e-09 0 0
-4.86354e-09 0 0
-4.9519e-09 0 0
-5.01898e-09 0 0
-5.06896e-09 0 0
-5.10551e-09 0 0
-5.13177e-09 0 0
-5.15032e-09 0 0
-5.16322e-09 0 0
-5.17206e-09 0 0
-5.17803e-09 0 0
-5.18201e-09 0 0
-5.18462e-09 0 0
-5.1863e-09 0 0
-5.18737e-09 0 0
-5.18804e-09 0 0
-5.18846e-09 0 0
-5.18874e-09 0 0
-5.18896e-09 0 0
-5.18918e-09 0 0
-5.18947e-09 0 0
-5.1899e-09 0 0
0.00188618 0 0
0 0 5.36681e-07
-3.00768e-13 0 1.8578e-10
-5.40798e-10 0 5.86312e-10
-8.52184e-10 0 1.12207e-09
-4.15463e-09 0 -4.17988e-10
1.15066e-09 0 -1.81994e-09
2.77699e-09 0 -1.24412e-09
3.2397e-09 0 -9.09757e-10
3.7853e-09 0 -4.44461e-10
4.7825e-09 0 1.36977e-10
6.19259e-09 0 8.74028e-10
8.05443e-09 0 1.62917e-09
1.02982e-08 0 2.07054e-09
1.24848e-08 0 1.94952e-09
1.38281e-08 0 1.41569e-09
1.36994e-08 0 8.45162e-10
1.20348e-08 0 4.73389e-10
9.31892e-09 0 3.10535e-10
6.19008e-09 0 2.84014e-10
3.07093e-09 0 3.37337e-10
9.75264e-11 0 4.30925e-10
-2.73433e-09 0 5.24612e-10
-5.41693e-09 0 5.81803e-10
-7.88033e-09 0 5.82926e-10
-1.00255e-08 0 5.30457e-10
-1.17776e-08 0 4.42425e-10
-1.31154e-08 0 3.41277e-10
-1.40699e-08 0 2.45237e-10
-1.47054e-08 0 1.64843e-10
-1.50971e-08 0 1.03581e-10
-1.53158e-08 0 6.03205e-11
-1.54199e-08 0 3.17423e-11
-1.54535e-08 0 1.40439e-11
-1.54473e-08 0 3.84632e-12
-1.54214e-08 0 -1.49026e-12
-1.53884e-08 0 -3.86122e-12
-1.53554e-08 0 -4.54255e-12
-1.53258e-08 0 -4.34646e-12
-1.5301e-08 0 -3.76172e-12
-1.52812e-08 0 -3.06379e-12
-1.5266e-08 0 -2.39446e-12
-1.52545e-08 0 -1.81603e-12
-1.52462e-08 0 -1.3462e-12
-1.52402e-08 0 -9.80166e-13
-1.5236e-08 0 -7.03756e-13
-1.52332e-08 0 -5.0161e-13
-1.52314e-08 0 -3.63297e-13
-1.52303e-08 0 -2.93648e-13
-1.52299e-08 0 -2.97357e-13
-1.52302e-08 0 -2.31236e-13
0.00536062 0 -8.05164e-10
0.0036 -3.06776e-07 -6.21809e-08
0.0035998 -0.001389 -2.07529e-05
0.00669655 -0.00393834 0.000116852
0.0136097 -0.00587311 -0.000483754
0.0234996 -0.0145047 -0.00426271
0.0464244 -0.0134894 -0.00489175
0.0499693 -0.00195973 -0.00164807
0.0497149 0.00261577 -0.000165563
0.044743 0.00493632 0.000571517
0.0391563 0.00509391 0.000569893
0.0340765 0.00441605 0.000318021
0.0298205 0.00352574 5.9889e-05
0.0264523 0.00265799 -0.000126491
0.0238936 0.00191567 -0.000227815
0.0219837 0.00134148 -0.000255992
0.0205498 0.000930927 -0.000232576
0.0194526 0.000651801 -0.000180936
0.0185981 0.000466237 -0.0001212
0.0179281 0.00034202 -6.75188e-05
0.0174069 0.00025578 -2.71718e-05
0.017009 0.000192501 -1.52842e-06
0.0167131 0.000143642 1.17417e-05
0.0164999 0.000104899 1.63819e-05
0.0163514 7.42418e-05 1.5983e-05
0.0162521 5.05566e-05 1.3262e-05
0.0161886 3.29139e-05 9.9375e-06
0.0161502 2.03201e-05 6.90611e-06
0.0161286 1.17293e-05 4.51128e-06
0.0161177 6.1435e-06 2.78582e-06
0.0161133 2.6987e-06 1.62455e-06
0.0161125 7.06325e-07 8.8558e-07
0.0161135 -3.47028e-07 4.38837e-07
0.0161154 -8.23422e-07 1.8285e-07
0.0161174 -9.6619e-07 4.54775e-08
0.0161192 -9.31599e-07 -2.14839e-08
0.0161208 -8.15271e-07 -4.87164e-08
0.0161221 -6.72428e-07 -5.4938e-08
0.0161231 -5.32508e-07 -5.1092e-08
0.0161239 -4.09229e-07 -4.32705e-08
0.0161244 -3.07253e-07 -3.46496e-08
0.0161249 -2.26411e-07 -2.67215e-08
0.0161252 -1.64272e-07 -2.00509e-08
0.0161254 -1.17621e-07 -1.47287e-08
0.0161255 -8.32471e-08 -1.06326e-08
0.0161256 -5.83145e-08 -7.56251e-09
0.0161257 -4.04817e-08 -5.28425e-09
0.0161258 -2.79013e-08 -3.50283e-09
0.0161258 -1.92099e-08 -1.52865e-09
0.0161258 -1.42566e-08 1.37471e-09
0.0161259 -2.1349e-08 1.32139e-10
0.0161259 -2.98835e-08 -2.84817e-09
0.01 -1.36155e-07 -1.45875e-06
0.0100007 -0.00298275 -0.000597451
0.0147879 -0.0099715 -0.000791944
0.0242036 -0.0177803 -0.00122407
0.0386618 -0.0326896 -0.0033296
0.0593933 -0.0250061 -0.000807944
0.0566064 -0.00279008 0.0031988
0.0560386 0.00504324 0.00339531
0.0502725 0.00999484 0.00300379
0.0448363 0.0101129 0.00212676
0.040375 0.00899605 0.00121272
0.0367081 0.00754725 0.000498818
0.033778 0.00607592 -1.27855e-06
0.0315283 0.00476256 -0.000303523
0.0298033 0.00369054 -0.000431362
0.0284532 0.00285268 -0.000431341
0.0273742 0.00220037 -0.00035713
0.026506 0.00168588 -0.000254737
0.0258163 0.00127586 -0.000156052
0.0252835 0.000949548 -7.79432e-05
0.0248869 0.000692938 -2.50957e-05
0.0246036 0.000494605 5.31787e-06
0.0244103 0.000344246 1.92421e-05
0.0242848 0.000232633 2.28058e-05
0.0242086 0.000151758 2.0905e-05
0.0241663 9.48014e-05 1.68354e-05
0.0241461 5.60039e-05 1.24833e-05
0.0241397 3.05771e-05 8.72557e-06
0.0241408 1.46501e-05 5.82853e-06
0.0241457 5.21347e-06 3.75148e-06
0.024152 2.8314e-08 2.33703e-06
0.0241582 -2.4983e-06 1.41096e-06
0.0241638 -3.45126e-06 8.24126e-07
0.0241685 -3.5379e-06 4.63131e-07
0.0241722 -3.19847e-06 2.47554e-07
0.024175 -2.69266e-06 1.22953e-07
0.0241772 -2.16329e-06 5.37198e-08
0.0241788 -1.68087e-06 1.72259e-08
0.0241799 -1.27347e-06 -5.37957e-10
0.0241808 -9.45887e-07 -8.01641e-09
0.0241814 -6.91428e-07 -1.01531e-08
0.0241818 -4.98807e-07 -9.74085e-09
0.0241821 -3.55894e-07 -8.29353e-09
0.0241823 -2.51568e-07 -6.58998e-09
0.0241824 -1.76456e-07 -4.99494e-09
0.0241825 -1.23104e-07 -3.59459e-09
0.0241826 -8.58786e-08 -2.17275e-09
0.0241826 -6.22133e-08 -1.71869e-10
0.0241827 -5.2483e-08 2.71471e-09
0.0241827 -6.35932e-08 -2.20372e-09
0.0241827 -7.59514e-08 -8.773e-09
0.0148 -9.59349e-07 -1.75287e-06
0.0148024 -0.005302 -0.00112343
0.020416 -0.016471 -0.00244973
0.0276395 -0.0289669 -0.00394527
0.0323239 -0.0464249 -0.00578388
0.0307682 -0.0286467 -0.00142399
0.0269454 -1.24041e-05 0.0033159
0.0263785 0.00703883 0.00352997
0.0298566 0.0143259 0.00343384
0.0302105 0.0136786 0.00247608
0.0294439 0.0118338 0.00153864
0.028646 0.0099415 0.000731965
0.0280557 0.00806355 0.000149317
0.0277666 0.00637452 -0.000205321
0.0276501 0.00500343 -0.000355577
0.0275999 0.0039189 -0.000364723
0.0275682 0.00304651 -0.000298006
0.0275449 0.00233023 -0.000204564
0.0275349 0.00174078 -0.000115027
0.0275433 0.00126464 -4.44916e-05
0.0275707 0.000891677 2.90514e-06
0.0276129 0.00060915 2.94094e-05
0.0276643 0.000401721 4.00776e-05
0.0277193 0.000253797 4.04619e-05
0.0277735 0.000151425 3.53311e-05
0.0278238 8.3001e-05 2.81329e-05
0.0278681 3.92079e-05 2.09672e-05
0.0279057 1.27284e-05 1.48553e-05
0.0279363 -2.04698e-06 1.01071e-05
0.0279605 -9.27731e-06 6.64694e-06
0.027979 -1.19211e-05 4.24217e-06
0.027993 -1.19863e-05 2.63209e-06
0.0280031 -1.07666e-05 1.58737e-06
0.0280105 -9.04685e-06 9.28361e-07
0.0280157 -7.26812e-06 5.23835e-07
0.0280193 -5.65183e-06 2.82434e-07
0.0280219 -4.28699e-06 1.4281e-07
0.0280236 -3.18856e-06 6.50019e-08
0.0280248 -2.3343e-06 2.36838e-08
0.0280256 -1.68683e-06 3.22517e-09
0.0280261 -1.20586e-06 -5.76279e-09
0.0280265 -8.54258e-07 -8.75205e-09
0.0280267 -6.00588e-07 -8.82896e-09
0.0280269 -4.19597e-07 -7.67136e-09
0.028027 -2.91759e-07 -6.11441e-09
0.0280271 -2.02675e-07 -4.49761e-09
0.0280271 -1.42257e-07 -2.65842e-09
0.0280271 -1.04832e-07 -6.53224e-10
0.0280272 -8.87227e-08 -2.76953e-10
0.0280272 -8.8054e-08 -9.43931e-09
0.0280272 -9.01498e-08 -1.80106e-08
0.018 -1.93645e-06 -1.69661e-06
0.018003 -0.00702441 -0.00187232
0.0208054 -0.0190908 -0.00492822
0.0207733 -0.0251481 -0.00635674
0.0161191 -0.0271588 -0.0076452
-1.61237e-06 -0.0140867 -0.00434534
9.71526e-05 2.59522e-05 9.32225e-07
-3.30354e-05 3.43787e-05 0.000655511
0.00654534 0.00402481 0.00144663
0.0133248 0.00907893 0.00142124
0.0167043 0.00977454 0.00102036
0.0185028 0.00873016 0.000500106
0.0202259 0.00717989 2.94031e-05
0.021932 0.00564746 -0.000239848
0.0234506 0.00442121 -0.00032465
0.0247164 0.00345595 -0.000298827
0.0257425 0.00266248 -0.000224699
0.0265706 0.00199089 -0.000141237
0.0272417 0.0014277 -6.83213e-05
0.0277869 0.000973792 -1.34273e-05
0.0282273 0.000626869 2.2695e-05
0.0285788 0.000375732 4.23953e-05
0.028855 0.000202963 4.93241e-05
0.0290687 8.9923e-05 4.75446e-05
0.0292315 2.01531e-05 4.08757e-05
0.0293537 -1.94783e-05 3.2365e-05
0.0294441 -3.89373e-05 2.40344e-05
0.0295099 -4.55795e-05 1.69394e-05
0.0295569 -4.46797e-05 1.14229e-05
0.0295899 -3.98649e-05 7.40853e-06
0.0296126 -3.34866e-05 4.6339e-06
0.029628 -2.69506e-05 2.79607e-06
0.0296383 -2.10027e-05 1.62343e-06
0.0296451 -1.59607e-05 9.01067e-07
0.0296494 -1.18871e-05 4.71635e-07
0.0296522 -8.70937e-06 2.261e-07
0.029654 -6.29571e-06 9.21165e-08
0.0296551 -4.50044e-06 2.34346e-08
0.0296558 -3.18735e-06 -8.51256e-09
0.0296562 -2.23992e-06 -2.07801e-08
0.0296565 -1.5639e-06 -2.31906e-08
0.0296567 -1.08597e-06 -2.11677e-08
0.0296568 -7.50699e-07 -1.75496e-08
0.0296568 -5.17121e-07 -1.37252e-08
0.0296569 -3.55583e-07 -1.02473e-08
0.0296569 -2.45132e-07 -7.30711e-09
0.0296569 -1.71406e-07 -4.80793e-09
0.0296569 -1.23864e-07 -3.0385e-09
0.0296569 -9.59873e-08 -6.03571e-09
0.0296569 -7.19824e-08 -1.66849e-08
0.0296569 -5.74428e-08 -2.37524e-08
0.0196 -2.82e-06 -2.55819e-06
0.019601 -0.00594195 -0.00274345
0.0190499 -0.0132645 -0.00649
0.0159173 -0.0163275 -0.00670525
0.010837 -0.0153227 -0.00670003
0.00168979 -0.00632055 -0.00504958
7.22698e-05 -6.63447e-05 -0.0013058
3.33093e-05 -3.33093e-05 -4.24967e-08
-3.24289e-05 3.36419e-05 0.000265355
0.0038441 0.00266163 0.000569525
0.00873967 0.00615622 0.000504267
0.0116181 0.00631431 0.00015808
0.0148516 0.00486702 -0.000225304
0.0179932 0.00356635 -0.000400321
0.0206815 0.0026744 -0.000407533
0.0228552 0.00202696 -0.000332264
0.0245787 0.00149295 -0.000234058
0.0259404 0.00102525 -0.000144217
0.0270139 0.000627189 -7.39714e-05
0.0278526 0.000314257 -2.3917e-05
0.0284968 9.19036e-05 8.91484e-06
0.0289803 -4.89518e-05 2.77886e-05
0.0293341 -0.000126137 3.57507e-05
0.0295868 -0.000158876 3.59105e-05
0.029763 -0.000163379 3.13754e-05
0.0298831 -0.000151626 2.483e-05
0.0299633 -0.000131833 1.81751e-05
0.0300155 -0.000109349 1.24595e-05
0.0300487 -8.74362e-05 8.05706e-06
0.0300692 -6.7872e-05 4.92813e-06
0.0300814 -5.14132e-05 2.8439e-06
0.0300884 -3.81631e-05 1.5322e-06
0.0300922 -2.78538e-05 7.50481e-07
0.0300942 -2.00466e-05 3.1103e-07
0.030095 -1.42614e-05 8.10381e-08
0.0300953 -1.00492e-05 -2.74163e-08
0.0300953 -7.02564e-06 -6.94107e-08
0.0300952 -4.88016e-06 -7.77264e-08
0.0300951 -3.37196e-06 -7.08685e-08
0.0300949 -2.31975e-06 -5.8659e-08
0.0300948 -1.59017e-06 -4.58948e-08
0.0300947 -1.08686e-06 -3.46104e-08
0.0300946 -7.41114e-07 -2.54165e-08
0.0300945 -5.04551e-07 -1.8283e-08
0.0300945 -3.43409e-07 -1.29166e-08
0.0300944 -2.34116e-07 -9.046e-09
0.0300944 -1.60093e-07 -6.54417e-09
0.0300944 -1.08023e-07 -5.28661e-09
0.0300944 -6.77613e-08 -1.00375e-08
0.0300943 -2.22239e-08 -1.86308e-08
0.0300943 5.2205e-09 -2.21379e-08
0.0196 -1.36007e-06 -3.57695e-06
0.0195999 -0.00370646 -0.00312893
0.0187449 -0.00815114 -0.00653182
0.0174854 -0.00820693 -0.00606167
0.0131386 -0.00439246 -0.00554669
0.00903502 0.00248788 -0.00534306
0.00612982 0.00311945 -0.00313445
7.2452e-05 -6.02374e-05 -0.000683047
2.78085e-05 -2.78085e-05 -1.27447e-07
-3.18838e-05 3.29741e-05 9.84274e-05
0.00261151 0.00178516 0.000377178
0.00678673 0.0026769 0.000282646
0.0119783 0.00113227 -0.000162751
0.0165665 0.000262342 -0.000379288
0.0201421 -6.11821e-07 -0.000402111
0.0228215 -7.20361e-05 -0.000330996
0.0248205 -0.00014803 -0.000236227
0.0263153 -0.000260736 -0.000152829
0.0274257 -0.000376391 -9.06431e-05
0.0282337 -0.000457581 -4.75998e-05
0.0288015 -0.000487996 -1.90124e-05
0.0291829 -0.000472205 -1.23862e-06
0.0294254 -0.000425266 8.25458e-06
0.0295699 -0.000363085 1.16974e-05
0.0296493 -0.000297646 1.13033e-05
0.0296877 -0.000236257 9.02982e-06
0.0297022 -0.00018258 6.28747e-06
0.0297036 -0.000137906 3.86711e-06
0.0296988 -0.000102115 2.06688e-06
0.0296917 -7.43253e-05 8.8831e-07
0.0296845 -5.33106e-05 2.0314e-07
0.029678 -3.77693e-05 -1.4263e-07
0.0296726 -2.6488e-05 -2.80073e-07
0.0296684 -1.84236e-05 -3.034e-07
0.0296652 -1.27301e-05 -2.72831e-07
0.0296628 -8.75023e-06 -2.23113e-07
0.0296611 -5.98985e-06 -1.72151e-07
0.0296598 -4.08693e-06 -1.27757e-07
0.029659 -2.78129e-06 -9.22577e-08
0.0296583 -1.88874e-06 -6.5331e-08
0.0296579 -1.28033e-06 -4.56125e-08
0.0296576 -8.66578e-07 -3.15131e-08
0.0296574 -5.85738e-07 -2.1593e-08
0.0296572 -3.95348e-07 -1.47162e-08
0.0296571 -2.66136e-07 -1.0061e-08
0.0296571 -1.77538e-07 -7.07287e-09
0.029657 -1.14678e-07 -5.54841e-09
0.029657 -6.55225e-08 -4.90995e-09
0.0296569 -1.94114e-08 -8.92281e-09
0.0296569 3.52787e-08 -1.36342e-08
0.0296568 6.6451e-08 -1.40895e-08
0.018 -8.63959e-07 -3.57303e-06
0.0180009 -0.00202024 -0.00305242
0.0183088 -0.00391647 -0.00617027
0.0183537 -0.00274064 -0.00529308
0.0173257 0.000538497 -0.00418925
0.0170349 0.00699851 -0.00396606
0.0177653 0.0125388 -0.00302464
0.0109023 0.00692236 -0.00152065
7.39099e-05 -4.6565e-05 -0.000444248
-2.4933e-05 -5.42955e-05 5.57656e-07
7.92408e-06 -0.000783927 0.000762236
0.00817107 -0.00307584 0.00111194
0.0153432 -0.00466688 0.000457267
0.0202084 -0.0042214 0.000106887
0.0233107 -0.00318828 -4.11074e-05
0.0253028 -0.00230707 -9.11037e-05
0.026612 -0.00172865 -9.82252e-05
0.0274744 -0.00137923 -8.95789e-05
0.0280211 -0.00115123 -7.63684e-05
0.0283359 -0.00097022 -6.20348e-05
0.0284837 -0.000803614 -4.76996e-05
0.0285192 -0.000646532 -3.44813e-05
0.0284876 -0.000504756 -2.35165e-05
0.028423 -0.000383936 -1.53722e-05
0.0283482 -0.000285957 -9.88041e-06
0.0282767 -0.000209425 -6.42474e-06
0.0282149 -0.000151264 -4.31358e-06
0.028165 -0.000107975 -3.00182e-06
0.0281263 -7.6295e-05 -2.14148e-06
0.0280974 -5.34437e-05 -1.54061e-06
0.0280764 -3.71655e-05 -1.10224e-06
0.0280613 -2.56929e-05 -7.77476e-07
0.0280507 -1.76784e-05 -5.38418e-07
0.0280434 -1.21191e-05 -3.6565e-07
0.0280382 -8.28387e-06 -2.43643e-07
0.0280347 -5.6491e-06 -1.59511e-07
0.0280323 -3.84471e-06 -1.02791e-07
0.0280307 -2.61202e-06 -6.53274e-08
0.0280296 -1.77155e-06 -4.10266e-08
0.0280288 -1.19949e-06 -2.55085e-08
0.0280283 -8.10741e-07 -1.57286e-08
0.0280279 -5.46914e-07 -9.62972e-09
0.0280277 -3.67966e-07 -5.86522e-09
0.0280275 -2.46297e-07 -3.59279e-09
0.0280274 -1.62668e-07 -2.30804e-09
0.0280274 -1.03334e-07 -1.68093e-09
0.0280273 -5.80447e-08 -1.60041e-09
0.0280273 -1.8674e-08 -1.5012e-09
0.0280272 2.29575e-08 -3.25236e-09
0.0280272 7.05332e-08 -4.77277e-09
0.0280272 9.56076e-08 -4.33939e-09
0.0148 -4.83478e-07 -3.16543e-06
0.0148015 -0.00104391 -0.00283386
0.0162274 -0.0016737 -0.00543519
0.0177785 -8.25035e-05 -0.00429463
0.019076 0.003105 -0.00305733
0.0207853 0.00729704 -0.00282996
0.0245883 0.012966 -0.0024087
0.0278787 0.0194943 -0.00153166
0.0229355 0.011268 -0.000359173
0.0233995 2.33884e-11 0.000617619
0.0265569 -0.00675924 0.0015638
0.0299095 -0.013212 0.00212972
0.0305858 -0.0111217 0.00165453
0.029883 -0.00772148 0.0011341
0.0288469 -0.00500281 0.000656713
0.0279157 -0.00322805 0.000295654
0.0271795 -0.00215569 7.20502e-05
0.0266019 -0.00150749 -4.08352e-05
0.0261308 -0.00109007 -8.32186e-05
0.025733 -0.000796183 -8.75247e-05
0.0253942 -0.000576343 -7.45357e-05
0.02511 -0.000410212 -5.62601e-05
0.0248779 -0.000287541 -3.89568e-05
0.024694 -0.000199804 -2.52052e-05
0.0245524 -0.000138598 -1.54218e-05
0.0244462 -9.64223e-05 -8.99467e-06
0.0243681 -6.73819e-05 -5.01992e-06
0.0243119 -4.72652e-05 -2.67544e-06
0.024272 -3.32203e-05 -1.34587e-06
0.0242441 -2.33516e-05 -6.19015e-07
0.0242247 -1.63917e-05 -2.37614e-07
0.0242114 -1.1478e-05 -4.83975e-08
0.0242022 -8.0122e-06 3.70682e-08
0.024196 -5.57318e-06 6.85935e-08
0.0241917 -3.86208e-06 7.36158e-08
0.0241888 -2.66597e-06 6.68593e-08
0.0241869 -1.83309e-06 5.59394e-08
0.0241855 -1.25548e-06 4.45698e-08
0.0241846 -8.56514e-07 3.43761e-08
0.024184 -5.8204e-07 2.59069e-08
0.0241836 -3.93901e-07 1.91887e-08
0.0241833 -2.65274e-07 1.40245e-08
0.0241831 -1.77301e-07 1.01416e-08
0.024183 -1.16651e-07 7.26571e-09
0.0241829 -7.37834e-08 5.16295e-09
0.0241828 -4.17147e-08 3.67701e-09
0.0241828 -1.50912e-08 2.7157e-09
0.0241828 9.96022e-09 2.4665e-09
0.0241828 3.68647e-08 2.39328e-09
0.0241828 6.44937e-08 1.54823e-09
0.0241828 7.77298e-08 8.85804e-10
0.01 -9.26962e-07 -2.86886e-06
0.0100008 -0.000639501 -0.00230808
0.0113161 -0.00072755 -0.0041488
0.0131616 0.000527455 -0.00290483
0.0155632 0.00248933 -0.00179202
0.0194211 0.00553429 -0.00179382
0.0253149 0.00835524 -0.0023513
0.0344372 0.0101193 -0.00209235
0.0460412 0.00480915 -0.000517768
0.0458006 -0.00404022 0.000974052