# vtk DataFile Version 2.0
Tobias Weinzierl: CPU, Manycore and Cluster Computing
ASCII

DATASET STRUCTURED_POINTS
DIMENSIONS  51 11 6

ORIGIN 0 0 0 

SPACING 0.1 0.1 0.1 

POINT_DATA 3366

VECTORS velocity float
0 0 0
1.36526e-12 0 0
1.80405e-09 0 0
3.26262e-09 0 0
-5.53573e-09 0 0
4.9925e-09 0 0
6.43873e-09 0 0
5.25828e-09 0 0
4.68348e-09 0 0
3.63887e-09 0 0
2.22844e-09 0 0
1.31212e-09 0 0
4.01008e-10 0 0
-1.69798e-09 0 0
-4.86378e-09 0 0
-7.68225e-09 0 0
-9.20609e-09 0 0
-9.71487e-09 0 0
-1.002e-08 0 0
-1.06508e-08 0 0
-1.16628e-08 0 0
-1.28511e-08 0 0
-1.39874e-08 0 0
-1.4931e-08 0 0
-1.56371e-08 0 0
-1.61232e-08 0 0
-1.64338e-08 0 0
-1.66175e-08 0 0
-1.67161e-08 0 0
-1.67613e-08 0 0
-1.67752e-08 0 0
-1.67725e-08 0 0
-1.67621e-08 0 0
-1.67492e-08 0 0
-1.67365e-08 0 0
-1.67253e-08 0 0
-1.67161e-08 0 0
-1.67087e-08 0 0
-1.6703e-08 0 0
-1.66987e-08 0 0
-1.66955e-08 0 0
-1.66931e-08 0 0
-1.66913e-08 0 0
-1.66901e-08 0 0
-1.66892e-08 0 0
-1.66886e-08 0 0
-1.66882e-08 0 0
-1.66881e-08 0 0
-1.66882e-08 0 0
-1.66888e-08 0 0
0.00195705 0 0
0 3.8646e-07 0
1.45853e-12 -1.83289e-09 0
2.75675e-09 -4.81966e-09 0
7.26312e-09 -1.55897e-09 0
-2.7812e-09 -7.70025e-09 0
1.62802e-08 -1.03127e-08 0
1.8263e-08 5.01543e-11 0
1.50707e-08 2.16401e-09 0
1.39817e-08 2.00717e-09 0
1.27204e-08 1.85455e-09 0
1.01984e-08 8.80369e-10 0
7.42773e-09 6.53279e-10 0
4.01563e-09 2.68938e-09 0
-1.20888e-09 5.33995e-09 0
-7.42058e-09 5.97279e-09 0
-1.23371e-08 4.32003e-09 0
-1.5074e-08 2.13938e-09 0
-1.67638e-08 8.84397e-10 0
-1.89251e-08 7.11881e-10 0
-2.21658e-08 1.04698e-09 0
-2.61637e-08 1.35514e-09 0
-3.02405e-08 1.42266e-09 0
-3.3832e-08 1.27345e-09 0
-3.66594e-08 1.01318e-09 0
-3.86934e-08 7.35204e-10 0
-4.00474e-08 4.92913e-10 0
-4.08846e-08 3.05721e-10 0
-4.13613e-08 1.7301e-10 0
-4.1604e-08 8.54481e-11 0
-4.17047e-08 3.16361e-11 0
-4.17254e-08 1.24275e-12 0
-4.17058e-08 -1.39128e-11 0
-4.16692e-08 -1.97877e-11 0
-4.16289e-08 -2.04463e-11 0
-4.15914e-08 -1.85002e-11 0
-4.15594e-08 -1.55238e-11 0
-4.15334e-08 -1.23944e-11 0
-4.15132e-08 -9.54707e-12 0
-4.14977e-08 -7.15376e-12 0
-4.14861e-08 -5.24131e-12 0
-4.14776e-08 -3.76521e-12 0
-4.14713e-08 -2.65276e-12 0
-4.14668e-08 -1.82656e-12 0
-4.14636e-08 -1.21474e-12 0
-4.14613e-08 -7.5459e-13 0
-4.14598e-08 -3.91459e-13 0
-4.1459e-08 -6.56729e-14 0
-4.14588e-08 2.98231e-13 0
-4.14595e-08 1.01404e-12 0
-4.14616e-08 3.00762e-12 0
0.00561591 -2.96914e-08 0
0 -2.11679e-08 0
1.34988e-12 -1.78713e-09 0
3.39736e-09 -7.89347e-09 0
1.29748e-08 -1.28779e-08 0
1.50372e-08 -2.4608e-08 0
3.01435e-08 -2.06122e-08 0
2.58357e-08 -1.83359e-09 0
2.39901e-08 -9.38146e-11 0
2.07949e-08 -5.10464e-09 0
1.58479e-08 -1.04785e-08 0
8.63815e-09 -1.27e-08 0
3.5282e-09 -9.46134e-09 0
3.86881e-10 -2.49443e-09 0
-4.20116e-09 3.82784e-09 0
-9.92752e-09 7.49419e-09 0
-1.43631e-08 9.40174e-09 0
-1.6601e-08 1.05673e-08 0
-1.77586e-08 1.11092e-08 0
-1.93532e-08 1.08999e-08 0
-2.2086e-08 9.98003e-09 0
-2.57297e-08 8.54167e-09 0
-2.96062e-08 6.84426e-09 0
-3.3081e-08 5.14411e-09 0
-3.58038e-08 3.6337e-09 0
-3.77106e-08 2.41324e-09 0
-3.89139e-08 1.50095e-09 0
-3.95917e-08 8.63115e-10 0
-3.99169e-08 4.43867e-10 0
-4.0027e-08 1.85197e-10 0
-4.00188e-08 3.7077e-11 0
-3.99545e-08 -3.92682e-11 0
-3.9871e-08 -7.17521e-11 0
-3.9788e-08 -7.92969e-11 0
-3.97147e-08 -7.40324e-11 0
-3.96541e-08 -6.32895e-11 0
-3.96063e-08 -5.11951e-11 0
-3.95696e-08 -3.98499e-11 0
-3.95421e-08 -3.01453e-11 0
-3.95218e-08 -2.23007e-11 0
-3.9507e-08 -1.61973e-11 0
-3.94963e-08 -1.15751e-11 0
-3.94886e-08 -8.1389e-12 0
-3.94831e-08 -5.61101e-12 0
-3.94793e-08 -3.75024e-12 0
-3.94766e-08 -2.34988e-12 0
-3.9475e-08 -1.22526e-12 0
-3.94741e-08 -1.45046e-13 0
-3.94742e-08 1.27885e-12 0
-3.9475e-08 3.49596e-12 0
-3.94772e-08 6.91344e-12 0
0.00804106 -6.7996e-08 0
0 -6.40874e-07 0
4.54161e-12 -3.76829e-09 0
5.27239e-09 -1.31741e-08 0
1.67676e-08 -2.46678e-08 0
1.68101e-08 -3.38953e-08 0
1.88556e-08 -1.86417e-08 0
1.40159e-08 -9.57457e-12 0
1.41778e-08 -2.0757e-09 0
5.81187e-09 -1.03652e-08 0
-3.33244e-09 -2.03918e-08 0
-9.08317e-09 -2.58694e-08 0
-1.1685e-08 -2.64359e-08 0
-1.30412e-08 -2.06304e-08 0
-1.811e-08 -9.19691e-09 0
-2.5192e-08 4.15428e-09 0
-3.03848e-08 1.51339e-08 0
-3.16066e-08 2.08154e-08 0
-2.93116e-08 2.12938e-08 0
-2.5435e-08 1.86935e-08 0
-2.1926e-08 1.50692e-08 0
-1.97622e-08 1.15033e-08 0
-1.88981e-08 8.3663e-09 0
-1.87976e-08 5.75679e-09 0
-1.89403e-08 3.69838e-09 0
-1.90299e-08 2.17132e-09 0
-1.89751e-08 1.11302e-09 0
-1.87973e-08 4.32552e-10 0
-1.85529e-08 3.21911e-11 0
-1.82933e-08 -1.75933e-10 0
-1.8052e-08 -2.61799e-10 0
-1.78457e-08 -2.76285e-10 0
-1.7679e-08 -2.5366e-10 0
-1.75496e-08 -2.1536e-10 0
-1.74521e-08 -1.73739e-10 0
-1.73803e-08 -1.35163e-10 0
-1.73283e-08 -1.02326e-10 0
-1.7291e-08 -7.58407e-11 0
-1.72645e-08 -5.52622e-11 0
-1.72458e-08 -3.9704e-11 0
-1.72327e-08 -2.81796e-11 0
-1.72234e-08 -1.97712e-11 0
-1.72169e-08 -1.36975e-11 0
-1.72124e-08 -9.32585e-12 0
-1.72092e-08 -6.15453e-12 0
-1.7207e-08 -3.77696e-12 0
-1.72057e-08 -1.82514e-12 0
-1.7205e-08 6.10361e-14 0
-1.72046e-08 2.17747e-12 0
-1.72044e-08 4.63324e-12 0
-1.72047e-08 7.28236e-12 0
0.00903749 -7.26496e-08 0
0 -1.25274e-06 0
2.95011e-12 -7.23953e-09 0
2.13066e-09 -1.99592e-08 0
6.3344e-09 -2.62539e-08 0
3.12443e-09 -2.13164e-08 0
-2.50041e-12 -7.78774e-09 0
-5.80711e-11 -7.56105e-11 0
6.92832e-11 -7.34805e-11 0
-5.68462e-09 -8.48689e-09 0
-2.27261e-08 -2.63157e-08 0
-2.94326e-08 -3.98856e-08 0
-2.79089e-08 -4.25483e-08 0
-2.97452e-08 -3.2356e-08 0
-3.5492e-08 -1.26652e-08 0
-4.15858e-08 7.72683e-09 0
-4.5261e-08 2.18004e-08 0
-4.4836e-08 2.65438e-08 0
-3.97954e-08 2.38733e-08 0
-3.1501e-08 1.80138e-08 0
-2.25359e-08 1.21865e-08 0
-1.50024e-08 7.61731e-09 0
-9.64058e-09 4.33223e-09 0
-6.15742e-09 2.04612e-09 0
-3.92907e-09 5.18696e-10 0
-2.43609e-09 -4.21616e-10 0
-1.36776e-09 -9.19482e-10 0
-5.68471e-10 -1.10761e-09 0
3.69138e-11 -1.10068e-09 0
4.90886e-10 -9.87639e-10 0
8.24642e-10 -8.30208e-10 0
1.06469e-09 -6.66534e-10 0
1.23386e-09 -5.17142e-10 0
1.35104e-09 -3.90803e-10 0
1.43111e-09 -2.8926e-10 0
1.48527e-09 -2.10572e-10 0
1.52168e-09 -1.51236e-10 0
1.54608e-09 -1.07424e-10 0
1.56245e-09 -7.55998e-11 0
1.57346e-09 -5.27788e-11 0
1.58093e-09 -3.65751e-11 0
1.58604e-09 -2.51509e-11 0
1.58958e-09 -1.71255e-11 0
1.59206e-09 -1.14767e-11 0
1.59381e-09 -7.44601e-12 0
1.59506e-09 -4.46371e-12 0
1.59599e-09 -2.11526e-12 0
1.59687e-09 -1.39998e-13 0
1.59791e-09 1.56086e-12 0
1.59926e-09 3.00412e-12 0
1.60025e-09 4.34408e-12 0
0.00939441 -4.19274e-08 0
0 -1.13346e-06 0
-2.54938e-12 -7.89565e-09 0
-2.61842e-09 -1.73674e-08 0
-2.80883e-09 -2.04034e-08 0
-6.89483e-09 -2.03118e-08 0
-5.83405e-09 -9.38188e-09 0
-6.37255e-11 6.15222e-11 0
7.77273e-12 -7.77273e-12 0
6.58728e-11 -7.26899e-11 0
-1.26272e-08 -1.45795e-08 0
-3.65801e-08 -4.12267e-08 0
-3.94296e-08 -5.05923e-08 0
-4.16147e-08 -3.70923e-08 0
-4.34806e-08 -1.35909e-08 0
-4.39613e-08 9.32147e-09 0
-4.39713e-08 2.4103e-08 0
-4.30692e-08 2.75633e-08 0
-3.90068e-08 2.2292e-08 0
-3.09445e-08 1.38014e-08 0
-2.08076e-08 6.28517e-09 0
-1.13447e-08 1.17978e-09 0
-4.1342e-09 -1.77206e-09 0
6.75818e-10 -3.23966e-09 0
3.65297e-09 -3.76497e-09 0
5.44537e-09 -3.71309e-09 0
6.52788e-09 -3.33603e-09 0
7.19073e-09 -2.81209e-09 0
7.60007e-09 -2.26072e-09 0
7.85191e-09 -1.75223e-09 0
8.00441e-09 -1.31975e-09 0
8.09438e-09 -9.71782e-10 0
8.14561e-09 -7.02851e-10 0
8.17347e-09 -5.01172e-10 0
8.18771e-09 -3.53359e-10 0
8.19434e-09 -2.46918e-10 0
8.19694e-09 -1.71307e-10 0
8.19758e-09 -1.18159e-10 0
8.19739e-09 -8.11012e-11 0
8.19696e-09 -5.54215e-11 0
8.19656e-09 -3.77045e-11 0
8.19628e-09 -2.55127e-11 0
8.19617e-09 -1.71235e-11 0
8.19619e-09 -1.13263e-11 0
8.19636e-09 -7.28015e-12 0
8.19669e-09 -4.4217e-12 0
8.19721e-09 -2.39976e-12 0
8.19804e-09 -1.00785e-12 0
8.19925e-09 -1.32687e-13 0
8.20071e-09 2.34431e-13 0
8.20174e-09 3.24105e-13 0
0.00947824 6.1773e-09 0
0 -7.82405e-07 0
-6.2369e-13 -4.77311e-09 0
-2.76225e-09 -1.21547e-08 0
-2.45717e-09 -1.59105e-08 0
-1.01388e-08 -1.57933e-08 0
-1.47291e-08 -9.68278e-09 0
-6.57697e-09 -2.41769e-09 0
-6.18311e-11 6.12114e-11 0
4.67401e-12 -4.67401e-12 0
6.06902e-11 -7.10535e-11 0
-1.68987e-08 -2.42417e-08 0
-3.16264e-08 -4.73854e-08 0
-3.89972e-08 -3.50406e-08 0
-4.03752e-08 -1.13662e-08 0
-3.69256e-08 1.04922e-08 0
-3.229e-08 2.37732e-08 0
-2.9426e-08 2.574e-08 0
-2.69282e-08 1.8921e-08 0
-2.21372e-08 9.03526e-09 0
-1.50863e-08 7.06205e-10 0
-7.91311e-09 -4.44283e-09 0
-2.416e-09 -6.80664e-09 0
9.36398e-10 -7.33226e-09 0
2.57058e-09 -6.82493e-09 0
3.13634e-09 -5.83279e-09 0
3.15386e-09 -4.70033e-09 0
2.94385e-09 -3.62603e-09 0
2.67361e-09 -2.70566e-09 0
2.41821e-09 -1.968e-09 0
2.20453e-09 -1.40383e-09 0
2.0369e-09 -9.86758e-10 0
1.91045e-09 -6.85992e-10 0
1.81754e-09 -4.73016e-10 0
1.75055e-09 -3.24195e-10 0
1.70292e-09 -2.21199e-10 0
1.66946e-09 -1.50408e-10 0
1.64619e-09 -1.01991e-10 0
1.63016e-09 -6.89896e-11 0
1.61925e-09 -4.65495e-11 0
1.6119e-09 -3.13126e-11 0
1.60704e-09 -2.0972e-11 0
1.6039e-09 -1.3952e-11 0
1.60196e-09 -9.18656e-12 0
1.60088e-09 -5.96571e-12 0
1.60041e-09 -3.82592e-12 0
1.60041e-09 -2.47394e-12 0
1.60081e-09 -1.74318e-12 0
1.60155e-09 -1.59213e-12 0
1.60244e-09 -2.18656e-12 0
1.60296e-09 -3.53079e-12 0
0.00939438 5.15689e-08 0
0 -5.48677e-07 0
2.7936e-12 -3.40599e-09 0
-1.11482e-09 -8.80691e-09 0
-2.36465e-09 -1.19649e-08 0
-9.66829e-09 -1.1086e-08 0
-1.87805e-08 -5.16337e-09 0
-1.85242e-08 -3.03563e-10 0
-1.05326e-08 3.377e-10 0
-6.6467e-11 5.59516e-11 0
5.98073e-11 5.03072e-11 0
3.8575e-12 -1.34622e-08 0
-1.95332e-08 -2.76787e-08 0
-3.64043e-08 -1.90015e-08 0
-4.28004e-08 -4.60564e-10 0
-3.69982e-08 1.37034e-08 0
-2.46332e-08 1.95787e-08 0
-1.5091e-08 1.77153e-08 0
-1.16354e-08 1.07649e-08 0
-1.11074e-08 2.67454e-09 0
-1.04223e-08 -3.48717e-09 0
-9.30138e-09 -6.79125e-09 0
-8.65635e-09 -7.78375e-09 0
-8.95125e-09 -7.3799e-09 0
-1.00007e-08 -6.31466e-09 0
-1.13845e-08 -5.05494e-09 0
-1.27588e-08 -3.85896e-09 0
-1.39403e-08 -2.8447e-09 0
-1.48728e-08 -2.04371e-09 0
-1.557e-08 -1.44116e-09 0
-1.60733e-08 -1.00298e-09 0
-1.64283e-08 -6.91704e-10 0
-1.6675e-08 -4.74085e-10 0
-1.68448e-08 -3.23555e-10 0
-1.69609e-08 -2.20154e-10 0
-1.70398e-08 -1.49448e-10 0
-1.70933e-08 -1.01244e-10 0
-1.71295e-08 -6.8449e-11 0
-1.71538e-08 -4.61733e-11 0
-1.71701e-08 -3.10628e-11 0
-1.71809e-08 -2.08263e-11 0
-1.71881e-08 -1.39037e-11 0
-1.71927e-08 -9.23789e-12 0
-1.71955e-08 -6.11697e-12 0
-1.71973e-08 -4.06683e-12 0
-1.71982e-08 -2.78171e-12 0
-1.71987e-08 -2.08477e-12 0
-1.71988e-08 -1.91547e-12 0
-1.71987e-08 -2.34572e-12 0
-1.71986e-08 -3.70999e-12 0
-1.7199e-08 -6.29329e-12 0
0.00903746 7.49542e-08 0
0 -4.65706e-07 0
2.81628e-12 -1.78244e-09 0
-1.41318e-10 -4.96598e-09 0
-3.22849e-09 -7.41377e-09 0
-1.26641e-08 -7.4165e-09 0
-2.40174e-08 -1.58278e-09 0
-2.67687e-08 3.78223e-09 0
-2.38229e-08 -4.03601e-09 0
-1.5049e-08 -6.21472e-09 0
-1.28123e-08 3.14394e-13 0
-1.38145e-08 -5.2208e-09 0
-3.03392e-08 -8.05256e-09 0
-4.73878e-08 7.58368e-10 0
-5.06482e-08 1.10962e-08 0
-3.76775e-08 1.44365e-08 0
-1.83663e-08 1.07689e-08 0
-6.47588e-09 4.23906e-09 0
-6.40166e-09 -1.5881e-09 0
-1.27149e-08 -4.89601e-09 0
-1.92191e-08 -5.70299e-09 0
-2.37578e-08 -5.09506e-09 0
-2.68294e-08 -4.09922e-09 0
-2.92687e-08 -3.20065e-09 0
-3.14363e-08 -2.49183e-09 0
-3.33532e-08 -1.93362e-09 0
-3.49581e-08 -1.4838e-09 0
-3.62261e-08 -1.12023e-09 0
-3.7182e-08 -8.31271e-10 0
-3.78782e-08 -6.07193e-10 0
-3.83732e-08 -4.3758e-10 0
-3.87195e-08 -3.11818e-10 0
-3.89592e-08 -2.20115e-10 0
-3.91239e-08 -1.54137e-10 0
-3.92365e-08 -1.07178e-10 0
-3.93131e-08 -7.40549e-11 0
-3.93652e-08 -5.08696e-11 0
-3.94003e-08 -3.47484e-11 0
-3.9424e-08 -2.3606e-11 0
-3.94398e-08 -1.59474e-11 0
-3.94503e-08 -1.07128e-11 0
-3.94572e-08 -7.15804e-12 0
-3.94616e-08 -4.76615e-12 0
-3.94644e-08 -3.18338e-12 0
-3.94661e-08 -2.17611e-12 0
-3.94671e-08 -1.60254e-12 0
-3.94678e-08 -1.39731e-12 0
-3.94682e-08 -1.57798e-12 0
-3.94687e-08 -2.24731e-12 0
-3.94695e-08 -3.69514e-12 0
-3.94716e-08 -6.2823e-12 0
0.00804106 6.25479e-08 0
0 -4.80538e-07 0
4.85489e-12 -3.03165e-10 0
4.14544e-10 -1.24737e-09 0
-3.92234e-09 -2.36506e-09 0
-1.45569e-08 -2.64045e-09 0
-2.69613e-08 -1.77488e-09 0
-3.08345e-08 4.69357e-10 0
-2.81191e-08 -1.41029e-09 0
-3.24216e-08 -3.25065e-09 0
-3.02026e-08 5.50583e-10 0
-2.80616e-08 4.38783e-09 0
-3.19738e-08 7.23879e-09 0
-3.48149e-08 8.03772e-09 0
-3.04098e-08 6.50493e-09 0
-1.81591e-08 3.65426e-09 0
-5.91882e-09 -1.61014e-10 0
-2.67932e-09 -3.73361e-09 0
-9.17664e-09 -5.31557e-09 0
-1.92474e-08 -4.57764e-09 0
-2.74398e-08 -2.76409e-09 0
-3.23294e-08 -1.18262e-09 0
-3.48845e-08 -3.12875e-10 0
-3.63254e-08 -1.57015e-11 0
-3.73495e-08 -2.16837e-12 0
-3.82097e-08 -6.9147e-11 0
-3.8955e-08 -1.25824e-10 0
-3.95798e-08 -1.49934e-10 0
-4.00806e-08 -1.47135e-10 0
-4.04665e-08 -1.29141e-10 0
-4.0755e-08 -1.05518e-10 0
-4.09656e-08 -8.20888e-11 0
-4.11166e-08 -6.16528e-11 0
-4.12233e-08 -4.5106e-11 0
-4.1298e-08 -3.23407e-11 0
-4.13497e-08 -2.28184e-11 0
-4.13851e-08 -1.58876e-11 0
-4.14093e-08 -1.09367e-11 0
-4.14255e-08 -7.45225e-12 0
-4.14363e-08 -5.03017e-12 0
-4.14434e-08 -3.3655e-12 0
-4.1448e-08 -2.23512e-12 0
-4.14509e-08 -1.48033e-12 0
-4.14527e-08 -9.91968e-13 0
-4.14538e-08 -6.99876e-13 0
-4.14544e-08 -5.66002e-13 0
-4.14549e-08 -5.80265e-13 0
-4.14554e-08 -7.66216e-13 0
-4.14561e-08 -1.1519e-12 0
-4.14575e-08 -1.76117e-12 0
-4.14604e-08 -2.81404e-12 0
0.00561594 2.35766e-08 0
0 0 0
3.24142e-12 0 0
2.81937e-10 0 0
-1.95132e-09 0 0
-6.91403e-09 0 0
-1.28269e-08 0 0
-1.60143e-08 0 0
-1.48283e-08 0 0
-1.7378e-08 0 0
-1.7391e-08 0 0
-1.42434e-08 0 0
-1.01598e-08 0 0
-6.51723e-09 0 0
-3.59529e-09 0 0
-7.5101e-10 0 0
7.17417e-10 0 0
-9.75172e-10 0 0
-5.29546e-09 0 0
-9.93313e-09 0 0
-1.31833e-08 0 0
-1.48357e-08 0 0
-1.54703e-08 0 0
-1.56724e-08 0 0
-1.57674e-08 0 0
-1.58715e-08 0 0
-1.59994e-08 0 0
-1.61351e-08 0 0
-1.62617e-08 0 0
-1.63698e-08 0 0
-1.64565e-08 0 0
-1.65229e-08 0 0
-1.65723e-08 0 0
-1.66081e-08 0 0
-1.66335e-08 0 0
-1.66513e-08 0 0
-1.66635e-08 0 0
-1.66719e-08 0 0
-1.66774e-08 0 0
-1.66811e-08 0 0
-1.66835e-08 0 0
-1.6685e-08 0 0
-1.66859e-08 0 0
-1.66864e-08 0 0
-1.66867e-08 0 0
-1.66868e-08 0 0
-1.6687e-08 0 0
-1.66872e-08 0 0
-1.66876e-08 0 0
-1.66883e-08 0 0
-1.66896e-08 0 0
0.00195707 0 0
0 0 5.36597e-07
1.3376e-12 0 3.13028e-11
1.88964e-09 0 1.56086e-09
7.93744e-09 0 8.9012e-09
-1.86989e-08 0 5.9728e-09
7.86751e-09 0 -1.65936e-09
1.38686e-08 0 -3.13552e-10
1.27194e-08 0 -4.06414e-10
1.3197e-08 0 -3.85449e-10
1.47622e-08 0 6.02771e-10
1.723e-08 0 1.44865e-09
2.07874e-08 0 1.1764e-09
2.31147e-08 0 3.22935e-10
2.06753e-08 0 -7.29715e-11
1.29294e-08 0 1.36446e-11
3.16935e-09 0 2.44152e-11
-5.27658e-09 0 -1.04663e-10
-1.16725e-08 0 -6.83908e-11
-1.70226e-08 0 2.26066e-10
-2.22388e-08 0 5.97751e-10
-2.74429e-08 0 8.4713e-10
-3.22698e-08 0 9.03872e-10
-3.6336e-08 0 8.08271e-10
-3.94663e-08 0 6.38301e-10
-4.16944e-08 0 4.5876e-10
-4.31736e-08 0 3.05511e-10
-4.40921e-08 0 1.90264e-10
-4.46218e-08 0 1.1091e-10
-4.48988e-08 0 5.99014e-11
-4.50213e-08 0 2.90332e-11
-4.50556e-08 0 1.14596e-11
-4.50441e-08 0 2.16525e-12
-4.50121e-08 0 -2.23985e-12
-4.49741e-08 0 -3.91814e-12
-4.49376e-08 0 -4.18278e-12
-4.49059e-08 0 -3.79356e-12
-4.48799e-08 0 -3.16639e-12
-4.48594e-08 0 -2.51262e-12
-4.48436e-08 0 -1.92733e-12
-4.48318e-08 0 -1.44304e-12
-4.4823e-08 0 -1.0609e-12
-4.48165e-08 0 -7.68246e-13
-4.48118e-08 0 -5.48113e-13
-4.48085e-08 0 -3.83276e-13
-4.48061e-08 0 -2.5847e-13
-4.48046e-08 0 -1.63657e-13
-4.48037e-08 0 -9.3763e-14
-4.48034e-08 0 -8.25349e-14
-4.48039e-08 0 -6.76841e-14
-4.48059e-08 0 6.95156e-13
0.00555881 0 -3.76946e-09
0.0036 -3.09143e-07 -6.32263e-08
0.0035998 -0.00138628 -2.24034e-05
0.00671449 -0.00391712 0.000106927
0.013608 -0.00590991 -0.000538671
0.0235306 -0.0144297 -0.00429902
0.0462937 -0.0133098 -0.00487801
0.0497909 -0.00188228 -0.00164512
0.0495281 0.0026734 -0.00016732
0.0445373 0.0050004 0.000560629
0.0389245 0.00516794 0.000535252
0.0338033 0.00450147 0.000253673
0.0294892 0.00361705 -2.44735e-05
0.0260718 0.00273062 -0.000213158
0.0234939 0.00193801 -0.000301211
0.021595 0.00130302 -0.000305141
0.020194 0.000850948 -0.000251363
0.0191504 0.000560147 -0.000172041
0.0183716 0.000382487 -9.63545e-05
0.0177972 0.000270966 -4.08727e-05
0.0173835 0.000194528 -8.29656e-06
0.0170947 0.000137826 6.66194e-06
0.0169003 9.47002e-05 1.10373e-05
0.0167745 6.2544e-05 1.03608e-05
0.0166965 3.95159e-05 7.97094e-06
0.0166504 2.37627e-05 5.48735e-06
0.0166246 1.34672e-05 3.50073e-06
0.0166114 7.03798e-06 2.10204e-06
0.0166053 3.21338e-06 1.19316e-06
0.0166033 1.06595e-06 6.36457e-07
0.0166034 -4.75437e-08 3.12247e-07
0.0166043 -5.52693e-07 1.32732e-07
0.0166056 -7.19575e-07 3.91768e-08
0.0166068 -7.12705e-07 -5.49105e-09
0.0166078 -6.27859e-07 -2.36509e-08
0.0166087 -5.17743e-07 -2.82939e-08
0.0166094 -4.09116e-07 -2.66658e-08
0.0166099 -3.13805e-07 -2.26217e-08
0.0166103 -2.35515e-07 -1.80841e-08
0.0166106 -1.73883e-07 -1.3916e-08
0.0166108 -1.26792e-07 -1.0426e-08
0.016611 -9.16029e-08 -7.65193e-09
0.0166111 -6.57784e-08 -5.5197e-09
0.0166112 -4.71396e-08 -3.9232e-09
0.0166112 -3.39444e-08 -2.75726e-09
0.0166113 -2.48918e-08 -1.93619e-09
0.0166113 -1.90341e-08 -1.30348e-09
0.0166113 -1.58086e-08 -5.34507e-10
0.0166113 -1.50614e-08 1.62287e-09
0.0166114 -2.03552e-08 5.60656e-09
0.0166114 -5.60252e-08 -3.59547e-09
0.0166115 -8.66547e-08 -1.50957e-08
0.01 -1.39556e-07 -1.45888e-06
0.0100007 -0.00298969 -0.0005989
0.0147888 -0.00994635 -0.000788413
0.0241616 -0.0177143 -0.00125797
0.0385017 -0.032462 -0.00336086
0.059135 -0.0247496 -0.00081946
0.0563868 -0.0026963 0.00316755
0.0558249 0.00512763 0.0033797
0.0500412 0.0101251 0.00298631
0.0445574 0.0102968 0.00206964
0.0400468 0.0092395 0.00110271
0.0363302 0.0078192 0.000353254
0.0333566 0.00630656 -0.000160709
0.0310783 0.00488907 -0.000452
0.0293352 0.00368834 -0.000536547
0.0279854 0.00273312 -0.000469612
0.0269451 0.00199493 -0.000331488
0.0261631 0.00143309 -0.000191629
0.0255954 0.00101093 -8.68209e-05
0.0251987 0.000698012 -2.3746e-05
0.0249322 0.00046986 6.70529e-06
0.024761 0.000307038 1.7121e-05
0.0246568 0.000193942 1.7563e-05
0.0245972 0.00011782 1.4241e-05
0.0245662 6.83179e-05 1.02786e-05
0.0245523 3.72869e-05 6.91053e-06
0.0245479 1.86006e-05 4.42614e-06
0.0245485 7.86357e-06 2.73353e-06
0.0245512 2.05741e-06 1.63809e-06
0.0245545 -8.10002e-07 9.5481e-07
0.0245578 -2.00583e-06 5.40963e-07
0.0245606 -2.30728e-06 2.96778e-07
0.0245628 -2.17261e-06 1.56364e-07
0.0245646 -1.85963e-06 7.78426e-08
0.0245659 -1.50462e-06 3.53632e-08
0.0245669 -1.17303e-06 1.33543e-08
0.0245676 -8.90919e-07 2.64903e-09
0.0245681 -6.63792e-07 -2.02566e-09
0.0245685 -4.87502e-07 -3.62746e-09
0.0245688 -3.5419e-07 -3.76582e-09
0.024569 -2.55348e-07 -3.28243e-09
0.0245691 -1.83247e-07 -2.60075e-09
0.0245692 -1.31467e-07 -1.92799e-09
0.0245693 -9.49746e-08 -1.34337e-09
0.0245693 -7.00719e-08 -8.72846e-10
0.0245694 -5.42707e-08 -3.09133e-10
0.0245694 -4.66301e-08 9.80252e-10
0.0245694 -5.13829e-08 3.97238e-09
0.0245695 -7.80291e-08 7.03455e-09
0.0245696 -1.47153e-07 -1.40673e-08
0.0245696 -1.9617e-07 -3.61726e-08
0.0148 -9.63275e-07 -1.7507e-06
0.0148024 -0.00529219 -0.00112817
0.0203695 -0.0164038 -0.00244123
0.0275011 -0.0287596 -0.00394125
0.0321274 -0.0460847 -0.0057632
0.0306098 -0.0284564 -0.00140961
0.026845 -1.2331e-05 0.00329237
0.0262887 0.00708185 0.00351583
0.0298195 0.0144829 0.00341532
0.030176 0.0139555 0.00243042
0.0293706 0.0122011 0.0014467
0.028538 0.0103632 0.00059921
0.0278992 0.00845517 -5.04784e-06
0.0275725 0.00663179 -0.000352441
0.027443 0.00505397 -0.000456632
0.0274163 0.00374725 -0.000396029
0.0274455 0.00269897 -0.00026568
0.0275037 0.00189069 -0.000135826
0.0275722 0.00129187 -4.02603e-05
0.027639 0.000861646 1.50691e-05
0.0276997 0.000559184 3.84851e-05
0.0277536 0.000350719 4.21265e-05
0.0278009 0.000210539 3.62881e-05
0.0278418 0.000119265 2.76006e-05
0.0278762 6.21579e-05 1.94158e-05
0.0279041 2.81101e-05 1.29437e-05
0.027926 9.00394e-06 8.29528e-06
0.0279426 -8.47616e-07 5.15431e-06
0.027955 -5.25008e-06 3.12023e-06
0.027964 -6.63576e-06 1.84457e-06
0.0279704 -6.48857e-06 1.06534e-06
0.0279749 -5.66891e-06 6.00297e-07
0.027978 -4.64571e-06 3.28857e-07
0.0279802 -3.65306e-06 1.73971e-07
0.0279817 -2.79117e-06 8.77551e-08
0.0279827 -2.0885e-06 4.11441e-08
0.0279834 -1.53843e-06 1.68684e-08
0.0279839 -1.11981e-06 4.87761e-09
0.0279842 -8.0772e-07 -5.55442e-10
0.0279845 -5.78703e-07 -2.61964e-09
0.0279846 -4.12777e-07 -3.04211e-09
0.0279847 -2.93923e-07 -2.73242e-09
0.0279848 -2.09838e-07 -2.16128e-09
0.0279848 -1.51414e-07 -1.52287e-09
0.0279849 -1.12255e-07 -8.33076e-10
0.0279849 -8.88657e-08 1.15619e-10
0.0279849 -8.08024e-08 1.92173e-09
0.027985 -9.14716e-08 3.88296e-09
0.027985 -1.26251e-07 -5.35927e-10
0.027985 -1.81539e-07 -3.31779e-08
0.027985 -2.1281e-07 -6.06656e-08
0.018 -1.94199e-06 -1.70307e-06
0.018003 -0.00698419 -0.00187977
0.0207597 -0.0189425 -0.00492089
0.020701 -0.0248976 -0.00633041
0.0160732 -0.0269381 -0.00761513
-1.60401e-06 -0.0140084 -0.00432685
9.76046e-05 2.64615e-05 9.20857e-07
-3.34992e-05 3.48576e-05 0.000650689
0.00659957 0.00412489 0.00142542
0.0135296 0.00938854 0.00138563
0.0169632 0.010254 0.000970046
0.0187207 0.00929746 0.000422233
0.0203989 0.00770616 -6.73453e-05
0.022088 0.00596722 -0.000326197
0.0236229 0.00444031 -0.000375153
0.0249328 0.00317697 -0.000306117
0.0260133 0.00217655 -0.000196495
0.0268788 0.00143007 -9.16561e-05
0.0275486 0.000905485 -1.26847e-05
0.0280483 0.000552455 3.4634e-05
0.0284101 0.000320773 5.4275e-05
0.028667 0.000171744 5.51324e-05
0.0288474 7.88367e-05 4.64363e-05
0.0289728 2.39654e-05 3.49427e-05
0.0290593 -5.70939e-06 2.43505e-05
0.0291182 -1.94662e-05 1.6047e-05
0.0291577 -2.38429e-05 1.01308e-05
0.029184 -2.32052e-05 6.17612e-06
0.0292011 -2.02771e-05 3.65202e-06
0.0292121 -1.66288e-05 2.09819e-06
0.0292192 -1.30782e-05 1.17034e-06
0.0292236 -9.98747e-06 6.31416e-07
0.0292264 -7.46484e-06 3.26791e-07
0.0292282 -5.49007e-06 1.59541e-07
0.0292293 -3.98835e-06 7.07917e-08
0.02923 -2.87012e-06 2.57378e-08
0.0292304 -2.05037e-06 4.30992e-09
0.0292307 -1.45658e-06 -4.78474e-09
0.0292309 -1.03046e-06 -7.73829e-09
0.029231 -7.26968e-07 -7.84475e-09
0.029231 -5.12267e-07 -6.78826e-09
0.0292311 -3.61433e-07 -5.38749e-09
0.0292311 -2.56455e-07 -4.01012e-09
0.0292311 -1.84673e-07 -2.76087e-09
0.0292312 -1.3768e-07 -1.6109e-09
0.0292312 -1.1042e-07 -5.89255e-10
0.0292312 -1.00027e-07 2.96216e-10
0.0292312 -1.03255e-07 -4.45756e-10
0.0292312 -1.17191e-07 -1.29977e-08
0.0292311 -1.28659e-07 -5.00997e-08
0.0292311 -1.30671e-07 -7.58193e-08
0.0196 -2.81083e-06 -2.57209e-06
0.019601 -0.00588579 -0.00274483
0.019061 -0.0131315 -0.00647236
0.0159608 -0.0161365 -0.00667741
0.0109246 -0.0151131 -0.00668427
0.00174823 -0.00622512 -0.00503685
7.27213e-05 -6.67786e-05 -0.00129998
3.32793e-05 -3.32793e-05 -4.07536e-08
-3.28862e-05 3.41123e-05 0.00025481
0.0039639 0.00282164 0.000541648
0.00910412 0.00662509 0.000470254
0.0120267 0.00694875 0.000120772
0.0152745 0.00542508 -0.000257994
0.0184294 0.00387091 -0.00041074
0.0211302 0.00264112 -0.000396594
0.0233151 0.00167871 -0.000313172
0.02504 0.000949017 -0.000214621
0.0263745 0.000444976 -0.00012203
0.0273756 0.000138282 -4.55899e-05
0.0280977 -2.49479e-05 7.38839e-06
0.028599 -9.99222e-05 3.51994e-05
0.0289362 -0.000126256 4.28702e-05
0.0291576 -0.000127125 3.86211e-05
0.0293002 -0.00011521 2.97209e-05
0.0293904 -9.77502e-05 2.06477e-05
0.0294464 -7.90794e-05 1.33269e-05
0.0294805 -6.16881e-05 8.12454e-06
0.0295007 -4.67804e-05 4.72097e-06
0.0295125 -3.47056e-05 2.62386e-06
0.0295191 -2.5316e-05 1.39199e-06
0.0295228 -1.82299e-05 6.98168e-07
0.0295247 -1.29998e-05 3.23218e-07
0.0295257 -9.20287e-06 1.29755e-07
0.0295261 -6.47988e-06 3.57416e-08
0.0295263 -4.54465e-06 -5.90514e-09
0.0295264 -3.17838e-06 -2.12617e-08
0.0295263 -2.21846e-06 -2.42656e-08
0.0295263 -1.54647e-06 -2.20744e-08
0.0295263 -1.07737e-06 -1.81808e-08
0.0295262 -7.50684e-07 -1.41617e-08
0.0295262 -5.2378e-07 -1.063e-08
0.0295262 -3.66776e-07 -7.74878e-09
0.0295261 -2.58909e-07 -5.50122e-09
0.0295261 -1.85893e-07 -3.81869e-09
0.0295261 -1.37873e-07 -2.71813e-09
0.0295261 -1.07463e-07 -2.37556e-09
0.0295261 -8.84268e-08 -3.02561e-09
0.0295261 -7.39348e-08 -5.68054e-09
0.029526 -5.62347e-08 -2.12263e-08
0.029526 -2.13093e-08 -5.59957e-08
0.0295259 3.00775e-09 -7.72801e-08
0.0196 -1.3508e-06 -3.58129e-06
0.0195999 -0.00367611 -0.00312432
0.0187809 -0.00805732 -0.00651096
0.0175346 -0.00806379 -0.00604945
0.0132271 -0.00422431 -0.0055473
0.00913088 0.00263326 -0.00532099
0.00616 0.00317634 -0.00309465
7.28846e-05 -6.06726e-05 -0.000661899
2.77864e-05 -2.77864e-05 -1.27245e-07
-3.234e-05 3.34323e-05 9.12534e-05
0.00278331 0.00204051 0.000353204
0.00715012 0.00323191 0.000260294
0.0124539 0.00164222 -0.000149014
0.0171044 0.000526852 -0.000322724
0.0207047 -6.09991e-05 -0.000328618
0.02337 -0.000425464 -0.000275441
0.0253139 -0.000665421 -0.000214818
0.0267104 -0.000774954 -0.000154907
0.0276826 -0.000759883 -9.56564e-05
0.0283281 -0.000663555 -4.43832e-05
0.0287341 -0.000537173 -9.19507e-06
0.0289762 -0.000414788 8.6358e-06
0.0291131 -0.000310834 1.38241e-05
0.0291863 -0.000228068 1.24537e-05
0.0292227 -0.000164544 8.96259e-06
0.0292389 -0.000117035 5.61073e-06
0.0292444 -8.2262e-05 3.1472e-06
0.029245 -5.7282e-05 1.58409e-06
0.0292433 -3.96139e-05 6.92107e-07
0.0292411 -2.72688e-05 2.29402e-07
0.0292389 -1.87196e-05 1.43411e-08
0.029237 -1.28345e-05 -6.9726e-08
0.0292355 -8.79776e-06 -9.05425e-08
0.0292343 -6.03372e-06 -8.44077e-08
0.0292334 -4.14193e-06 -6.92917e-08
0.0292328 -2.84657e-06 -5.32598e-08
0.0292323 -1.95882e-06 -3.93884e-08
0.029232 -1.34975e-06 -2.84381e-08
0.0292317 -9.31484e-07 -2.02156e-08
0.0292316 -6.44082e-07 -1.42202e-08
0.0292315 -4.46635e-07 -9.92274e-09
0.0292314 -3.11183e-07 -6.88648e-09
0.0292313 -2.18517e-07 -4.81837e-09
0.0292313 -1.55186e-07 -3.55147e-09
0.0292312 -1.11363e-07 -3.08513e-09
0.0292312 -7.92492e-08 -3.46523e-09
0.0292312 -5.20005e-08 -4.72677e-09
0.0292311 -2.22356e-08 -7.41906e-09
0.0292311 2.12634e-08 -2.04677e-08
0.029231 9.17764e-08 -4.87114e-08
0.029231 1.35335e-07 -6.57426e-08
0.018 -8.64215e-07 -3.56954e-06
0.0180009 -0.00200061 -0.00304668
0.0183227 -0.00384777 -0.00615291
0.0183889 -0.00261421 -0.0052859
0.0173854 0.000693551 -0.00420706
0.0171182 0.00712817 -0.00396707
0.0178538 0.0126021 -0.00298033
0.0109734 0.00693362 -0.00147344
7.4376e-05 -4.69691e-05 -0.000428986
-2.53913e-05 -5.46496e-05 5.55659e-07
7.87611e-06 -0.000655526 0.000743083
0.00835916 -0.00274402 0.00108413
0.0157471 -0.0043253 0.000468083
0.020776 -0.00407711 0.000172977
0.0239525 -0.00330442 5.92474e-05
0.0259144 -0.00262897 -3.77846e-06
0.0271034 -0.00213056 -6.23973e-05
0.0277898 -0.00172323 -0.00010543
0.0281447 -0.00134889 -0.000115001
0.0282892 -0.00100872 -9.53848e-05
0.0283127 -0.000723937 -6.4856e-05
0.0282772 -0.000504403 -3.81405e-05
0.0282211 -0.000344872 -2.03574e-05
0.0281646 -0.000233065 -1.03783e-05
0.0281164 -0.00015636 -5.34456e-06
0.0280787 -0.000104436 -2.92264e-06
0.0280507 -6.96093e-05 -1.73485e-06
0.0280305 -4.63938e-05 -1.10261e-06
0.0280163 -3.09719e-05 -7.27558e-07
0.0280065 -2.07365e-05 -4.85272e-07
0.0279997 -1.39345e-05 -3.22082e-07
0.0279951 -9.40082e-06 -2.11287e-07
0.0279919 -6.36706e-06 -1.36778e-07
0.0279897 -4.32798e-06 -8.74622e-08
0.0279883 -2.95141e-06 -5.53607e-08
0.0279872 -2.01827e-06 -3.47734e-08
0.0279865 -1.38346e-06 -2.17306e-08
0.027986 -9.5032e-07 -1.35444e-08
0.0279857 -6.54122e-07 -8.44051e-09
0.0279855 -4.51257e-07 -5.27397e-09
0.0279853 -3.1217e-07 -3.32247e-09
0.0279852 -2.16647e-07 -2.15545e-09
0.0279851 -1.50634e-07 -1.5485e-09
0.0279851 -1.04081e-07 -1.38217e-09
0.027985 -6.94208e-08 -1.63779e-09
0.027985 -4.04218e-08 -2.2729e-09
0.0279849 -1.11373e-08 -3.20898e-09
0.0279849 2.52265e-08 -4.79016e-09
0.0279849 8.083e-08 -1.19519e-08
0.0279849 1.647e-07 -3.17994e-08
0.0279849 2.1387e-07 -4.55302e-08
0.0148 -4.85297e-07 -3.16236e-06
0.0148015 -0.00102859 -0.00282449
0.0162359 -0.00162032 -0.00541823
0.0178171 1.64985e-05 -0.00429419
0.0191708 0.00323255 -0.00308724
0.0209373 0.00739446 -0.00286521
0.0247574 0.0129811 -0.00241168
0.0280475 0.0195269 -0.00150026
0.0230521 0.0113164 -0.000331087
0.0234956 8.91415e-11 0.000628526
0.0266394 -0.00668252 0.00155781
0.0301292 -0.0130574 0.00210737
0.0310497 -0.0110259 0.00164752
0.0305236 -0.00776512 0.0011725
0.0295073 -0.00517869 0.000740635
0.028458 -0.00346142 0.000379163
0.0275392 -0.00235428 0.000103032
0.0267843 -0.00160582 -7.08075e-05
0.0261844 -0.0010752 -0.000141717
0.0257211 -0.0007005 -0.000139198
0.0253739 -0.000447017 -0.000104356
0.0251213 -0.000283315 -6.66954e-05
0.0249425 -0.000180529 -3.83955e-05
0.024819 -0.000116393 -2.06138e-05
0.0247353 -7.60192e-05 -1.05652e-05
0.0246793 -5.02259e-05 -5.24789e-06
0.0246422 -3.35013e-05 -2.54564e-06
0.0246178 -2.25188e-05 -1.20563e-06
0.0246017 -1.52315e-05 -5.51559e-07
0.024591 -1.03547e-05 -2.36692e-07
0.024584 -7.0675e-06 -8.80342e-08
0.0245793 -4.83885e-06 -2.03377e-08
0.0245761 -3.32071e-06 8.26169e-09
0.024574 -2.28276e-06 1.83313e-08
0.0245726 -1.57117e-06 1.9969e-08
0.0245716 -1.08234e-06 1.80983e-08
0.0245709 -7.46096e-07 1.50698e-08
0.0245704 -5.14624e-07 1.19532e-08
0.0245701 -3.55206e-07 9.1848e-09
0.0245699 -2.4536e-07 6.89443e-09
0.0245697 -1.69541e-07 5.07169e-09
0.0245696 -1.16891e-07 3.64436e-09
0.0245696 -7.96839e-08 2.51781e-09
0.0245695 -5.22118e-08 1.61755e-09
0.0245695 -2.99409e-08 8.67122e-10
0.0245695 -8.85388e-09 2.6669e-10
0.0245694 1.5273e-08 -6.10713e-11
0.0245694 4.69941e-08 -3.79047e-10
0.0245694 9.35365e-08 -2.35403e-09
0.0245695 1.57615e-07 -1.58962e-08
0.0245696 1.93493e-07 -2.77079e-08
0.01 -9.26192e-07 -2.86303e-06
0.0100008 -0.00063078 -0.00230027
0.0113306 -0.000699552 -0.00414102
0.0132191 0.00057511 -0.00292139
0.0156957 0.00254894 -0.00183899
0.0196411 0.00559204 -0.00184959
0.0255764 0.00836881 -0.00238176
0.0346735 0.0101228 -0.00209426