# vtk DataFile Version 2.0
Tobias Weinzierl: CPU, Manycore and Cluster Computing
ASCII

DATASET STRUCTURED_POINTS
DIMENSIONS  51 11 6

ORIGIN 0 0 0 

SPACING 0.1 0.1 0.1 

POINT_DATA 3366

VECTORS velocity float
0 0 0
7.07063e-14 0 0
-2.12546e-10 0 0
-3.50078e-10 0 0
-1.53704e-09 0 0
1.11225e-09 0 0
1.66902e-09 0 0
1.69549e-09 0 0
1.95481e-09 0 0
2.56197e-09 0 0
3.32893e-09 0 0
3.94952e-09 0 0
4.16938e-09 0 0
3.90989e-09 0 0
3.20077e-09 0 0
2.16292e-09 0 0
1.02268e-09 0 0
2.35561e-11 0 0
-7.30128e-10 0 0
-1.30999e-09 0 0
-1.85906e-09 0 0
-2.47426e-09 0 0
-3.16367e-09 0 0
-3.8722e-09 0 0
-4.52907e-09 0 0
-5.08225e-09 0 0
-5.5101e-09 0 0
-5.81663e-09 0 0
-6.02074e-09 0 0
-6.14648e-09 0 0
-6.21673e-09 0 0
-6.25034e-09 0 0
-6.26141e-09 0 0
-6.2598e-09 0 0
-6.25195e-09 0 0
-6.2418e-09 0 0
-6.2316e-09 0 0
-6.22245e-09 0 0
-6.2148e-09 0 0
-6.2087e-09 0 0
-6.204e-09 0 0
-6.20048e-09 0 0
-6.19791e-09 0 0
-6.19606e-09 0 0
-6.19477e-09 0 0
-6.1939e-09 0 0
-6.19334e-09 0 0
-6.19303e-09 0 0
-6.19293e-09 0 0
-6.1931e-09 0 0
0.00189302 0 0
0 3.86896e-07 0
1.26809e-13 -1.52161e-11 0
-3.23322e-10 -3.49522e-10 0
-1.21331e-10 -1.05094e-10 0
-7.86968e-10 -9.52105e-10 0
3.61204e-09 -8.72466e-10 0
4.23564e-09 9.67742e-10 0
4.06885e-09 7.64971e-10 0
5.14852e-09 -5.07517e-10 0
7.36903e-09 -1.8277e-09 0
9.8838e-09 -2.7575e-09 0
1.18022e-08 -3.032e-09 0
1.24644e-08 -2.4705e-09 0
1.16828e-08 -1.15959e-09 0
9.79279e-09 3.68312e-10 0
7.39263e-09 1.44292e-09 0
4.99601e-09 1.75938e-09 0
2.85389e-09 1.50411e-09 0
9.30213e-10 1.0826e-09 0
-9.70615e-10 7.90924e-10 0
-3.0217e-09 6.9802e-10 0
-5.26041e-09 7.22859e-10 0
-7.58172e-09 7.57593e-10 0
-9.80528e-09 7.38955e-10 0
-1.176e-08 6.5753e-10 0
-1.33409e-08 5.35543e-10 0
-1.45224e-08 4.02268e-10 0
-1.53406e-08 2.799e-10 0
-1.58643e-08 1.79901e-10 0
-1.61699e-08 1.05065e-10 0
-1.6326e-08 5.30885e-11 0
-1.63872e-08 1.95214e-11 0
-1.63928e-08 -4.02925e-13 0
-1.63696e-08 -1.08849e-11 0
-1.63344e-08 -1.52528e-11 0
-1.62969e-08 -1.5954e-11 0
-1.62623e-08 -1.46783e-11 0
-1.62328e-08 -1.25216e-11 0
-1.62089e-08 -1.01441e-11 0
-1.61904e-08 -7.90629e-12 0
-1.61763e-08 -5.97424e-12 0
-1.61659e-08 -4.39631e-12 0
-1.61584e-08 -3.15593e-12 0
-1.6153e-08 -2.20572e-12 0
-1.61493e-08 -1.48721e-12 0
-1.61468e-08 -9.4147e-13 0
-1.61452e-08 -5.09894e-13 0
-1.61443e-08 -1.21859e-13 0
-1.61441e-08 3.66404e-13 0
-1.61446e-08 1.27556e-12 0
0.00545331 -1.17172e-08 0
0 -1.89027e-08 0
4.65583e-13 -9.12607e-11 0
3.53332e-10 -1.27338e-09 0
1.94848e-09 -3.09861e-09 0
3.88742e-09 -5.45061e-09 0
6.80983e-09 -3.85984e-09 0
5.27019e-09 9.6033e-11 0
4.0307e-09 -2.68582e-10 0
4.87477e-09 -2.6379e-09 0
8.18624e-09 -5.0231e-09 0
1.21598e-08 -7.11319e-09 0
1.50047e-08 -8.60511e-09 0
1.58397e-08 -8.73294e-09 0
1.44271e-08 -6.96643e-09 0
1.16253e-08 -3.76925e-09 0
8.48266e-09 -1.81338e-10 0
5.57422e-09 2.89212e-09 0
2.99272e-09 4.95814e-09 0
6.10925e-10 5.93617e-09 0
-1.70905e-09 6.04414e-09 0
-4.0448e-09 5.61287e-09 0
-6.40333e-09 4.91802e-09 0
-8.71469e-09 4.12202e-09 0
-1.08496e-08 3.30825e-09 0
-1.26719e-08 2.53016e-09 0
-1.40937e-08 1.83187e-09 0
-1.50999e-08 1.24571e-09 0
-1.57367e-08 7.85899e-10 0
-1.60839e-08 4.48528e-10 0
-1.62276e-08 2.17093e-10 0
-1.6243e-08 6.94638e-11 0
-1.61873e-08 -1.66331e-11 0
-1.61e-08 -6.0513e-11 0
-1.60051e-08 -7.73707e-11 0
-1.59164e-08 -7.82918e-11 0
-1.58399e-08 -7.08515e-11 0
-1.57774e-08 -5.98971e-11 0
-1.57284e-08 -4.83015e-11 0
-1.56911e-08 -3.7595e-11 0
-1.56633e-08 -2.84509e-11 0
-1.5643e-08 -2.10338e-11 0
-1.56285e-08 -1.52355e-11 0
-1.56182e-08 -1.08231e-11 0
-1.56111e-08 -7.52735e-12 0
-1.56062e-08 -5.08695e-12 0
-1.56029e-08 -3.26473e-12 0
-1.56009e-08 -1.83449e-12 0
-1.55998e-08 -5.18164e-13 0
-1.55996e-08 1.02294e-12 0
-1.56001e-08 3.13832e-12 0
0.00788526 -2.94078e-08 0
0 -6.39453e-07 0
9.18265e-13 -7.9203e-10 0
9.52854e-10 -3.0221e-09 0
3.1158e-09 -5.92303e-09 0
4.45918e-09 -7.91166e-09 0
4.31003e-09 -4.22008e-09 0
2.70267e-09 -2.67705e-12 0
1.65736e-09 -1.12745e-09 0
6.88265e-10 -3.78526e-09 0
2.23318e-09 -7.18571e-09 0
5.6709e-09 -1.10925e-08 0
8.2547e-09 -1.45134e-08 0
9.12952e-09 -1.55119e-08 0
7.73801e-09 -1.31387e-08 0
4.81995e-09 -8.09787e-09 0
1.31142e-09 -1.63384e-09 0
-2.12156e-09 4.70647e-09 0
-5.0087e-09 9.40025e-09 0
-7.01413e-09 1.16252e-08 0
-8.02515e-09 1.15767e-08 0
-8.22412e-09 1.00962e-08 0
-7.98129e-09 8.05824e-09 0
-7.63839e-09 6.02859e-09 0
-7.36804e-09 4.25934e-09 0
-7.1811e-09 2.82084e-09 0
-7.01566e-09 1.70924e-09 0
-6.81586e-09 8.94527e-10 0
-6.56325e-09 3.34521e-10 0
-6.27121e-09 -1.99278e-11 0
-5.96695e-09 -2.19396e-10 0
-5.67671e-09 -3.10293e-10 0
-5.41852e-09 -3.31145e-10 0
-5.20113e-09 -3.11263e-10 0
-5.02591e-09 -2.71237e-10 0
-4.88956e-09 -2.24402e-10 0
-4.78644e-09 -1.78622e-10 0
-4.71028e-09 -1.37939e-10 0
-4.65512e-09 -1.03929e-10 0
-4.61581e-09 -7.67068e-11 0
-4.5882e-09 -5.56237e-11 0
-4.56902e-09 -3.9711e-11 0
-4.55585e-09 -2.79435e-11 0
-4.54688e-09 -1.9377e-11 0
-4.54086e-09 -1.32046e-11 0
-4.53687e-09 -8.76476e-12 0
-4.5343e-09 -5.51458e-12 0
-4.53276e-09 -2.99331e-12 0
-4.53189e-09 -7.85177e-13 0
-4.53143e-09 1.43338e-12 0
-4.53138e-09 3.73795e-12 0
0.00897986 -3.28877e-08 0
0 -1.25609e-06 0
2.21872e-13 -1.53156e-09 0
1.63949e-10 -4.33853e-09 0
8.83256e-10 -5.76841e-09 0
9.92829e-10 -4.67376e-09 0
-3.48924e-13 -1.71322e-09 0
-1.45154e-11 -1.40737e-11 0
1.32013e-11 -1.36308e-11 0
-9.92779e-10 -1.94256e-09 0
-3.357e-09 -6.96625e-09 0
-4.16955e-09 -1.30011e-08 0
-2.98627e-09 -1.80509e-08 0
-2.70862e-09 -1.98371e-08 0
-4.00399e-09 -1.69602e-08 0
-6.35785e-09 -1.01551e-08 0
-9.13782e-09 -1.14618e-09 0
-1.17541e-08 7.48505e-09 0
-1.35966e-08 1.33068e-08 0
-1.40947e-08 1.52777e-08 0
-1.29916e-08 1.40175e-08 0
-1.0556e-08 1.10128e-08 0
-7.44855e-09 7.6333e-09 0
-4.35598e-09 4.6689e-09 0
-1.70902e-09 2.3883e-09 0
3.63574e-10 7.79099e-10 0
1.92363e-09 -2.68536e-10 0
3.09413e-09 -8.79247e-10 0
3.98443e-09 -1.1685e-09 0
4.66979e-09 -1.23704e-09 0
5.19786e-09 -1.16816e-09 0
5.60059e-09 -1.02598e-09 0
5.90242e-09 -8.55678e-10 0
6.12402e-09 -6.86033e-10 0
6.28332e-09 -5.33014e-10 0
6.39556e-09 -4.03611e-10 0
6.47321e-09 -2.99131e-10 0
6.52606e-09 -2.177e-10 0
6.56152e-09 -1.55983e-10 0
6.58501e-09 -1.10257e-10 0
6.60041e-09 -7.70048e-11 0
6.6104e-09 -5.31935e-11 0
6.61683e-09 -3.63536e-11 0
6.62094e-09 -2.4554e-11 0
6.62352e-09 -1.63258e-11 0
6.62513e-09 -1.05674e-11 0
6.62611e-09 -6.45837e-12 0
6.62674e-09 -3.40076e-12 0
6.62728e-09 -9.95825e-13 0
6.62803e-09 9.78419e-13 0
6.62873e-09 2.57598e-12 0
0.00942739 -1.73945e-08 0
0 -1.13875e-06 0
-5.70261e-13 -1.44157e-09 0
-8.43603e-10 -3.36138e-09 0
-1.06683e-09 -4.38842e-09 0
-1.54036e-09 -4.64983e-09 0
-1.0906e-09 -2.18148e-09 0
-1.37761e-11 1.35005e-11 0
-2.97804e-13 2.97804e-13 0
1.3684e-11 -1.27181e-11 0
-2.21099e-09 -3.14014e-09 0
-7.664e-09 -1.12585e-08 0
-1.04378e-08 -1.88087e-08 0
-1.24705e-08 -2.09464e-08 0
-1.44367e-08 -1.74457e-08 0
-1.60182e-08 -9.54182e-09 0
-1.70063e-08 4.0196e-10 0
-1.72858e-08 9.2638e-09 0
-1.6715e-08 1.45016e-08 0
-1.5021e-08 1.53391e-08 0
-1.20245e-08 1.28093e-08 0
-7.96528e-09 8.74436e-09 0
-3.49117e-09 4.68851e-09 0
6.7974e-10 1.44802e-09 0
4.08061e-09 -7.80956e-10 0
6.58186e-09 -2.11122e-09 0
8.28836e-09 -2.74891e-09 0
9.39452e-09 -2.89911e-09 0
1.00878e-08 -2.73763e-09 0
1.05118e-08 -2.40438e-09 0
1.0765e-08 -2.00233e-09 0
1.09114e-08 -1.59988e-09 0
1.09919e-08 -1.23643e-09 0
1.10327e-08 -9.2979e-10 0
1.10504e-08 -6.83512e-10 0
1.10552e-08 -4.93006e-10 0
1.10535e-08 -3.49942e-10 0
1.10489e-08 -2.45032e-10 0
1.10436e-08 -1.69579e-10 0
1.10385e-08 -1.16172e-10 0
1.10342e-08 -7.88616e-11 0
1.10307e-08 -5.30743e-11 0
1.10279e-08 -3.54007e-11 0
1.10258e-08 -2.33573e-11 0
1.10243e-08 -1.51666e-11 0
1.10233e-08 -9.57581e-12 0
1.10226e-08 -5.72587e-12 0
1.10223e-08 -3.05829e-12 0
1.10225e-08 -1.24078e-12 0
1.10233e-08 -1.25676e-13 0
1.10241e-08 4.00799e-13 0
0.009545 8.57507e-09 0
0 -7.84177e-07 0
-2.01342e-13 -8.29369e-10 0
-8.08676e-10 -2.16108e-09 0
-8.59761e-10 -2.85567e-09 0
-1.85475e-09 -3.17888e-09 0
-2.42999e-09 -2.72415e-09 0
-1.07912e-09 -1.06911e-09 0
-1.33799e-11 1.36208e-11 0
6.46478e-14 -6.46478e-14 0
1.51794e-11 -1.21882e-11 0
-3.42843e-09 -5.88418e-09 0
-1.04768e-08 -1.54329e-08 0
-1.61366e-08 -1.86367e-08 0
-1.97604e-08 -1.48308e-08 0
-2.13731e-08 -6.72336e-09 0
-2.09143e-08 2.49609e-09 0
-1.86972e-08 9.75036e-09 0
-1.53463e-08 1.31135e-08 0
-1.13547e-08 1.24197e-08 0
-6.99293e-09 9.00777e-09 0
-2.55544e-09 4.70722e-09 0
1.51987e-09 8.89646e-10 0
4.80244e-09 -1.84064e-09 0
7.07048e-09 -3.44588e-09 0
8.36405e-09 -4.14264e-09 0
8.89657e-09 -4.20087e-09 0
8.93075e-09 -3.86247e-09 0
8.69422e-09 -3.31921e-09 0
8.34784e-09 -2.70987e-09 0
7.98851e-09 -2.12414e-09 0
7.66551e-09 -1.6109e-09 0
7.39772e-09 -1.18905e-09 0
7.18708e-09 -8.58345e-10 0
7.02738e-09 -6.08354e-10 0
6.90954e-09 -4.2468e-10 0
6.82438e-09 -2.92744e-10 0
6.76379e-09 -1.99666e-10 0
6.72124e-09 -1.34948e-10 0
6.69165e-09 -9.04731e-11 0
6.67125e-09 -6.01977e-11 0
6.65729e-09 -3.97449e-11 0
6.6478e-09 -2.6009e-11 0
6.64141e-09 -1.68225e-11 0
6.63716e-09 -1.06966e-11 0
6.63441e-09 -6.62957e-12 0
6.63276e-09 -3.96623e-12 0
6.63192e-09 -2.29917e-12 0
6.63177e-09 -1.40331e-12 0
6.63221e-09 -1.24686e-12 0
6.63275e-09 -1.78453e-12 0
0.00942739 3.17643e-08 0
0 -5.49124e-07 0
3.6345e-13 -4.38831e-10 0
-3.09106e-10 -1.25659e-09 0
-3.48558e-10 -2.0734e-09 0
-1.05783e-09 -2.40963e-09 0
-2.58403e-09 -1.70274e-09 0
-3.07242e-09 -4.60044e-10 0
-1.96828e-09 8.87422e-11 0
-1.41764e-11 1.30648e-11 0
1.54644e-11 1.12323e-11 0
2.11375e-12 -3.35311e-09 0
-5.62577e-09 -1.0457e-08 0
-1.41388e-08 -1.34728e-08 0
-2.13137e-08 -9.11894e-09 0
-2.47342e-08 -1.42326e-09 0
-2.34687e-08 5.5794e-09 0
-1.85939e-08 9.57808e-09 0
-1.22812e-08 9.95508e-09 0
-6.38915e-09 7.46058e-09 0
-1.81115e-09 3.66018e-09 0
1.30997e-09 6.77267e-11 0
3.12729e-09 -2.47806e-09 0
3.84727e-09 -3.84493e-09 0
3.69754e-09 -4.28596e-09 0
2.93914e-09 -4.13587e-09 0
1.84175e-09 -3.66815e-09 0
6.38154e-10 -3.06964e-09 0
-5.06804e-10 -2.45719e-09 0
-1.50075e-09 -1.89762e-09 0
-2.3096e-09 -1.4227e-09 0
-2.93711e-09 -1.0408e-09 0
-3.40666e-09 -7.46157e-10 0
-3.74842e-09 -5.26093e-10 0
-3.99193e-09 -3.65875e-10 0
-4.1626e-09 -2.51555e-10 0
-4.28071e-09 -1.71278e-10 0
-4.36165e-09 -1.15621e-10 0
-4.41669e-09 -7.74324e-11 0
-4.45387e-09 -5.14542e-11 0
-4.47885e-09 -3.39119e-11 0
-4.49555e-09 -2.21425e-11 0
-4.50664e-09 -1.4294e-11 0
-4.51394e-09 -9.09607e-12 0
-4.51869e-09 -5.68997e-12 0
-4.52169e-09 -3.50647e-12 0
-4.52352e-09 -2.18062e-12 0
-4.52453e-09 -1.49878e-12 0
-4.52495e-09 -1.37718e-12 0
-4.52499e-09 -1.89213e-12 0
-4.52511e-09 -3.06978e-12 0
0.00897986 4.04403e-08 0
0 -4.65242e-07 0
4.25249e-13 -2.17182e-10 0
9.3158e-11 -6.82797e-10 0
-2.10317e-11 -1.17879e-09 0
-1.08141e-09 -1.42106e-09 0
-3.16092e-09 -5.70308e-10 0
-4.63598e-09 9.25422e-10 0
-4.66642e-09 -1.21561e-10 0
-3.11244e-09 -9.09426e-10 0
-2.34183e-09 3.82677e-14 0
-1.03707e-09 -3.28187e-09 0
-4.78197e-09 -7.42496e-09 0
-1.41029e-08 -6.76722e-09 0
-2.29466e-08 -2.39597e-09 0
-2.61209e-08 2.89068e-09 0
-2.24711e-08 6.37929e-09 0
-1.47449e-08 7.02314e-09 0
-6.93822e-09 5.19486e-09 0
-1.71709e-09 2.1018e-09 0
3.56945e-10 -8.48728e-10 0
7.09002e-11 -2.74309e-09 0
-1.49445e-09 -3.43981e-09 0
-3.54296e-09 -3.30518e-09 0
-5.64439e-09 -2.79394e-09 0
-7.6051e-09 -2.21373e-09 0
-9.34201e-09 -1.70161e-09 0
-1.08198e-08 -1.29028e-09 0
-1.2031e-08 -9.70578e-10 0
-1.29893e-08 -7.24376e-10 0
-1.37239e-08 -5.35593e-10 0
-1.42718e-08 -3.91802e-10 0
-1.46712e-08 -2.83373e-10 0
-1.49569e-08 -2.02594e-10 0
-1.51582e-08 -1.43186e-10 0
-1.52984e-08 -1.00054e-10 0
-1.5395e-08 -6.91309e-11 0
-1.5461e-08 -4.72258e-11 0
-1.55058e-08 -3.18878e-11 0
-1.5536e-08 -2.12677e-11 0
-1.55562e-08 -1.39947e-11 0
-1.55696e-08 -9.06929e-12 0
-1.55785e-08 -5.77529e-12 0
-1.55843e-08 -3.60844e-12 0
-1.5588e-08 -2.22103e-12 0
-1.55903e-08 -1.38174e-12 0
-1.55918e-08 -9.49224e-13 0
-1.55927e-08 -8.55003e-13 0
-1.55933e-08 -1.09136e-12 0
-1.55938e-08 -1.71153e-12 0
-1.55948e-08 -2.73257e-12 0
0.00788528 3.02972e-08 0
0 -4.79284e-07 0
5.8213e-13 -1.15748e-11 0
2.75435e-10 -7.86819e-11 0
7.7722e-11 -1.76068e-10 0
-1.24644e-09 -2.15196e-10 0
-3.74629e-09 -1.48771e-10 0
-5.72793e-09 5.54524e-10 0
-5.82657e-09 5.3483e-10 0
-6.78154e-09 -3.67288e-10 0
-6.30289e-09 -1.02779e-09 0
-5.14321e-09 -1.76109e-09 0
-7.72826e-09 -1.25762e-09 0
-1.24427e-08 4.24459e-10 0
-1.64115e-08 1.88018e-09 0
-1.64596e-08 2.64886e-09 0
-1.22021e-08 2.51659e-09 0
-6.17004e-09 1.56152e-09 0
-1.48689e-09 2.39224e-10 0
2.43211e-10 -8.73768e-10 0
-7.02892e-10 -1.43482e-09 0
-3.11046e-09 -1.46027e-09 0
-5.83877e-09 -1.18175e-09 0
-8.25209e-09 -8.35995e-10 0
-1.01632e-08 -5.55113e-10 0
-1.16168e-08 -3.70391e-10 0
-1.27204e-08 -2.61659e-10 0
-1.35674e-08 -1.98348e-10 0
-1.42224e-08 -1.577e-10 0
-1.47276e-08 -1.27346e-10 0
-1.51134e-08 -1.0208e-10 0
-1.54038e-08 -8.02983e-11 0
-1.56188e-08 -6.17243e-11 0
-1.57755e-08 -4.63374e-11 0
-1.58881e-08 -3.40011e-11 0
-1.59679e-08 -2.44149e-11 0
-1.60237e-08 -1.71735e-11 0
-1.60623e-08 -1.18404e-11 0
-1.60887e-08 -8.00133e-12 0
-1.61066e-08 -5.29509e-12 0
-1.61186e-08 -3.42511e-12 0
-1.61265e-08 -2.15882e-12 0
-1.61316e-08 -1.32086e-12 0
-1.6135e-08 -7.83859e-13 0
-1.61371e-08 -4.59262e-13 0
-1.61384e-08 -2.90094e-13 0
-1.61393e-08 -2.44857e-13 0
-1.61399e-08 -3.08927e-13 0
-1.61405e-08 -4.71246e-13 0
-1.61412e-08 -7.07832e-13 0
-1.61424e-08 -1.04927e-12 0
0.00545335 1.03329e-08 0
0 0 0
4.38324e-13 0 0
1.63041e-10 0 0
5.59336e-11 0 0
-5.79475e-10 0 0
-1.82968e-09 0 0
-3.08541e-09 0 0
-3.12853e-09 0 0
-3.66968e-09 0 0
-3.96076e-09 0 0
-4.10404e-09 0 0
-4.44411e-09 0 0
-4.51903e-09 0 0
-4.36715e-09 0 0
-3.57361e-09 0 0
-2.09537e-09 0 0
-5.75954e-10 0 0
2.26943e-10 0 0
3.47824e-11 0 0
-8.87625e-10 0 0
-2.06719e-09 0 0
-3.14363e-09 0 0
-3.97034e-09 0 0
-4.55366e-09 0 0
-4.95856e-09 0 0
-5.24902e-09 0 0
-5.46808e-09 0 0
-5.63961e-09 0 0
-5.77579e-09 0 0
-5.88331e-09 0 0
-5.96686e-09 0 0
-6.0305e-09 0 0
-6.07797e-09 0 0
-6.11268e-09 0 0
-6.13761e-09 0 0
-6.15521e-09 0 0
-6.16745e-09 0 0
-6.17582e-09 0 0
-6.18148e-09 0 0
-6.18524e-09 0 0
-6.1877e-09 0 0
-6.18929e-09 0 0
-6.19029e-09 0 0
-6.19091e-09 0 0
-6.19129e-09 0 0
-6.19155e-09 0 0
-6.19176e-09 0 0
-6.192e-09 0 0
-6.19232e-09 0 0
-6.19283e-09 0 0
0.00189304 0 0
0 0 5.36647e-07
2.22672e-13 0 2.28061e-10
-6.52646e-10 0 6.9997e-10
-7.68347e-10 0 1.42989e-09
-5.19182e-09 0 -5.09929e-10
1.83696e-09 0 -2.3333e-09
3.92466e-09 0 -1.55069e-09
4.56452e-09 0 -1.05048e-09
5.30732e-09 0 -3.58679e-10
6.41563e-09 0 4.53851e-10
7.85301e-09 0 1.37022e-09
9.83114e-09 0 2.19182e-09
1.22458e-08 0 2.51039e-09
1.44088e-08 0 2.12847e-09
1.53045e-08 0 1.37892e-09
1.43308e-08 0 7.35432e-10
1.1712e-08 0 3.80236e-10
8.23997e-09 0 2.48943e-10
4.64994e-09 0 2.51191e-10
1.25841e-09 0 3.38252e-10
-1.94332e-09 0 4.66479e-10
-5.02425e-09 0 5.81981e-10
-7.95767e-09 0 6.40582e-10
-1.06262e-08 0 6.26661e-10
-1.29011e-08 0 5.52728e-10
-1.47079e-08 0 4.45697e-10
-1.60456e-08 0 3.3231e-10
-1.697e-08 0 2.30935e-10
-1.75652e-08 0 1.50138e-10
-1.79185e-08 0 9.11022e-11
-1.81063e-08 0 5.09446e-11
-1.81883e-08 0 2.53324e-11
-1.82074e-08 0 1.00297e-11
-1.81927e-08 0 1.57059e-12
-1.81627e-08 0 -2.60638e-12
-1.81284e-08 0 -4.26314e-12
-1.80955e-08 0 -4.54337e-12
-1.80669e-08 0 -4.1505e-12
-1.80434e-08 0 -3.4929e-12
-1.80249e-08 0 -2.79095e-12
-1.80108e-08 0 -2.1512e-12
-1.80003e-08 0 -1.61478e-12
-1.79926e-08 0 -1.18773e-12
-1.79872e-08 0 -8.59696e-13
-1.79833e-08 0 -6.14462e-13
-1.79808e-08 0 -4.36655e-13
-1.79791e-08 0 -3.16976e-13
-1.79781e-08 0 -2.63092e-13
-1.79778e-08 0 -2.77657e-13
-1.79783e-08 0 -1.71061e-13
0.00538065 0 -6.89082e-10
0.0036 -3.06801e-07 -6.21437e-08
0.0035998 -0.00138935 -2.12066e-05
0.00669817 -0.00393825 0.000115286
0.0136109 -0.00587527 -0.000487583
0.0235013 -0.0144973 -0.00426454
0.0464149 -0.0134759 -0.00489056
0.0499567 -0.00195449 -0.00164754
0.0497014 0.00261929 -0.000164973
0.0447265 0.00494094 0.000572222
0.0391351 0.00510059 0.000569875
0.03405 0.00442508 0.000315726
0.0297881 0.00353684 5.40227e-05
0.0264132 0.0026696 -0.000135764
0.0238478 0.00192484 -0.00023851
0.0219333 0.00134524 -0.000265435
0.0204978 0.000928283 -0.000238826
0.0194029 0.000644276 -0.000183455
0.0185543 0.000456555 -0.000120715
0.0178938 0.000332398 -6.54459e-05
0.0173845 0.000247195 -2.49159e-05
0.0169997 0.000185006 -1.58744e-09
0.0167169 0.000137003 1.22332e-05
0.0165156 9.89885e-05 1.59785e-05
0.0163776 6.91032e-05 1.50285e-05
0.0162868 4.62913e-05 1.21072e-05
0.0162297 2.95723e-05 8.83571e-06
0.016196 1.78589e-05 5.99137e-06
0.0161775 1.0028e-05 3.82255e-06
0.0161685 5.04424e-06 2.30532e-06
0.0161651 2.04257e-06 1.31039e-06
0.0161649 3.55466e-07 6.92332e-07
0.0161661 -5.0082e-07 3.27508e-07
0.0161679 -8.58932e-07 1.23857e-07
0.0161697 -9.37299e-07 1.80941e-08
0.0161714 -8.72991e-07 -3.09243e-08
0.0161728 -7.47821e-07 -4.87697e-08
0.016174 -6.07631e-07 -5.06911e-08
0.0161749 -4.75836e-07 -4.53946e-08
0.0161755 -3.6253e-07 -3.75939e-08
0.016176 -2.70367e-07 -2.96565e-08
0.0161764 -1.98206e-07 -2.26264e-08
0.0161766 -1.43268e-07 -1.68403e-08
0.0161768 -1.0234e-07 -1.22896e-08
0.0161769 -7.23818e-08 -8.82203e-09
0.016177 -5.07949e-08 -6.2413e-09
0.0161771 -3.54827e-08 -4.32579e-09
0.0161771 -2.48268e-08 -2.78003e-09
0.0161772 -1.76902e-08 -8.5807e-10
0.0161772 -1.43439e-08 2.19151e-09
0.0161772 -2.46292e-08 5.60708e-10
0.0161773 -3.54637e-08 -2.92187e-09
0.01 -1.36443e-07 -1.45847e-06
0.0100007 -0.00298363 -0.0005979
0.0147873 -0.00997066 -0.000792798
0.0241993 -0.0177739 -0.00122654
0.0386486 -0.0326707 -0.00333181
0.0593754 -0.0249872 -0.000810001
0.056592 -0.00278337 0.00319477
0.0560255 0.00504932 0.00339247
0.0502562 0.0100052 0.00300427
0.0448131 0.0101281 0.00212909
0.0403437 0.00901698 0.00121238
0.036668 0.00757474 0.000492036
0.0337283 0.00610777 -1.50089e-05
0.0314707 0.0047923 -0.000321178
0.0297408 0.00371029 -0.000448004
0.0283883 0.00285736 -0.000442637
0.0273103 0.00218956 -0.000361176
0.0264483 0.00166303 -0.000252427
0.0257704 0.00124626 -0.000150067
0.0252537 0.000918172 -7.12044e-05
0.0248746 0.000663243 -1.96504e-05
0.0246078 0.000468406 8.60922e-06
0.0244284 0.00032223 2.04543e-05
0.024314 0.000214886 2.2507e-05
0.0242458 0.000138058 1.97711e-05
0.0242088 8.47265e-05 1.54183e-05
0.024192 4.89932e-05 1.11315e-05
0.0241872 2.60013e-05 7.6037e-06
0.024189 1.18914e-05 4.97698e-06
0.0241938 3.72761e-06 3.14493e-06
0.0241996 -6.23094e-07 1.92557e-06
0.0242052 -2.64251e-06 1.14292e-06
0.0242101 -3.31668e-06 6.55833e-07
0.0242142 -3.27384e-06 3.613e-07
0.0242174 -2.89579e-06 1.88419e-07
0.0242199 -2.40182e-06 9.03167e-08
0.0242217 -1.90849e-06 3.69479e-08
0.024223 -1.47037e-06 9.56557e-09
0.024224 -1.10664e-06 -3.23348e-09
0.0242247 -8.17769e-07 -8.20286e-09
0.0242252 -5.95483e-07 -9.22268e-09
0.0242256 -4.28455e-07 -8.43903e-09
0.0242258 -3.05272e-07 -6.98931e-09
0.024226 -2.15816e-07 -5.4425e-09
0.0242261 -1.51756e-07 -4.04991e-09
0.0242262 -1.06595e-07 -2.82996e-09
0.0242262 -7.55608e-08 -1.49403e-09
0.0242263 -5.70907e-08 6.00968e-10
0.0242263 -5.28295e-08 3.61417e-09
0.0242264 -7.17073e-08 -2.39111e-09
0.0242264 -8.88616e-08 -1.00716e-08
0.0148 -9.5987e-07 -1.75264e-06
0.0148024 -0.00530139 -0.00112394
0.0204123 -0.0164661 -0.00244972
0.0276299 -0.0289512 -0.00394434
0.0323114 -0.0464013 -0.00578169
0.0307579 -0.0286345 -0.00142349
0.0269396 -1.23988e-05 0.00331303
0.0263742 0.00704252 0.00352787
0.0298549 0.0143379 0.00343494
0.0302066 0.0137 0.00247977
0.0294324 0.0118671 0.00154022
0.028626 0.00998825 0.000727253
0.0280265 0.0081179 0.000137877
0.0277309 0.00642414 -0.000220708
0.0276116 0.00503606 -0.000370194
0.0275623 0.00392647 -0.000374417
0.0275355 0.00302735 -0.000300966
0.0275216 0.00228944 -0.000201577
0.0275239 0.00168796 -0.000108481
0.027545 0.00120979 -3.70556e-05
0.0275827 0.000842014 9.19036e-06
0.0276318 0.000568148 3.34754e-05
0.0276866 0.00037002 4.17682e-05
0.0277422 0.000230553 4.02426e-05
0.027795 0.000135269 3.39251e-05
0.0278426 7.24844e-05 2.62239e-05
0.0278837 3.29701e-05 1.90432e-05
0.0279179 9.56208e-06 1.31844e-05
0.0279453 -3.15358e-06 8.78624e-06
0.0279666 -9.11866e-06 5.67026e-06
0.0279827 -1.10784e-05 3.55594e-06
0.0279946 -1.08536e-05 2.16978e-06
0.0280033 -9.58901e-06 1.28731e-06
0.0280094 -7.96042e-06 7.40435e-07
0.0280138 -6.33541e-06 4.10416e-07
0.0280168 -4.88967e-06 2.16775e-07
0.0280189 -3.6866e-06 1.06704e-07
0.0280203 -2.72891e-06 4.65125e-08
0.0280213 -1.99043e-06 1.52559e-08
0.0280219 -1.43447e-06 2.44331e-10
0.0280224 -1.02366e-06 -6.00817e-09
0.0280227 -7.24611e-07 -7.78437e-09
0.0280229 -5.09589e-07 -7.45722e-09
0.028023 -3.56646e-07 -6.29166e-09
0.0280231 -2.49021e-07 -4.88582e-09
0.0280232 -1.74584e-07 -3.44189e-09
0.0280232 -1.25135e-07 -1.68884e-09
0.0280233 -9.67189e-08 3.3172e-10
0.0280233 -8.91518e-08 3.11061e-10
0.0280233 -9.7575e-08 -1.09089e-08
0.0280233 -1.04449e-07 -2.1119e-08
0.018 -1.93677e-06 -1.69711e-06
0.018003 -0.00702182 -0.00187282
0.0208028 -0.0190813 -0.00492764
0.0207699 -0.0251321 -0.00635419
0.0161178 -0.0271438 -0.00764265
-1.61183e-06 -0.0140809 -0.00434428
9.71923e-05 2.59894e-05 9.31238e-07
-3.307e-05 3.44143e-05 0.000655655
0.00654879 0.00403185 0.00144724
0.0133374 0.00910296 0.00142272
0.0167207 0.00981725 0.00102155
0.0185156 0.00879002 0.000498143
0.0202341 0.0072488 2.31985e-05
0.0219376 0.00570873 -0.000248251
0.0234561 0.00445874 -0.000332049
0.0247254 0.00345919 -0.00030296
0.0257582 0.00263034 -0.000225051
0.0265946 0.00193229 -0.000138555
0.0272727 0.00135746 -6.37864e-05
0.027821 0.000906157 -8.23737e-06
0.0282594 0.000570941 2.74194e-05
0.0286043 0.000334666 4.57626e-05
0.028871 0.000175804 5.09026e-05
0.029074 7.3934e-05 4.74432e-05
0.0292263 1.23453e-05 3.95844e-05
0.0293388 -2.1695e-05 3.04839e-05
0.0294208 -3.76148e-05 2.20611e-05
0.0294796 -4.22669e-05 1.51823e-05
0.029521 -4.04889e-05 1.00151e-05
0.0295496 -3.55394e-05 6.36394e-06
0.0295691 -2.94732e-05 3.90469e-06
0.0295822 -2.3474e-05 2.31297e-06
0.0295908 -1.81363e-05 1.31862e-06
0.0295964 -1.36848e-05 7.18113e-07
0.0296 -1.01334e-05 3.67866e-07
0.0296022 -7.39051e-06 1.71388e-07
0.0296037 -5.32373e-06 6.63168e-08
0.0296046 -3.79617e-06 1.37155e-08
0.0296051 -2.68437e-06 -9.94638e-09
0.0296055 -1.88514e-06 -1.84315e-08
0.0296057 -1.31639e-06 -1.95082e-08
0.0296058 -9.15035e-07 -1.73757e-08
0.0296059 -6.33839e-07 -1.41829e-08
0.029606 -4.38179e-07 -1.09524e-08
0.029606 -3.03192e-07 -8.04998e-09
0.029606 -2.11524e-07 -5.59203e-09
0.029606 -1.51482e-07 -3.45693e-09
0.029606 -1.14398e-07 -2.00746e-09
0.029606 -9.49319e-08 -6.05932e-09
0.029606 -7.79196e-08 -1.93846e-08
0.029606 -6.65717e-08 -2.82444e-08
0.0196 -2.81936e-06 -2.55893e-06
0.019601 -0.00593886 -0.0027436
0.019051 -0.0132568 -0.00648886
0.0159207 -0.0163154 -0.00670292
0.0108435 -0.0153079 -0.00669846
0.00169477 -0.00631333 -0.00504906
7.23066e-05 -6.63806e-05 -0.0013058
3.33106e-05 -3.33106e-05 -4.24509e-08
-3.24646e-05 3.36754e-05 0.000265146
0.00385202 0.00267332 0.00056907
0.00876694 0.0061958 0.000503503
0.0116534 0.00637925 0.000156074
0.0148906 0.00494048 -0.000228187
0.0180349 0.00362871 -0.000401906
0.0207262 0.00270817 -0.00040665
0.0229036 0.00202201 -0.000329574
0.0246309 0.00145068 -0.000231001
0.0259942 0.000958144 -0.000141675
0.0270647 0.000553112 -7.18323e-05
0.0278949 0.000248926 -2.16995e-05
0.0285255 4.40625e-05 1.12893e-05
0.0289924 -7.77794e-05 2.98706e-05
0.0293291 -0.000138971 3.69938e-05
0.0295661 -0.0001603 3.60883e-05
0.029729 -0.000157699 3.06591e-05
0.0298385 -0.000142188 2.3606e-05
0.0299107 -0.000120988 1.68272e-05
0.029957 -9.86173e-05 1.12482e-05
0.0299861 -7.77068e-05 7.10263e-06
0.0300037 -5.95708e-05 4.24731e-06
0.0300142 -4.46488e-05 2.3981e-06
0.0300201 -3.28487e-05 1.26386e-06
0.0300232 -2.38008e-05 6.04018e-07
0.0300248 -1.70305e-05 2.41696e-07
0.0300255 -1.20623e-05 5.66656e-08
0.0300258 -8.47276e-06 -2.80464e-08
0.0300258 -5.9116e-06 -5.92571e-08
0.0300257 -4.10234e-06 -6.40865e-08
0.0300255 -2.83443e-06 -5.74503e-08
0.0300254 -1.95156e-06 -4.70579e-08
0.0300253 -1.33998e-06 -3.65589e-08
0.0300252 -9.18149e-07 -2.74281e-08
0.0300252 -6.28303e-07 -2.00542e-08
0.0300251 -4.29949e-07 -1.43627e-08
0.0300251 -2.94954e-07 -1.00952e-08
0.030025 -2.03669e-07 -7.06318e-09
0.030025 -1.4214e-07 -5.22289e-09
0.030025 -9.87178e-08 -4.55432e-09
0.030025 -6.40942e-08 -1.06291e-08
0.0300249 -2.17056e-08 -2.19414e-08
0.0300249 4.70625e-09 -2.7139e-08
0.0196 -1.35978e-06 -3.57714e-06
0.0195999 -0.00370483 -0.00312874
0.0187473 -0.00814587 -0.00653056
0.0174891 -0.00819891 -0.00606033
0.0131451 -0.0043821 -0.00554591
0.00904267 0.00249913 -0.00534175
0.00613225 0.00312471 -0.00313247
7.24876e-05 -6.02736e-05 -0.00068187
2.7809e-05 -2.7809e-05 -1.2739e-07
-3.19237e-05 3.30055e-05 9.81854e-05
0.00262411 0.00180551 0.000374321
0.00681976 0.00273008 0.000277442
0.0120262 0.00119793 -0.000165431
0.0166251 0.000317364 -0.000376533
0.0202083 2.56815e-05 -0.000394721
0.022892 -8.32303e-05 -0.000322103
0.0248909 -0.000192711 -0.000229086
0.0263793 -0.000324281 -0.000148967
0.0274767 -0.000440434 -8.95288e-05
0.028266 -0.000507707 -4.77244e-05
0.0288123 -0.000517837 -1.91976e-05
0.0291727 -0.000482721 -1.14539e-06
0.0293974 -0.000421384 8.42056e-06
0.0295288 -0.000350485 1.16767e-05
0.0295994 -0.000281011 1.10262e-05
0.0296328 -0.000218813 8.59188e-06
0.0296449 -0.000166273 5.83033e-06
0.0296457 -0.000123731 3.49324e-06
0.0296414 -9.04277e-05 1.81686e-06
0.0296352 -6.50786e-05 7.5585e-07
0.029629 -4.62355e-05 1.59407e-07
0.0296235 -3.2503e-05 -1.305e-07
0.029619 -2.26563e-05 -2.3936e-07
0.0296155 -1.56876e-05 -2.52904e-07
0.0296128 -1.08065e-05 -2.23602e-07
0.0296109 -7.4149e-06 -1.80487e-07
0.0296094 -5.07257e-06 -1.37837e-07
0.0296084 -3.4623e-06 -1.01478e-07
0.0296077 -2.3591e-06 -7.28446e-08
0.0296072 -1.60526e-06 -5.13686e-08
0.0296068 -1.09118e-06 -3.57692e-08
0.0296066 -7.41202e-07 -2.46739e-08
0.0296064 -5.03312e-07 -1.68935e-08
0.0296063 -3.41773e-07 -1.15252e-08
0.0296062 -2.31891e-07 -7.93847e-09
0.0296062 -1.56152e-07 -5.73764e-09
0.0296061 -1.01634e-07 -4.81763e-09
0.0296061 -5.74953e-08 -4.6946e-09
0.029606 -1.34158e-08 -9.77744e-09
0.029606 4.22189e-08 -1.67318e-08
0.0296059 7.45803e-08 -1.86133e-08
0.018 -8.63917e-07 -3.57282e-06
0.0180009 -0.00201949 -0.00305212
0.0183098 -0.00391345 -0.00616911
0.0183561 -0.00273388 -0.00529207
0.017329 0.000548258 -0.00418966
0.0170397 0.00700869 -0.00396587
0.017771 0.0125453 -0.00302196
0.0109069 0.00692397 -0.0015176
7.39473e-05 -4.65999e-05 -0.000443127
-2.49737e-05 -5.43261e-05 5.57389e-07
7.91876e-06 -0.000774267 0.000758702
0.00818406 -0.00304323 0.00110455
0.0153779 -0.00462003 0.000452042
0.0202658 -0.00418355 0.000107779
0.0233854 -0.00317614 -3.3701e-05
0.0253843 -0.00232563 -8.02007e-05
0.0266884 -0.00177052 -8.83383e-05
0.0275357 -0.00142914 -8.38679e-05
0.0280607 -0.00119352 -7.52181e-05
0.0283517 -0.00099536 -6.37635e-05
0.0284779 -0.000810171 -5.02362e-05
0.0284971 -0.000638757 -3.65248e-05
0.0284557 -0.000488733 -2.46974e-05
0.0283872 -0.00036487 -1.5853e-05
0.028313 -0.000267231 -9.94904e-06
0.0282448 -0.000192797 -6.30026e-06
0.0281876 -0.0001374 -4.1181e-06
0.0281424 -9.69173e-05 -2.79298e-06
0.0281081 -6.77734e-05 -1.94509e-06
0.0280829 -4.70571e-05 -1.36837e-06
0.0280648 -3.24888e-05 -9.58905e-07
0.028052 -2.23337e-05 -6.63497e-07
0.028043 -1.53037e-05 -4.51398e-07
0.0280368 -1.04622e-05 -3.0159e-07
0.0280325 -7.14017e-06 -1.97984e-07
0.0280296 -4.86662e-06 -1.27879e-07
0.0280276 -3.3134e-06 -8.14145e-08
0.0280262 -2.25364e-06 -5.11899e-08
0.0280253 -1.53132e-06 -3.18492e-08
0.0280247 -1.03946e-06 -1.96454e-08
0.0280242 -7.04853e-07 -1.20337e-08
0.0280239 -4.77406e-07 -7.32914e-09
0.0280237 -3.22781e-07 -4.45582e-09
0.0280236 -2.17259e-07 -2.76127e-09
0.0280235 -1.44202e-07 -1.86386e-09
0.0280234 -9.1568e-08 -1.51753e-09
0.0280234 -5.01639e-08 -1.64331e-09
0.0280233 -1.2393e-08 -1.72723e-09
0.0280233 3.01121e-08 -3.97912e-09
0.0280233 8.13636e-08 -6.95836e-09
0.0280233 1.08977e-07 -7.58323e-09
0.0148 -4.83767e-07 -3.16524e-06
0.0148015 -0.00104331 -0.00283334
0.0162276 -0.00167122 -0.00543401
0.0177798 -7.70896e-05 -0.00429381
0.0190802 0.00311315 -0.00305816
0.020793 0.007305 -0.00283197
0.0245982 0.0129689 -0.00240922
0.0278895 0.0194969 -0.00152959
0.022943 0.0112711 -0.000357096
0.023405 2.11447e-11 0.000618749
0.0265591 -0.00674942 0.00156279
0.0299193 -0.0131894 0.00212525
0.03062 -0.0110996 0.00164929
0.0299449 -0.00771086 0.00113199
0.0289259 -0.00500952 0.000660673
0.027994 -0.00325041 0.00030432
0.0272418 -0.00218545 8.06729e-05
0.0266411 -0.00153374 -3.6267e-05
0.0261479 -0.00110461 -8.33803e-05
0.025734 -0.000796905 -9.0508e-05
0.0253869 -0.000566525 -7.80142e-05
0.0251012 -0.000395228 -5.88621e-05
0.0248726 -0.00027191 -4.03826e-05
0.024695 -0.000186048 -2.57394e-05
0.0245608 -0.000127542 -1.54694e-05
0.0244618 -8.79508e-05 -8.85737e-06
0.0243903 -6.1042e-05 -4.85926e-06
0.0243396 -4.25758e-05 -2.55327e-06
0.024304 -2.97774e-05 -1.27228e-06
0.0242794 -2.08414e-05 -5.84385e-07
0.0242625 -1.45755e-05 -2.28519e-07
0.0242509 -1.0175e-05 -5.3641e-08
0.0242431 -7.08551e-06 2.51819e-08
0.0242377 -4.92e-06 5.47341e-08
0.0242341 -3.40578e-06 6.03027e-08
0.0242316 -2.35004e-06 5.52449e-08
0.0242299 -1.6163e-06 4.6382e-08
0.0242288 -1.10806e-06 3.70099e-08
0.024228 -7.57207e-07 2.85647e-08
0.0242275 -5.15816e-07 2.15349e-08
0.0242271 -3.50223e-07 1.59534e-08
0.0242269 -2.36815e-07 1.16596e-08
0.0242267 -1.58989e-07 8.4247e-09
0.0242266 -1.04977e-07 6.01824e-09
0.0242265 -6.62935e-08 4.24978e-09
0.0242265 -3.66242e-08 2.99676e-09
0.0242264 -1.09736e-08 2.21275e-09
0.0242264 1.44333e-08 2.08867e-09
0.0242264 4.32345e-08 2.0013e-09
0.0242264 7.44356e-08 3.43793e-10
0.0242265 8.98601e-08 -1.07501e-09
0.01 -9.2691e-07 -2.86864e-06
0.0100008 -0.000639088 -0.00230758
0.0113165 -0.000726132 -0.00414799
0.013164 0.000530114 -0.00290509
0.0155696 0.0024932 -0.0017944
0.0194333 0.00553902 -0.0017979
0.0253316 0.00835713 -0.00235457
0.0344531 0.0101195 -0.00209344
0.0460589 0.00481124 -0.000517357