# vtk DataFile Version 2.0
Tobias Weinzierl: CPU, Manycore and Cluster Computing
ASCII

DATASET STRUCTURED_POINTS
DIMENSIONS  51 11 6

ORIGIN 0 0 0 

SPACING 0.1 0.1 0.1 

POINT_DATA 3366

VECTORS velocity float
0 0 0
3.161e-13 0 0
4.66409e-11 0 0
4.03813e-10 0 0
-2.55212e-09 0 0
2.74593e-09 0 0
3.99784e-09 0 0
3.98183e-09 0 0
4.07496e-09 0 0
4.41642e-09 0 0
4.57046e-09 0 0
4.29474e-09 0 0
3.65212e-09 0 0
2.62153e-09 0 0
1.08439e-09 0 0
-7.20785e-10 0 0
-2.26586e-09 0 0
-3.25064e-09 0 0
-3.82265e-09 0 0
-4.32725e-09 0 0
-4.99709e-09 0 0
-5.85597e-09 0 0
-6.79478e-09 0 0
-7.68126e-09 0 0
-8.42535e-09 0 0
-8.99329e-09 0 0
-9.39327e-09 0 0
-9.65495e-09 0 0
-9.81352e-09 0 0
-9.9009e-09 0 0
-9.94237e-09 0 0
-9.95624e-09 0 0
-9.95489e-09 0 0
-9.94622e-09 0 0
-9.93492e-09 0 0
-9.9236e-09 0 0
-9.9135e-09 0 0
-9.90509e-09 0 0
-9.8984e-09 0 0
-9.89325e-09 0 0
-9.88938e-09 0 0
-9.88654e-09 0 0
-9.88448e-09 0 0
-9.88302e-09 0 0
-9.882e-09 0 0
-9.88132e-09 0 0
-9.8809e-09 0 0
-9.88069e-09 0 0
-9.88067e-09 0 0
-9.88101e-09 0 0
0.00191679 0 0
0 3.86679e-07 0
3.73138e-13 -3.34203e-10 0
3.96992e-11 -1.38869e-09 0
1.57568e-09 -4.26319e-10 0
-8.35661e-10 -2.46427e-09 0
8.28922e-09 -3.11352e-09 0
9.84193e-09 6.05275e-10 0
9.85873e-09 5.17698e-10 0
1.11433e-08 -9.73641e-10 0
1.29462e-08 -2.10896e-09 0
1.39392e-08 -2.60686e-09 0
1.36538e-08 -2.41268e-09 0
1.20051e-08 -1.15977e-09 0
9.09699e-09 9.1857e-10 0
5.331e-09 2.66019e-09 0
1.5377e-09 3.11392e-09 0
-1.50843e-09 2.43865e-09 0
-3.70624e-09 1.47817e-09 0
-5.59247e-09 8.84913e-10 0
-7.76757e-09 7.67955e-10 0
-1.04606e-08 9.00601e-10 0
-1.35023e-08 1.03466e-09 0
-1.65348e-08 1.04877e-09 0
-1.92286e-08 9.39877e-10 0
-2.13949e-08 7.59499e-10 0
-2.29932e-08 5.62605e-10 0
-2.40841e-08 3.85562e-10 0
-2.47739e-08 2.44463e-10 0
-2.51742e-08 1.41452e-10 0
-2.53807e-08 7.15512e-11 0
-2.54664e-08 2.73727e-11 0
-2.54825e-08 1.66334e-12 0
-2.54627e-08 -1.1628e-11 0
-2.54275e-08 -1.70991e-11 0
-2.53889e-08 -1.80099e-11 0
-2.53529e-08 -1.65357e-11 0
-2.53221e-08 -1.40399e-11 0
-2.52971e-08 -1.1316e-11 0
-2.52777e-08 -8.77995e-12 0
-2.52629e-08 -6.61281e-12 0
-2.5252e-08 -4.85934e-12 0
-2.5244e-08 -3.49282e-12 0
-2.52383e-08 -2.45506e-12 0
-2.52342e-08 -1.679e-12 0
-2.52314e-08 -1.09936e-12 0
-2.52296e-08 -6.57501e-13 0
-2.52285e-08 -2.95236e-13 0
-2.5228e-08 6.0447e-14 0
-2.52281e-08 6.07038e-13 0
-2.52292e-08 1.87704e-12 0
0.00551459 -1.86495e-08 0
0 -1.97307e-08 0
8.1014e-13 -4.58456e-10 0
9.12528e-10 -3.13503e-09 0
4.89692e-09 -6.18022e-09 0
8.11576e-09 -1.09484e-08 0
1.47297e-08 -8.18128e-09 0
1.16183e-08 -3.235e-10 0
1.08594e-08 -7.70261e-10 0
1.2936e-08 -4.12887e-09 0
1.64989e-08 -7.46146e-09 0
1.75841e-08 -1.03707e-08 0
1.60301e-08 -1.16052e-08 0
1.31728e-08 -9.45441e-09 0
9.31414e-09 -4.57224e-09 0
4.97698e-09 6.31461e-10 0
9.2914e-10 4.53403e-09 0
-2.26851e-09 6.88396e-09 0
-4.63917e-09 7.977e-09 0
-6.656e-09 8.15904e-09 0
-8.82472e-09 7.73484e-09 0
-1.1383e-08 6.93495e-09 0
-1.42385e-08 5.91193e-09 0
-1.70914e-08 4.78258e-09 0
-1.96228e-08 3.65828e-09 0
-2.16296e-08 2.63774e-09 0
-2.306e-08 1.78642e-09 0
-2.39758e-08 1.12838e-09 0
-2.44925e-08 6.53717e-10 0
-2.47327e-08 3.33083e-10 0
-2.47998e-08 1.30724e-10 0
-2.47704e-08 1.28893e-11 0
-2.46957e-08 -4.82863e-11 0
-2.46066e-08 -7.38666e-11 0
-2.45203e-08 -7.87173e-11 0
-2.44447e-08 -7.27101e-11 0
-2.43826e-08 -6.20068e-11 0
-2.43337e-08 -5.0183e-11 0
-2.42964e-08 -3.91135e-11 0
-2.42685e-08 -2.96203e-11 0
-2.42481e-08 -2.19182e-11 0
-2.42334e-08 -1.59051e-11 0
-2.42229e-08 -1.13385e-11 0
-2.42155e-08 -7.93681e-12 0
-2.42104e-08 -5.43001e-12 0
-2.42069e-08 -3.57839e-12 0
-2.42046e-08 -2.17163e-12 0
-2.42033e-08 -9.93234e-13 0
-2.42028e-08 2.68165e-13 0
-2.42031e-08 1.98981e-12 0
-2.42043e-08 4.54578e-12 0
0.00794424 -4.49836e-08 0
0 -6.39939e-07 0
2.06414e-12 -1.7284e-09 0
2.0687e-09 -6.21696e-09 0
7.17533e-09 -1.19223e-08 0
9.36043e-09 -1.66119e-08 0
9.18637e-09 -9.18159e-09 0
5.77368e-09 -5.45723e-12 0
4.98259e-09 -1.28473e-09 0
4.26379e-09 -5.99003e-09 0
5.07719e-09 -1.26832e-08 0
5.83581e-09 -1.82982e-08 0
4.57424e-09 -2.09944e-08 0
2.70473e-09 -1.90193e-08 0
-5.74726e-10 -1.27053e-08 0
-5.05928e-09 -4.02087e-09 0
-9.74854e-09 4.95068e-09 0
-1.34293e-08 1.1949e-08 0
-1.53051e-08 1.54653e-08 0
-1.53403e-08 1.56185e-08 0
-1.41881e-08 1.36798e-08 0
-1.27429e-08 1.09761e-08 0
-1.16382e-08 8.30285e-09 0
-1.10506e-08 5.97217e-09 0
-1.08352e-08 4.05952e-09 0
-1.07633e-08 2.56271e-09 0
-1.06728e-08 1.45258e-09 0
-1.05025e-08 6.80483e-10 0
-1.02602e-08 1.83384e-10 0
-9.98168e-09 -1.06307e-10 0
-9.70329e-09 -2.51038e-10 0
-9.4502e-09 -3.02208e-10 0
-9.23518e-09 -2.98391e-10 0
-9.06142e-09 -2.66311e-10 0
-8.92628e-09 -2.23092e-10 0
-8.82424e-09 -1.78779e-10 0
-8.74899e-09 -1.38588e-10 0
-8.69452e-09 -1.04675e-10 0
-8.65567e-09 -7.7418e-11 0
-8.6283e-09 -5.62699e-11 0
-8.60919e-09 -4.02948e-11 0
-8.59596e-09 -2.8474e-11 0
-8.58685e-09 -1.98631e-11 0
-8.58063e-09 -1.36564e-11 0
-8.57643e-09 -9.19835e-12 0
-8.57364e-09 -5.96358e-12 0
-8.57188e-09 -3.51276e-12 0
-8.57087e-09 -1.4512e-12 0
-8.57036e-09 5.8142e-13 0
-8.57012e-09 2.812e-12 0
-8.57027e-09 5.16134e-12 0
0.00899896 -4.96676e-08 0
0 -1.25506e-06 0
9.55716e-13 -3.36687e-09 0
6.59629e-10 -9.44134e-09 0
2.61865e-09 -1.25191e-08 0
2.27422e-09 -1.01466e-08 0
-8.75822e-13 -3.70424e-09 0
-3.57982e-11 -3.82216e-11 0
3.61091e-11 -3.7037e-11 0
-1.60382e-09 -3.93889e-09 0
-8.22146e-09 -1.36639e-08 0
-1.18324e-08 -2.3552e-08 0
-1.12441e-08 -2.90318e-08 0
-1.17656e-08 -2.73159e-08 0
-1.44068e-08 -1.8179e-08 0
-1.82051e-08 -5.02456e-09 0
-2.19211e-08 8.0329e-09 0
-2.44179e-08 1.70615e-08 0
-2.47124e-08 2.02108e-08 0
-2.236e-08 1.84533e-08 0
-1.78996e-08 1.42478e-08 0
-1.26051e-08 9.73129e-09 0
-7.70496e-09 5.9653e-09 0
-3.83935e-09 3.17909e-09 0
-1.06203e-09 1.25127e-09 0
8.68816e-10 -2.91657e-12 0
2.23194e-09 -7.45801e-10 0
3.2303e-09 -1.11387e-09 0
3.98355e-09 -1.22405e-09 0
4.55751e-09 -1.17335e-09 0
4.99157e-09 -1.03637e-09 0
5.31422e-09 -8.65357e-10 0
5.54909e-09 -6.93098e-10 0
5.71652e-09 -5.37492e-10 0
5.83363e-09 -4.06209e-10 0
5.91417e-09 -3.00608e-10 0
5.96881e-09 -2.1863e-10 0
6.00546e-09 -1.56715e-10 0
6.02983e-09 -1.10962e-10 0
6.04592e-09 -7.77396e-11 0
6.05651e-09 -5.39547e-11 0
6.06346e-09 -3.71159e-11 0
6.06802e-09 -2.52926e-11 0
6.071e-09 -1.70278e-11 0
6.07294e-09 -1.12375e-11 0
6.0742e-09 -7.11536e-12 0
6.07503e-09 -4.0646e-12 0
6.07564e-09 -1.66653e-12 0
6.07633e-09 3.1813e-13 0
6.07731e-09 1.97832e-12 0
6.07814e-09 3.32602e-12 0
0.00940774 -2.81546e-08 0
0 -1.13728e-06 0
-1.20739e-12 -3.4422e-09 0
-1.56598e-09 -7.84257e-09 0
-1.79528e-09 -9.68127e-09 0
-3.18478e-09 -9.67695e-09 0
-2.33728e-09 -4.39674e-09 0
-3.58758e-11 3.48553e-11 0
1.25806e-12 -1.25806e-12 0
3.58385e-11 -3.63782e-11 0
-5.32942e-09 -7.0711e-09 0
-1.75497e-08 -2.26409e-08 0
-2.10094e-08 -3.26953e-08 0
-2.33195e-08 -3.02782e-08 0
-2.54446e-08 -1.9209e-08 0
-2.66438e-08 -4.24048e-09 0
-2.68295e-08 9.75789e-09 0
-2.6224e-08 1.85587e-08 0
-2.45035e-08 2.04912e-08 0
-2.09249e-08 1.70395e-08 0
-1.54023e-08 1.1261e-08 0
-8.90208e-09 5.69649e-09 0
-2.74873e-09 1.50992e-09 0
2.18238e-09 -1.17539e-09 0
5.68405e-09 -2.65814e-09 0
7.97925e-09 -3.29027e-09 0
9.41699e-09 -3.36333e-09 0
1.03e-08 -3.10111e-09 0
1.08386e-08 -2.66982e-09 0
1.11655e-08 -2.1853e-09 0
1.13612e-08 -1.72003e-09 0
1.14756e-08 -1.31228e-09 0
1.15397e-08 -9.76309e-10 0
1.15734e-08 -7.11629e-10 0
1.15894e-08 -5.10083e-10 0
1.15954e-08 -3.60619e-10 0
1.15963e-08 -2.52072e-10 0
1.15948e-08 -1.74541e-10 0
1.15924e-08 -1.19899e-10 0
1.159e-08 -8.1796e-11 0
1.15878e-08 -5.54498e-11 0
1.15861e-08 -3.73488e-11 0
1.15847e-08 -2.49644e-11 0
1.15837e-08 -1.64995e-11 0
1.15831e-08 -1.06906e-11 0
1.15827e-08 -6.66469e-12 0
1.15826e-08 -3.84604e-12 0
1.15828e-08 -1.88383e-12 0
1.15835e-08 -5.81581e-13 0
1.15846e-08 1.17394e-13 0
1.15856e-08 3.37933e-13 0
0.00951043 7.25923e-09 0
0 -7.83678e-07 0
-3.79228e-13 -2.02333e-09 0
-1.58123e-09 -5.15709e-09 0
-1.47922e-09 -6.78296e-09 0
-4.10701e-09 -7.16843e-09 0
-5.61776e-09 -5.27587e-09 0
-2.5923e-09 -1.75632e-09 0
-3.4884e-11 3.4826e-11 0
1.01723e-12 -1.01723e-12 0
3.57498e-11 -3.59264e-11 0
-8.09673e-09 -1.28712e-08 0
-1.90611e-08 -2.88463e-08 0
-2.60019e-08 -2.777e-08 0
-2.91162e-08 -1.64023e-08 0
-2.89145e-08 -1.95799e-09 0
-2.59797e-08 1.0371e-08 0
-2.17974e-08 1.71285e-08 0
-1.75333e-08 1.73935e-08 0
-1.31284e-08 1.29096e-08 0
-8.1959e-09 6.69746e-09 0
-3.02511e-09 1.17962e-09 0
1.57228e-09 -2.61011e-09 0
4.95485e-09 -4.67698e-09 0
6.98973e-09 -5.43942e-09 0
7.93123e-09 -5.35283e-09 0
8.1599e-09 -4.78626e-09 0
8.00708e-09 -4.00764e-09 0
7.69722e-09 -3.19475e-09 0
7.35787e-09 -2.4511e-09 0
7.04999e-09 -1.82446e-09 0
6.79564e-09 -1.32577e-09 0
6.59695e-09 -9.45183e-10 0
6.44736e-09 -6.63749e-10 0
6.33761e-09 -4.60574e-10 0
6.25861e-09 -3.16573e-10 0
6.20255e-09 -2.15946e-10 0
6.1632e-09 -1.4639e-10 0
6.13584e-09 -9.8714e-11 0
6.11695e-09 -6.6246e-11 0
6.104e-09 -4.42438e-11 0
6.0952e-09 -2.93869e-11 0
6.08926e-09 -1.93768e-11 0
6.08531e-09 -1.26393e-11 0
6.08275e-09 -8.11177e-12 0
6.0812e-09 -5.09293e-12 0
6.0804e-09 -3.13301e-12 0
6.08018e-09 -1.96101e-12 0
6.0805e-09 -1.4468e-12 0
6.08123e-09 -1.65497e-12 0
6.08179e-09 -2.57981e-12 0
0.00940772 3.9886e-08 0
0 -5.49104e-07 0
1.05999e-12 -1.26398e-09 0
-5.82796e-10 -3.44271e-09 0
-8.02951e-10 -5.12133e-09 0
-3.11215e-09 -5.2939e-09 0
-6.81647e-09 -3.07283e-09 0
-7.49771e-09 -4.6313e-10 0
-4.58992e-09 2.58417e-10 0
-3.6979e-11 3.26715e-11 0
3.56718e-11 2.95064e-11 0
2.97064e-12 -7.13814e-09 0
-1.13574e-08 -1.81511e-08 0
-2.39742e-08 -1.81718e-08 0
-3.14649e-08 -7.8034e-09 0
-3.1921e-08 3.84805e-09 0
-2.60471e-08 1.13727e-08 0
-1.74169e-08 1.34286e-08 0
-9.88032e-09 1.09122e-08 0
-4.95243e-09 5.94579e-09 0
-2.09384e-09 8.65148e-10 0
-4.37959e-10 -2.8561e-09 0
3.61265e-10 -4.88003e-09 0
3.45568e-10 -5.54639e-09 0
-3.77722e-10 -5.35362e-09 0
-1.55788e-09 -4.7103e-09 0
-2.90712e-09 -3.89251e-09 0
-4.20261e-09 -3.06941e-09 0
-5.3196e-09 -2.33321e-09 0
-6.21557e-09 -1.7229e-09 0
-6.89889e-09 -1.24356e-09 0
-7.40162e-09 -8.81795e-10 0
-7.76208e-09 -6.16765e-10 0
-8.01576e-09 -4.26857e-10 0
-8.19192e-09 -2.92997e-10 0
-8.31308e-09 -1.9979e-10 0
-8.39582e-09 -1.3548e-10 0
-8.45202e-09 -9.14189e-11 0
-8.49004e-09 -6.13964e-11 0
-8.51565e-09 -4.10323e-11 0
-8.53284e-09 -2.72727e-11 0
-8.54432e-09 -1.80086e-11 0
-8.55193e-09 -1.17962e-11 0
-8.55691e-09 -7.65626e-12 0
-8.56011e-09 -4.93263e-12 0
-8.56209e-09 -3.19414e-12 0
-8.56324e-09 -2.17099e-12 0
-8.56382e-09 -1.72241e-12 0
-8.56397e-09 -1.83699e-12 0
-8.5639e-09 -2.69847e-12 0
-8.56415e-09 -4.42641e-12 0
0.00899895 5.43575e-08 0
0 -4.65412e-07 0
1.08118e-12 -6.58301e-10 0
9.26898e-11 -1.89976e-09 0
-6.41738e-10 -2.99664e-09 0
-3.89631e-09 -3.29012e-09 0
-8.85439e-09 -1.00472e-09 0
-1.12442e-08 1.93468e-09 0
-1.06722e-08 -1.08137e-09 0
-7.01919e-09 -2.48584e-09 0
-5.60929e-09 1.13525e-13 0
-4.43162e-09 -4.46216e-09 0
-1.32057e-08 -9.15872e-09 0
-2.74181e-08 -6.05032e-09 0
-3.5826e-08 1.45706e-09 0
-3.34404e-08 7.80822e-09 0
-2.28985e-08 9.68625e-09 0
-1.10714e-08 7.40452e-09 0
-3.65158e-09 3.01334e-09 0
-1.90838e-09 -1.2095e-09 0
-3.81971e-09 -3.79858e-09 0
-6.96259e-09 -4.57348e-09 0
-1.00313e-08 -4.19497e-09 0
-1.26982e-08 -3.40318e-09 0
-1.50046e-08 -2.62662e-09 0
-1.70089e-08 -2.00201e-09 0
-1.87183e-08 -1.52582e-09 0
-2.01247e-08 -1.1612e-09 0
-2.12365e-08 -8.77748e-10 0
-2.20839e-08 -6.56296e-10 0
-2.27108e-08 -4.84489e-10 0
-2.31637e-08 -3.53037e-10 0
-2.34852e-08 -2.54082e-10 0
-2.37102e-08 -1.80771e-10 0
-2.38663e-08 -1.27253e-10 0
-2.39736e-08 -8.86996e-11 0
-2.4047e-08 -6.12546e-11 0
-2.4097e-08 -4.19257e-11 0
-2.41308e-08 -2.84449e-11 0
-2.41535e-08 -1.9127e-11 0
-2.41688e-08 -1.27418e-11 0
-2.41789e-08 -8.40489e-12 0
-2.41856e-08 -5.49035e-12 0
-2.419e-08 -3.56198e-12 0
-2.41928e-08 -2.3228e-12 0
-2.41946e-08 -1.58116e-12 0
-2.41957e-08 -1.22884e-12 0
-2.41965e-08 -1.23174e-12 0
-2.4197e-08 -1.62771e-12 0
-2.41977e-08 -2.55065e-12 0
-2.41991e-08 -4.11375e-12 0
0.00794425 4.27822e-08 0
0 -4.79645e-07 0
1.71798e-12 -7.51157e-11 0
4.47027e-10 -3.43379e-10 0
-6.60249e-10 -7.01268e-10 0
-4.55288e-09 -8.48054e-10 0
-1.02989e-08 -6.1469e-10 0
-1.34768e-08 6.77806e-10 0
-1.2981e-08 2.12337e-10 0
-1.51306e-08 -1.16501e-09 0
-1.40016e-08 -8.7537e-10 0
-1.21279e-08 -5.4465e-10 0
-1.60047e-08 1.00487e-09 0
-2.17376e-08 3.167e-09 0
-2.37437e-08 4.10535e-09 0
-1.90229e-08 3.7251e-09 0
-1.02451e-08 2.22989e-09 0
-2.93113e-09 1.15768e-10 0
-7.41241e-10 -1.73818e-09 0
-3.36456e-09 -2.60628e-09 0
-8.16514e-09 -2.4461e-09 0
-1.27981e-08 -1.74985e-09 0
-1.62861e-08 -1.03302e-09 0
-1.86556e-08 -5.43234e-10 0
-2.02646e-08 -2.90441e-10 0
-2.1425e-08 -1.89461e-10 0
-2.23165e-08 -1.57864e-10 0
-2.30233e-08 -1.4663e-10 0
-2.3584e-08 -1.35327e-10 0
-2.40217e-08 -1.19301e-10 0
-2.4356e-08 -1.0006e-10 0
-2.46061e-08 -8.0321e-11 0
-2.47896e-08 -6.21639e-11 0
-2.4922e-08 -4.66831e-11 0
-2.50162e-08 -3.4189e-11 0
-2.50825e-08 -2.45124e-11 0
-2.51285e-08 -1.72536e-11 0
-2.51603e-08 -1.19459e-11 0
-2.51819e-08 -8.14582e-12 0
-2.51966e-08 -5.47372e-12 0
-2.52064e-08 -3.62503e-12 0
-2.52129e-08 -2.36636e-12 0
-2.52171e-08 -1.52543e-12 0
-2.52198e-08 -9.79507e-13 0
-2.52216e-08 -6.45455e-13 0
-2.52227e-08 -4.72818e-13 0
-2.52235e-08 -4.36871e-13 0
-2.52241e-08 -5.3573e-13 0
-2.52248e-08 -7.71836e-13 0
-2.52258e-08 -1.12827e-12 0
-2.52276e-08 -1.68424e-12 0
0.00551462 1.52044e-08 0
0 0 0
1.22395e-12 0 0
2.76383e-10 0 0
-3.05878e-10 0 0
-2.15958e-09 0 0
-4.97971e-09 0 0
-7.13859e-09 0 0
-6.89861e-09 0 0
-8.11366e-09 0 0
-8.39233e-09 0 0
-7.69339e-09 0 0
-6.95727e-09 0 0
-5.96085e-09 0 0
-4.71772e-09 0 0
-2.81742e-09 0 0
-7.4148e-10 0 0
3.1134e-10 0 0
-3.4938e-10 0 0
-2.29922e-09 0 0
-4.54965e-09 0 0
-6.36875e-09 0 0
-7.55561e-09 0 0
-8.24409e-09 0 0
-8.64115e-09 0 0
-8.89797e-09 0 0
-9.09288e-09 0 0
-9.25617e-09 0 0
-9.39585e-09 0 0
-9.51289e-09 0 0
-9.60774e-09 0 0
-9.68208e-09 0 0
-9.73863e-09 0 0
-9.78058e-09 0 0
-9.81104e-09 0 0
-9.83277e-09 0 0
-9.84802e-09 0 0
-9.85858e-09 0 0
-9.86579e-09 0 0
-9.87065e-09 0 0
-9.87388e-09 0 0
-9.87599e-09 0 0
-9.87735e-09 0 0
-9.87821e-09 0 0
-9.87876e-09 0 0
-9.8791e-09 0 0
-9.87936e-09 0 0
-9.8796e-09 0 0
-9.87991e-09 0 0
-9.8804e-09 0 0
-9.88123e-09 0 0
0.0019168 0 0
0 0 5.36538e-07
4.39123e-13 0 2.88453e-10
-5.95971e-10 0 9.86077e-10
9.01492e-10 0 3.02597e-09
-9.06425e-09 0 1.23035e-10
4.475e-09 0 -3.43557e-09
8.77122e-09 0 -1.84031e-09
9.80954e-09 0 -5.93973e-10
1.01701e-08 0 5.39886e-10
1.07949e-08 0 1.61429e-09
1.22875e-08 0 2.72934e-09
1.48199e-08 0 3.33183e-09
1.75427e-08 0 2.83378e-09
1.88359e-08 0 1.64994e-09
1.72644e-08 0 6.82898e-10
1.29717e-08 0 2.37094e-10
7.49943e-09 0 9.1958e-11
2.30571e-09 0 7.93645e-11
-2.18092e-09 0 1.9243e-10
-6.26285e-09 0 4.07206e-10
-1.02635e-08 0 6.28823e-10
-1.41931e-08 0 7.63722e-10
-1.78313e-08 0 7.77185e-10
-2.09369e-08 0 6.91348e-10
-2.33796e-08 0 5.53162e-10
-2.5161e-08 0 4.05931e-10
-2.63723e-08 0 2.76704e-10
-2.7141e-08 0 1.7636e-10
-2.7593e-08 0 1.05053e-10
-2.78332e-08 0 5.78444e-11
-2.79406e-08 0 2.84906e-11
-2.79705e-08 0 1.13553e-11
-2.79592e-08 0 2.07859e-12
-2.79291e-08 0 -2.41974e-12
-2.78933e-08 0 -4.17918e-12
-2.78588e-08 0 -4.47988e-12
-2.78286e-08 0 -4.08553e-12
-2.78038e-08 0 -3.42672e-12
-2.77843e-08 0 -2.72911e-12
-2.77694e-08 0 -2.09815e-12
-2.77582e-08 0 -1.57246e-12
-2.77501e-08 0 -1.15595e-12
-2.77442e-08 0 -8.36726e-13
-2.774e-08 0 -5.97657e-13
-2.77372e-08 0 -4.21265e-13
-2.77352e-08 0 -2.94351e-13
-2.7734e-08 0 -2.10823e-13
-2.77335e-08 0 -1.87462e-13
-2.77335e-08 0 -2.13047e-13
-2.77345e-08 0 8.28947e-14
0.00544843 0 -1.14742e-09
0.0036 -3.07285e-07 -6.22869e-08
0.0035998 -0.00138993 -2.25969e-05
0.00670436 -0.00393485 0.000110637
0.0136128 -0.00588432 -0.000502763
0.0235082 -0.0144707 -0.00427267
0.0463736 -0.0134219 -0.00488518
0.0499017 -0.00193191 -0.00164466
0.049642 0.00263615 -0.00016246
0.044657 0.00496084 0.000572748
0.0390538 0.00512606 0.000563717
0.0339569 0.00445655 0.00029831
0.0296775 0.00357231 2.48801e-05
0.026281 0.002702 -0.000171029
0.0236991 0.00194318 -0.000271279
0.0217798 0.00134203 -0.000289049
0.0203508 0.000905867 -0.000250434
0.0192722 0.000612299 -0.000183842
0.0184491 0.000424359 -0.000113661
0.017822 0.000304346 -5.60285e-05
0.0173513 0.000223346 -1.72588e-05
0.0170068 0.000164015 3.97786e-06
0.0167627 0.000118074 1.26193e-05
0.0165958 8.22053e-05 1.39195e-05
0.0164864 5.49247e-05 1.18529e-05
0.0164178 3.50317e-05 8.8271e-06
0.016377 2.11899e-05 6.01719e-06
0.0163542 1.20045e-05 3.83467e-06
0.0163427 6.19538e-06 2.30595e-06
0.0163378 2.70803e-06 1.30907e-06
0.0163366 7.42608e-07 6.94629e-07
0.0163372 -2.70487e-07 3.34628e-07
0.0163386 -7.16629e-07 1.3462e-07
0.0163401 -8.45151e-07 3.06458e-08
0.0163416 -8.10522e-07 -1.82272e-08
0.0163429 -7.03972e-07 -3.70508e-08
0.0163439 -5.76268e-07 -4.05537e-08
0.0163447 -4.53337e-07 -3.70414e-08
0.0163453 -3.46551e-07 -3.09681e-08
0.0163458 -2.59251e-07 -2.45599e-08
0.0163461 -1.90711e-07 -1.8805e-08
0.0163463 -1.38441e-07 -1.40369e-08
0.0163465 -9.94501e-08 -1.02698e-08
0.0163466 -7.08841e-08 -7.38771e-09
0.0163467 -5.02954e-08 -5.23451e-09
0.0163468 -3.573e-08 -3.65729e-09
0.0163468 -2.56899e-08 -2.47274e-09
0.0163469 -1.90977e-08 -1.37435e-09
0.0163469 -1.53396e-08 5.71334e-10
0.0163469 -1.59675e-08 4.08801e-09
0.0163469 -3.61874e-08 3.45152e-10
0.016347 -5.45664e-08 -5.54573e-09
0.01 -1.37548e-07 -1.45794e-06
0.0100007 -0.00298653 -0.000599423
0.0147858 -0.00996486 -0.000794305
0.0241834 -0.0177495 -0.00123601
0.0385967 -0.0325958 -0.00334106
0.059298 -0.0249095 -0.000817451
0.056528 -0.00275602 0.00318159
0.0559636 0.00507472 0.00338808
0.0501843 0.010046 0.00300868
0.0447197 0.0101849 0.00212716
0.0402285 0.00909456 0.00118919
0.0365296 0.00767312 0.000446664
0.0335677 0.00620856 -7.33257e-05
0.0312957 0.00486643 -0.000379591
0.0295585 0.00373697 -0.000493452
0.0282048 0.0028333 -0.000465647
0.0271369 0.00212498 -0.000360109
0.026302 0.00157403 -0.000234115
0.0256669 0.00114846 -0.000125332
0.025201 0.000823047 -4.92062e-05
0.0248726 0.000577382 -5.05549e-06
0.0246507 0.000394841 1.52964e-05
0.0245076 0.000261954 2.11144e-05
0.0244206 0.000167707 1.96753e-05
0.0243717 0.000102924 1.55813e-05
0.0243472 5.99439e-05 1.12329e-05
0.0243374 3.25233e-05 7.60697e-06
0.0243359 1.57822e-05 4.92235e-06
0.0243385 6.08468e-06 3.07307e-06
0.0243428 8.46219e-07 1.86025e-06
0.0243473 -1.69129e-06 1.0934e-06
0.0243514 -2.67568e-06 6.22904e-07
0.0243549 -2.82661e-06 3.42046e-07
0.0243577 -2.57607e-06 1.78992e-07
0.0243598 -2.17035e-06 8.72241e-08
0.0243614 -1.74053e-06 3.7507e-08
0.0243626 -1.34919e-06 1.19267e-08
0.0243635 -1.02019e-06 -2.30925e-10
0.0243641 -7.57033e-07 -5.21612e-09
0.0243646 -5.53622e-07 -6.57444e-09
0.0243649 -4.00278e-07 -6.24822e-09
0.0243651 -2.8689e-07 -5.25589e-09
0.0243653 -2.04378e-07 -4.11113e-09
0.0243654 -1.45223e-07 -3.04745e-09
0.0243654 -1.03547e-07 -2.1469e-09
0.0243655 -7.50139e-08 -1.31004e-09
0.0243655 -5.68149e-08 -7.18182e-11
0.0243656 -5.00036e-08 2.39347e-09
0.0243656 -5.96927e-08 5.64941e-09
0.0243657 -1.00227e-07 -5.10894e-09
0.0243657 -1.31038e-07 -1.74659e-08
0.0148 -9.61615e-07 -1.75188e-06
0.0148024 -0.00529832 -0.00112598
0.0203976 -0.0164452 -0.00244871
0.0275886 -0.0288867 -0.00394149
0.0322543 -0.0462991 -0.00577447
0.0307128 -0.028579 -0.00142209
0.0269123 -1.2375e-05 0.00330242
0.0263506 0.0070549 0.00352389
0.0298427 0.0143841 0.00343941
0.0301894 0.0137878 0.00248131
0.0293941 0.0119956 0.00152298
0.0285684 0.0101489 0.000688345
0.0279497 0.00827966 8.55933e-05
0.0276426 0.00654614 -0.000274797
0.0275195 0.00508746 -0.000412516
0.0274765 0.00389416 -0.000394841
0.0274697 0.00291991 -0.000297858
0.0274874 0.00213387 -0.000181575
0.0275249 0.00151738 -8.18033e-05
0.0275757 0.00105044 -1.26507e-05
0.027633 0.000707652 2.61086e-05
0.0276913 0.000462325 4.16067e-05
0.0277471 0.00029079 4.25741e-05
0.0277983 0.000173994 3.63841e-05
0.0278436 9.70803e-05 2.79867e-05
0.0278822 4.85195e-05 2.00539e-05
0.027914 1.94505e-05 1.36502e-05
0.0279392 3.24186e-06 8.93349e-06
0.0279586 -4.87721e-06 5.66359e-06
0.0279732 -8.18532e-06 3.49311e-06
0.0279839 -8.82939e-06 2.09996e-06
0.0279916 -8.14585e-06 1.23041e-06
0.027997 -6.92058e-06 7.01165e-07
0.0280009 -5.58404e-06 3.8681e-07
0.0280035 -4.34857e-06 2.04773e-07
0.0280053 -3.29996e-06 1.02295e-07
0.0280066 -2.45564e-06 4.65238e-08
0.0280074 -1.79978e-06 1.74844e-08
0.028008 -1.30341e-06 3.30817e-09
0.0280084 -9.35048e-07 -2.88909e-09
0.0280087 -6.65859e-07 -4.99443e-09
0.0280088 -4.71602e-07 -5.13444e-09
0.028009 -3.3297e-07 -4.44357e-09
0.0280091 -2.35184e-07 -3.48687e-09
0.0280091 -1.67313e-07 -2.4693e-09
0.0280092 -1.22005e-07 -1.35597e-09
0.0280092 -9.51627e-08 3.46027e-10
0.0280092 -8.67065e-08 2.44813e-09
0.0280092 -9.96754e-08 9.32201e-10
0.0280093 -1.30505e-07 -1.78147e-08
0.0280093 -1.49057e-07 -3.40509e-08
0.018 -1.93816e-06 -1.69917e-06
0.018003 -0.00701012 -0.00187506
0.0207906 -0.0190383 -0.00492538
0.0207513 -0.025059 -0.00634491
0.0161069 -0.0270777 -0.0076328
-1.60946e-06 -0.0140566 -0.00433922
9.73397e-05 2.61401e-05 9.27459e-07
-3.32084e-05 3.45561e-05 0.000655704
0.00656237 0.00406153 0.00144573
0.0133934 0.00920047 0.00141881
0.0167952 0.00997905 0.00101225
0.0185793 0.00899604 0.000477344
0.020284 0.00745902 -7.81461e-06
0.0219799 0.00586304 -0.000279881
0.023501 0.00451247 -0.000354215
0.0247841 0.00339683 -0.000310958
0.0258389 0.00247139 -0.000219989
0.0266964 0.00172211 -0.000124438
0.0273851 0.00114547 -4.52624e-05
0.0279274 0.000726539 1.00802e-05
0.0283444 0.000436898 4.15807e-05
0.0286577 0.000244161 5.35298e-05
0.0288891 0.000120233 5.22703e-05
0.0290576 4.39173e-05 4.40887e-05
0.0291788 -2.74112e-08 3.37547e-05
0.0292649 -2.25762e-05 2.40854e-05
0.0293253 -3.16535e-05 1.62826e-05
0.0293669 -3.28599e-05 1.05409e-05
0.0293951 -2.99723e-05 6.57868e-06
0.029414 -2.53758e-05 3.97268e-06
0.0294264 -2.04542e-05 2.32361e-06
0.0294345 -1.59212e-05 1.31421e-06
0.0294397 -1.20749e-05 7.15116e-07
0.029443 -8.9772e-06 3.70362e-07
0.029445 -6.57135e-06 1.78528e-07
0.0294463 -4.75161e-06 7.59699e-08
0.0294472 -3.40244e-06 2.39698e-08
0.0294477 -2.41747e-06 -3.57183e-10
0.029448 -1.70704e-06 -1.01561e-08
0.0294482 -1.19957e-06 -1.27507e-08
0.0294483 -8.39943e-07 -1.2077e-08
0.0294484 -5.86843e-07 -1.01529e-08
0.0294485 -4.09925e-07 -7.9559e-09
0.0294485 -2.87351e-07 -5.90229e-09
0.0294485 -2.03827e-07 -4.06307e-09
0.0294485 -1.49153e-07 -2.46799e-09
0.0294485 -1.16875e-07 -9.854e-10
0.0294485 -1.01793e-07 -3.49426e-10
0.0294485 -1.00446e-07 -7.76049e-09
0.0294485 -9.84589e-08 -2.99472e-08
0.0294485 -9.39013e-08 -4.48527e-08
0.0196 -2.81663e-06 -2.56261e-06
0.019601 -0.0059237 -0.00274417
0.0190549 -0.0132199 -0.00648367
0.0159343 -0.0162598 -0.00669354
0.0108711 -0.0152445 -0.00669257
0.00171412 -0.00628372 -0.00504614
7.24476e-05 -6.65166e-05 -0.00130514
3.33082e-05 -3.33082e-05 -4.19374e-08
-3.26044e-05 3.38124e-05 0.000262955
0.00388704 0.00272271 0.000562869
0.00888065 0.00635041 0.000494886
0.0117886 0.00660709 0.000144602
0.0150339 0.00516479 -0.000239816
0.0181847 0.00378147 -0.000406551
0.020883 0.00274473 -0.000402839
0.0230678 0.00193275 -0.000321652
0.0247992 0.00126517 -0.000223492
0.0261572 0.000732273 -0.000135238
0.0272073 0.000343409 -6.44568e-05
0.0280004 9.08477e-05 -1.24568e-05
0.0285816 -5.33253e-05 2.07121e-05
0.0289948 -0.00012333 3.67695e-05
0.0292805 -0.000147919 3.98081e-05
0.0294735 -0.000146862 3.50846e-05
0.0296011 -0.000132537 2.72405e-05
0.0296838 -0.000112504 1.93205e-05
0.0297362 -9.13228e-05 1.27772e-05
0.0297687 -7.15981e-05 7.97559e-06
0.0297883 -5.45996e-05 4.72879e-06
0.0297998 -4.07208e-05 2.66608e-06
0.0298064 -2.98332e-05 1.42192e-06
0.02981 -2.15482e-05 7.06391e-07
0.0298119 -1.53898e-05 3.14476e-07
0.0298128 -1.08947e-05 1.1169e-07
0.0298131 -7.65944e-06 1.46003e-08
0.0298132 -5.35622e-06 -2.6219e-08
0.0298132 -3.73024e-06 -3.88297e-08
0.0298132 -2.58975e-06 -3.84864e-08
0.0298131 -1.7938e-06 -3.30785e-08
0.029813 -1.2405e-06 -2.64267e-08
0.029813 -8.57153e-07 -2.0194e-08
0.0298129 -5.92398e-07 -1.49576e-08
0.0298129 -4.10262e-07 -1.0802e-08
0.0298129 -2.85763e-07 -7.62584e-09
0.0298128 -2.01675e-07 -5.28252e-09
0.0298128 -1.45809e-07 -3.7882e-09
0.0298128 -1.09015e-07 -3.24705e-09
0.0298128 -8.26182e-08 -3.99243e-09
0.0298128 -5.85458e-08 -1.40142e-08
0.0298127 -2.12485e-08 -3.41009e-08
0.0298126 3.75048e-09 -4.49435e-08
0.0196 -1.3576e-06 -3.57822e-06
0.0195999 -0.00369662 -0.00312766
0.018758 -0.00812031 -0.00652459
0.0175044 -0.00816007 -0.00605528
0.0131723 -0.00433411 -0.00554422
0.00907304 0.0025455 -0.00533596
0.00614184 0.0031446 -0.00312251
7.2623e-05 -6.04102e-05 -0.000676157
2.78058e-05 -2.78058e-05 -1.27231e-07
-3.20705e-05 3.31383e-05 9.63341e-05
0.00267733 0.00188835 0.000365021
0.00694334 0.00292416 0.000265196
0.0121947 0.00140109 -0.000165853
0.0168208 0.00045111 -0.000359564
0.0204191 4.61931e-05 -0.000367148
0.0231049 -0.000180194 -0.000296214
0.0250897 -0.000371856 -0.000214058
0.0265456 -0.000527089 -0.000145491
0.0275931 -0.000611694 -9.17177e-05
0.0283208 -0.000616662 -4.94562e-05
0.0288035 -0.00056188 -1.82774e-05
0.0291073 -0.000476871 1.25124e-06
0.029288 -0.000385263 1.03951e-05
0.0293889 -0.000300511 1.23041e-05
0.0294409 -0.000228225 1.04575e-05
0.0294645 -0.000169598 7.43933e-06
0.0294727 -0.000123734 4.64571e-06
0.0294732 -8.88776e-05 2.57555e-06
0.0294702 -6.30223e-05 1.24148e-06
0.0294663 -4.42288e-05 4.73187e-07
0.0294623 -3.07931e-05 7.84191e-08
0.029459 -2.13124e-05 -9.55197e-08
0.0294562 -1.46889e-05 -1.51392e-07
0.0294541 -1.00953e-05 -1.51121e-07
0.0294526 -6.92562e-06 -1.28712e-07
0.0294514 -4.7461e-06 -1.01108e-07
0.0294506 -3.25067e-06 -7.56991e-08
0.02945 -2.22598e-06 -5.49631e-08
0.0294495 -1.5244e-06 -3.91061e-08
0.0294492 -1.0443e-06 -2.74465e-08
0.029449 -7.15941e-07 -1.90785e-08
0.0294489 -4.91573e-07 -1.31587e-08
0.0294488 -3.38484e-07 -9.03129e-09
0.0294487 -2.34142e-07 -6.24561e-09
0.0294486 -1.62717e-07 -4.53658e-09
0.0294486 -1.12517e-07 -3.80844e-09
0.0294486 -7.4293e-08 -4.06887e-09
0.0294485 -3.93862e-08 -5.15238e-09
0.0294485 2.41562e-09 -1.34767e-08
0.0294484 6.3241e-08 -2.8045e-08
0.0294484 1.0002e-07 -3.49941e-08
0.018 -8.63867e-07 -3.57185e-06
0.0180009 -0.00201492 -0.00305059
0.018314 -0.00389635 -0.00616392
0.0183662 -0.00269978 -0.00528867
0.0173446 0.000593163 -0.00419309
0.0170623 0.00705018 -0.00396575
0.0177967 0.0125684 -0.00300978
0.0109277 0.00692883 -0.00150414
7.40918e-05 -4.67286e-05 -0.000438548
-2.5122e-05 -5.44382e-05 5.56659e-07
7.90078e-06 -0.000733885 0.000749373
0.00824218 -0.00292629 0.00108786
0.0155134 -0.00447897 0.000447433
0.0204677 -0.00409878 0.000124502
0.0236248 -0.00318731 1.52562e-07
0.0256242 -0.00242584 -4.3464e-05
0.0268941 -0.00191863 -6.40742e-05
0.0276819 -0.0015722 -7.84111e-05
0.0281352 -0.00129083 -8.36091e-05
0.0283565 -0.00103243 -7.62558e-05
0.0284269 -0.000796043 -5.97813e-05
0.0284103 -0.000593136 -4.11572e-05
0.0283528 -0.000430301 -2.56454e-05
0.0282834 -0.000306206 -1.50041e-05
0.0282179 -0.000214893 -8.59542e-06
0.0281627 -0.000149253 -5.02268e-06
0.0281195 -0.000102843 -3.07548e-06
0.028087 -7.04424e-05 -1.97986e-06
0.0280635 -4.80497e-05 -1.31939e-06
0.0280468 -3.26927e-05 -8.91778e-07
0.0280351 -2.22181e-05 -6.01756e-07
0.0280269 -1.50975e-05 -4.01733e-07
0.0280214 -1.02644e-05 -2.64319e-07
0.0280175 -6.98488e-06 -1.71266e-07
0.0280149 -4.75799e-06 -1.09386e-07
0.0280131 -3.24422e-06 -6.89818e-08
0.0280119 -2.2139e-06 -4.30401e-08
0.0280111 -1.51182e-06 -2.66259e-08
0.0280105 -1.03298e-06 -1.6366e-08
0.0280101 -7.06206e-07 -1.00153e-08
0.0280098 -4.83158e-07 -6.1143e-09
0.0280096 -3.30859e-07 -3.73861e-09
0.0280095 -2.26636e-07 -2.34222e-09
0.0280094 -1.54652e-07 -1.61777e-09
0.0280093 -1.03521e-07 -1.40032e-09
0.0280093 -6.46115e-08 -1.59282e-09
0.0280093 -3.07574e-08 -2.12221e-09
0.0280092 4.83905e-09 -2.71785e-09
0.0280092 5.17628e-08 -6.75279e-09
0.0280092 1.15634e-07 -1.53002e-08
0.0280092 1.51684e-07 -2.00687e-08
0.0148 -4.84613e-07 -3.16441e-06
0.0148015 -0.00103962 -0.00283078
0.0162292 -0.00165763 -0.00542874
0.0177884 -5.03098e-05 -0.00429177
0.0191037 0.00315011 -0.00306448
0.0208333 0.00733668 -0.00284182
0.0246458 0.0129769 -0.00241109
0.0279387 0.0195074 -0.0015208
0.022977 0.0112852 -0.000348634
0.0234322 5.23234e-11 0.000622905
0.0265787 -0.00671928 0.00156003
0.0299768 -0.0131247 0.00211305
0.0307639 -0.0110472 0.0016396
0.0301674 -0.00770417 0.00113802
0.029176 -0.00505795 0.000686273
0.0282136 -0.00333567 0.000337427
0.027396 -0.00227293 0.000102763
0.0267245 -0.00159114 -3.4412e-05
0.0261752 -0.00111746 -9.67819e-05
0.0257283 -0.000771506 -0.000107954
0.0253707 -0.000520426 -9.13567e-05
0.0250919 -0.00034514 -6.58494e-05
0.0248808 -0.000227638 -4.24917e-05
0.0247252 -0.000150835 -2.53063e-05
0.0246135 -0.000100946 -1.42092e-05
0.0245348 -6.82851e-05 -7.63306e-06
0.0244804 -4.66014e-05 -3.95593e-06
0.0244432 -3.20015e-05 -1.98012e-06
0.024418 -2.20618e-05 -9.48814e-07
0.024401 -1.52427e-05 -4.23839e-07
0.0243895 -1.05417e-05 -1.64191e-07
0.0243818 -7.29158e-06 -4.11911e-08
0.0243766 -5.04128e-06 1.27117e-08
0.0243731 -3.48249e-06 3.25936e-08
0.0243707 -2.40295e-06 3.64749e-08
0.0243691 -1.6559e-06 3.34698e-08
0.024368 -1.13951e-06 2.80634e-08
0.0243672 -7.8306e-07 2.2354e-08
0.0243667 -5.37407e-07 1.72275e-08
0.0243664 -3.68371e-07 1.29718e-08
0.0243661 -2.52162e-07 9.59643e-09
0.024366 -1.72166e-07 6.99366e-09
0.0243658 -1.16672e-07 5.01123e-09
0.0243658 -7.72862e-08 3.50777e-09
0.0243657 -4.77627e-08 2.37454e-09
0.0243657 -2.3153e-08 1.55143e-09
0.0243656 9.20591e-10 1.10263e-09
0.0243656 2.83151e-08 1.11739e-09
0.0243656 6.37814e-08 5.80638e-10
0.0243657 1.07244e-07 -4.68088e-09
0.0243657 1.30206e-07 -9.28064e-09
0.01 -9.26638e-07 -2.86729e-06
0.0100008 -0.000636861 -0.00230527
0.0113198 -0.000718837 -0.00414497
0.0131778 0.00054304 -0.00290811
0.0156035 0.00251057 -0.00180676
0.0194935 0.00555783 -0.00181517
0.0254074 0.00836304 -0.00236609
0.0345232 0.0101205 -0.00209601
0.0461376 0.00481987 -0.000514788