# vtk DataFile Version 2.0
Tobias Weinzierl: CPU, Manycore and Cluster Computing
ASCII

DATASET STRUCTURED_POINTS
DIMENSIONS  51 11 6

ORIGIN 0 0 0 

SPACING 0.1 0.1 0.1 

POINT_DATA 3366

VECTORS velocity float
0 0 0
1.4056e-11 0 0
9.66658e-09 0 0
-1.05088e-08 0 0
-7.53002e-08 0 0
-2.84844e-08 0 0
-1.96775e-08 0 0
-1.80412e-08 0 0
-1.10362e-08 0 0
-2.58255e-09 0 0
-2.03897e-09 0 0
-1.31447e-08 0 0
-2.94259e-08 0 0
-4.16893e-08 0 0
-4.62439e-08 0 0
-4.5695e-08 0 0
-4.41069e-08 0 0
-4.36043e-08 0 0
-4.43539e-08 0 0
-4.5751e-08 0 0
-4.72218e-08 0 0
-4.8456e-08 0 0
-4.9362e-08 0 0
-4.99658e-08 0 0
-5.03357e-08 0 0
-5.05427e-08 0 0
-5.06447e-08 0 0
-5.06839e-08 0 0
-5.06883e-08 0 0
-5.06756e-08 0 0
-5.0656e-08 0 0
-5.06351e-08 0 0
-5.06157e-08 0 0
-5.05989e-08 0 0
-5.05848e-08 0 0
-5.05734e-08 0 0
-5.05641e-08 0 0
-5.05567e-08 0 0
-5.05508e-08 0 0
-5.05461e-08 0 0
-5.05422e-08 0 0
-5.05392e-08 0 0
-5.05367e-08 0 0
-5.05347e-08 0 0
-5.05333e-08 0 0
-5.05322e-08 0 0
-5.05316e-08 0 0
-5.05315e-08 0 0
-5.05322e-08 0 0
-5.05354e-08 0 0
0.00212568 0 0
0 3.94968e-07 0
2.41885e-11 -1.0975e-08 0
1.85061e-08 -1.46888e-08 0
-9.96316e-09 6.89733e-09 0
-1.02788e-07 -1.59032e-08 0
-2.69541e-08 -1.35967e-08 0
-2.57688e-08 4.25221e-08 0
-3.79454e-08 5.15188e-08 0
-3.46216e-08 3.43197e-08 0
-2.23747e-08 2.09908e-08 0
-1.75164e-08 1.98848e-08 0
-3.07081e-08 2.47697e-08 0
-5.52809e-08 2.40165e-08 0
-7.51424e-08 1.53604e-08 0
-8.28631e-08 5.52243e-09 0
-8.35444e-08 1.86984e-10 0
-8.44795e-08 -6.13168e-10 0
-8.83961e-08 4.86999e-10 0
-9.43843e-08 1.53073e-09 0
-1.00676e-07 1.91938e-09 0
-1.06078e-07 1.78371e-09 0
-1.10152e-07 1.40629e-09 0
-1.12953e-07 9.91085e-10 0
-1.14737e-07 6.37099e-10 0
-1.15793e-07 3.73396e-10 0
-1.16369e-07 1.94469e-10 0
-1.16648e-07 8.23712e-11 0
-1.16753e-07 1.77714e-11 0
-1.16766e-07 -1.55992e-11 0
-1.16734e-07 -2.98446e-11 0
-1.16685e-07 -3.32553e-11 0
-1.16633e-07 -3.1138e-11 0
-1.16585e-07 -2.66737e-11 0
-1.16545e-07 -2.16319e-11 0
-1.16511e-07 -1.69006e-11 0
-1.16484e-07 -1.28503e-11 0
-1.16462e-07 -9.56973e-12 0
-1.16445e-07 -7.00845e-12 0
-1.16431e-07 -5.0593e-12 0
-1.16421e-07 -3.60204e-12 0
-1.16412e-07 -2.52414e-12 0
-1.16405e-07 -1.7287e-12 0
-1.164e-07 -1.13461e-12 0
-1.16396e-07 -6.73158e-13 0
-1.16393e-07 -2.8144e-13 0
-1.1639e-07 1.15181e-13 0
-1.16389e-07 6.15017e-13 0
-1.1639e-07 1.42699e-12 0
-1.16392e-07 3.65524e-12 0
-1.164e-07 9.82181e-12 0
0.00601794 -7.54419e-08 0
0 -2.19966e-08 0
2.16847e-11 -9.53213e-09 0
2.79562e-08 -2.97938e-08 0
3.23445e-08 -5.77623e-08 0
-4.49386e-09 -1.22461e-07 0
6.0834e-08 -9.0643e-08 0
1.91211e-08 1.52988e-08 0
-2.9868e-08 3.62778e-08 0
-5.88121e-08 2.73403e-08 0
-5.2364e-08 2.20366e-08 0
-3.93191e-08 1.63746e-08 0
-4.14107e-08 1.05104e-08 0
-5.92046e-08 9.59661e-09 0
-7.55293e-08 1.42614e-08 0
-8.01169e-08 2.02061e-08 0
-7.79498e-08 2.35161e-08 0
-7.69307e-08 2.32802e-08 0
-8.00087e-08 2.05209e-08 0
-8.59962e-08 1.65727e-08 0
-9.26502e-08 1.24561e-08 0
-9.84118e-08 8.79542e-09 0
-1.02691e-07 5.86778e-09 0
-1.05534e-07 3.70452e-09 0
-1.07252e-07 2.20447e-09 0
-1.08193e-07 1.22028e-09 0
-1.08644e-07 6.08026e-10 0
-1.0881e-07 2.48427e-10 0
-1.08824e-07 5.17153e-11 0
-1.08768e-07 -4.52315e-11 0
-1.08686e-07 -8.44298e-11 0
-1.08602e-07 -9.24896e-11 0
-1.08527e-07 -8.54391e-11 0
-1.08463e-07 -7.24051e-11 0
-1.08411e-07 -5.82258e-11 0
-1.08371e-07 -4.52023e-11 0
-1.08339e-07 -3.42171e-11 0
-1.08314e-07 -2.54148e-11 0
-1.08295e-07 -1.85969e-11 0
-1.0828e-07 -1.34382e-11 0
-1.08268e-07 -9.5961e-12 0
-1.08259e-07 -6.76e-12 0
-1.08252e-07 -4.66622e-12 0
-1.08246e-07 -3.09546e-12 0
-1.08242e-07 -1.85756e-12 0
-1.08238e-07 -7.6907e-13 0
-1.08236e-07 3.96882e-13 0
-1.08235e-07 2.06906e-12 0
-1.08236e-07 5.0017e-12 0
-1.08238e-07 9.97055e-12 0
-1.08243e-07 1.76094e-11 0
0.00841952 -1.47598e-07 0
0 -6.4206e-07 0
2.50699e-11 -1.58762e-08 0
3.56847e-08 -5.42996e-08 0
5.15373e-08 -1.04563e-07 0
4.49641e-09 -1.41208e-07 0
5.93029e-08 -7.51058e-08 0
2.52134e-08 -5.58147e-11 0
-9.9629e-09 -7.78314e-09 0
-6.39461e-08 -3.03104e-08 0
-6.95742e-08 -5.13071e-08 0
-6.08906e-08 -5.66525e-08 0
-7.04671e-08 -4.26184e-08 0
-9.22018e-08 -1.07049e-08 0
-1.08019e-07 2.08845e-08 0
-1.07412e-07 3.78835e-08 0
-9.53328e-08 4.07081e-08 0
-8.12922e-08 3.60598e-08 0
-7.1436e-08 2.9124e-08 0
-6.68634e-08 2.21318e-08 0
-6.58424e-08 1.58759e-08 0
-6.63248e-08 1.07123e-08 0
-6.70426e-08 6.76711e-09 0
-6.75018e-08 3.96646e-09 0
-6.76406e-08 2.11054e-09 0
-6.75528e-08 9.6096e-10 0
-6.7349e-08 2.99495e-10 0
-6.71101e-08 -4.67541e-11 0
-6.68822e-08 -2.02255e-10 0
-6.66861e-08 -2.50301e-10 0
-6.65274e-08 -2.43223e-10 0
-6.64037e-08 -2.11932e-10 0
-6.63095e-08 -1.73445e-10 0
-6.62387e-08 -1.36292e-10 0
-6.61858e-08 -1.04107e-10 0
-6.61463e-08 -7.78967e-11 0
-6.61167e-08 -5.73826e-11 0
-6.60944e-08 -4.17593e-11 0
-6.60773e-08 -3.009e-11 0
-6.60641e-08 -2.14945e-11 0
-6.60538e-08 -1.52212e-11 0
-6.60457e-08 -1.06613e-11 0
-6.60392e-08 -7.33266e-12 0
-6.60341e-08 -4.85296e-12 0
-6.603e-08 -2.90428e-12 0
-6.60269e-08 -1.17724e-12 0
-6.60245e-08 6.74082e-13 0
-6.60227e-08 2.96107e-12 0
-6.60214e-08 5.86662e-12 0
-6.60196e-08 9.61685e-12 0
-6.60201e-08 1.47269e-11 0
0.00924092 -1.41747e-07 0
0 -1.23742e-06 0
9.42765e-12 -2.759e-08 0
1.58954e-08 -7.38931e-08 0
9.94517e-09 -9.38465e-08 0
-3.96186e-08 -7.24565e-08 0
-2.32164e-11 -2.49437e-08 0
-3.6586e-10 -4.17947e-10 0
3.7723e-10 -4.10177e-10 0
-2.87187e-08 -3.09839e-08 0
-8.0677e-08 -7.85919e-08 0
-9.65915e-08 -8.7841e-08 0
-1.08271e-07 -5.82219e-08 0
-1.25996e-07 -1.05072e-08 0
-1.36916e-07 2.84838e-08 0
-1.3462e-07 4.30614e-08 0
-1.19304e-07 3.95487e-08 0
-9.72475e-08 2.99835e-08 0
-7.68343e-08 2.1209e-08 0
-6.24789e-08 1.45062e-08 0
-5.39525e-08 9.37732e-09 0
-4.91965e-08 5.47334e-09 0
-4.64206e-08 2.6794e-09 0
-4.46154e-08 8.64746e-10 0
-4.33295e-08 -1.78973e-10 0
-4.23779e-08 -6.84495e-10 0
-4.16744e-08 -8.54538e-10 0
-4.11635e-08 -8.39159e-10 0
-4.07999e-08 -7.36916e-10 0
-4.05455e-08 -6.06152e-10 0
-4.03698e-08 -4.77718e-10 0
-4.0249e-08 -3.65457e-10 0
-4.0166e-08 -2.73622e-10 0
-4.01085e-08 -2.01616e-10 0
-4.00681e-08 -1.46772e-10 0
-4.00393e-08 -1.05856e-10 0
-4.00183e-08 -7.57889e-11 0
-4.00026e-08 -5.39411e-11 0
-3.99905e-08 -3.81973e-11 0
-3.9981e-08 -2.69189e-11 0
-3.99734e-08 -1.88671e-11 0
-3.99671e-08 -1.3119e-11 0
-3.9962e-08 -8.9907e-12 0
-3.99578e-08 -5.96876e-12 0
-3.99542e-08 -3.66021e-12 0
-3.99511e-08 -1.77918e-12 0
-3.99484e-08 -1.52874e-13 0
-3.99457e-08 1.31379e-12 0
-3.9943e-08 2.76128e-12 0
-3.99395e-08 4.57132e-12 0
-3.99381e-08 7.44544e-12 0
0.00947079 -7.98778e-08 0
0 -1.10984e-06 0
-6.73671e-12 -2.87542e-08 0
-2.17205e-09 -5.9967e-08 0
-1.6018e-08 -7.38988e-08 0
-6.03042e-08 -8.52648e-08 0
-4.23148e-08 -4.25853e-08 0
-3.73724e-10 3.61629e-10 0
1.56175e-11 -1.56175e-11 0
3.57038e-10 -3.97382e-10 0
-4.36738e-08 -4.15513e-08 0
-1.07104e-07 -9.04141e-08 0
-1.09934e-07 -6.9032e-08 0
-1.15141e-07 -9.42934e-09 0
-1.2403e-07 3.63894e-08 0
-1.33346e-07 4.93134e-08 0
-1.30521e-07 3.81379e-08 0
-1.11777e-07 2.11937e-08 0
-8.69622e-08 8.91436e-09 0
-6.61412e-08 2.13916e-09 0
-5.24019e-08 -1.33267e-09 0
-4.43334e-08 -3.06132e-09 0
-3.97206e-08 -3.74433e-09 0
-3.70123e-08 -3.75062e-09 0
-3.53599e-08 -3.36345e-09 0
-3.4327e-08 -2.80513e-09 0
-3.36783e-08 -2.22413e-09 0
-3.3274e-08 -1.70094e-09 0
-3.30252e-08 -1.26742e-09 0
-3.28741e-08 -9.26841e-10 0
-3.27832e-08 -6.68684e-10 0
-3.27285e-08 -4.77784e-10 0
-3.26951e-08 -3.39034e-10 0
-3.26742e-08 -2.39398e-10 0
-3.26604e-08 -1.6845e-10 0
-3.26506e-08 -1.18225e-10 0
-3.2643e-08 -8.28136e-11 0
-3.26368e-08 -5.79156e-11 0
-3.26314e-08 -4.04405e-11 0
-3.26266e-08 -2.81868e-11 0
-3.26223e-08 -1.95939e-11 0
-3.26184e-08 -1.35585e-11 0
-3.26148e-08 -9.30278e-12 0
-3.26116e-08 -6.28664e-12 0
-3.26086e-08 -4.14835e-12 0
-3.26059e-08 -2.65037e-12 0
-3.26032e-08 -1.62574e-12 0
-3.26007e-08 -9.71286e-13 0
-3.25982e-08 -6.47643e-13 0
-3.25952e-08 -4.76831e-13 0
-3.25939e-08 1.12693e-13 0
0.00951428 3.41473e-09 0
0 -7.73176e-07 0
1.17782e-12 -2.08966e-08 0
-3.19123e-09 -5.17576e-08 0
-1.66041e-08 -6.28977e-08 0
-7.81536e-08 -5.67283e-08 0
-9.98294e-08 -2.99086e-08 0
-3.44674e-08 -5.21288e-09 0
-3.67749e-10 3.55476e-10 0
1.58202e-12 -1.58202e-12 0
3.28572e-10 -3.8547e-10 0
-4.75609e-08 -4.95774e-08 0
-6.68733e-08 -6.85018e-08 0
-6.85509e-08 -1.47463e-09 0
-7.40248e-08 5.23072e-08 0
-9.53857e-08 6.39681e-08 0
-1.14085e-07 4.28186e-08 0
-1.10937e-07 1.51324e-08 0
-9.11604e-08 -3.01827e-09 0
-6.98084e-08 -1.07583e-08 0
-5.47948e-08 -1.24965e-08 0
-4.6383e-08 -1.16023e-08 0
-4.22776e-08 -9.74309e-09 0
-4.04637e-08 -7.68722e-09 0
-3.97478e-08 -5.8011e-09 0
-3.9526e-08 -4.23755e-09 0
-3.95129e-08 -3.02426e-09 0
-3.95773e-08 -2.12427e-09 0
-3.9661e-08 -1.47685e-09 0
-3.97398e-08 -1.02051e-09 0
-3.98052e-08 -7.02979e-10 0
-3.98558e-08 -4.83715e-10 0
-3.98931e-08 -3.32897e-10 0
-3.99194e-08 -2.29305e-10 0
-3.99372e-08 -1.5814e-10 0
-3.99487e-08 -1.09201e-10 0
-3.99555e-08 -7.5493e-11 0
-3.9959e-08 -5.22373e-11 0
-3.99602e-08 -3.61657e-11 0
-3.99599e-08 -2.50415e-11 0
-3.99587e-08 -1.7332e-11 0
-3.99568e-08 -1.19876e-11 0
-3.99547e-08 -8.29245e-12 0
-3.99525e-08 -5.76112e-12 0
-3.99502e-08 -4.068e-12 0
-3.99481e-08 -3.0063e-12 0
-3.9946e-08 -2.46702e-12 0
-3.99441e-08 -2.44757e-12 0
-3.99425e-08 -3.11889e-12 0
-3.99403e-08 -4.72209e-12 0
-3.99396e-08 -7.02137e-12 0
0.00947077 8.48178e-08 0
0 -5.43005e-07 0
1.03266e-11 -1.63569e-08 0
-3.62862e-09 -3.9756e-08 0
-2.50322e-08 -4.73788e-08 0
-8.04415e-08 -3.53926e-08 0
-1.15382e-07 -1.09922e-08 0
-8.68913e-08 -4.2144e-09 0
-4.1259e-08 -4.63641e-09 0
-3.84075e-10 3.26844e-10 0
3.20287e-10 3.16791e-10 0
2.22828e-12 -2.51283e-08 0
-5.15302e-08 -2.97494e-08 0
-6.47286e-08 2.01518e-08 0
-4.30322e-08 6.363e-08 0
-3.70974e-08 6.96692e-08 0
-5.96821e-08 4.36773e-08 0
-7.99983e-08 1.14927e-08 0
-8.15089e-08 -9.2939e-09 0
-7.29324e-08 -1.7184e-08 0
-6.50674e-08 -1.74821e-08 0
-6.12328e-08 -1.47332e-08 0
-6.04597e-08 -1.13143e-08 0
-6.11358e-08 -8.21965e-09 0
-6.22231e-08 -5.76344e-09 0
-6.32525e-08 -3.95279e-09 0
-6.40763e-08 -2.67724e-09 0
-6.46861e-08 -1.80299e-09 0
-6.51193e-08 -1.21286e-09 0
-6.542e-08 -8.17284e-10 0
-6.5626e-08 -5.525e-10 0
-6.57658e-08 -3.74937e-10 0
-6.58599e-08 -2.55427e-10 0
-6.59228e-08 -1.74635e-10 0
-6.59643e-08 -1.19771e-10 0
-6.59912e-08 -8.23575e-11 0
-6.60082e-08 -5.67481e-11 0
-6.60184e-08 -3.91634e-11 0
-6.60242e-08 -2.70586e-11 0
-6.6027e-08 -1.87119e-11 0
-6.60278e-08 -1.29543e-11 0
-6.60274e-08 -8.99033e-12 0
-6.60263e-08 -6.27996e-12 0
-6.60248e-08 -4.46165e-12 0
-6.60231e-08 -3.30598e-12 0
-6.60215e-08 -2.69318e-12 0
-6.602e-08 -2.60759e-12 0
-6.60188e-08 -3.14128e-12 0
-6.60179e-08 -4.62921e-12 0
-6.60169e-08 -7.93006e-12 0
-6.60178e-08 -1.36648e-11 0
0.00924086 1.40212e-07 0
0 -4.66794e-07 0
1.66851e-11 -9.73202e-09 0
-5.88382e-09 -2.61593e-08 0
-3.81342e-08 -3.40806e-08 0
-9.46368e-08 -2.56725e-08 0
-1.29485e-07 -1.41488e-11 0
-1.12206e-07 8.20432e-09 0
-8.96669e-08 -2.75315e-08 0
-5.41656e-08 -2.77303e-08 0
-4.50084e-08 1.54162e-12 0
-5.35672e-08 1.00528e-08 0
-1.1235e-07 2.89762e-08 0
-1.29626e-07 3.90162e-08 0
-7.19644e-08 3.75886e-08 0
-1.9576e-08 2.9075e-08 0
-2.8929e-08 1.60685e-08 0
-6.62808e-08 3.285e-09 0
-8.97947e-08 -5.3179e-09 0
-9.60969e-08 -8.81539e-09 0
-9.65018e-08 -8.85001e-09 0
-9.71809e-08 -7.4077e-09 0
-9.89667e-08 -5.66844e-09 0
-1.0114e-07 -4.12272e-09 0
-1.03114e-07 -2.90932e-09 0
-1.0467e-07 -2.01816e-09 0
-1.05805e-07 -1.38819e-09 0
-1.066e-07 -9.52021e-10 0
-1.07144e-07 -6.52937e-10 0
-1.07513e-07 -4.48478e-10 0
-1.0776e-07 -3.08641e-10 0
-1.07926e-07 -2.12807e-10 0
-1.08037e-07 -1.46969e-10 0
-1.08111e-07 -1.01632e-10 0
-1.0816e-07 -7.03497e-11 0
-1.08192e-07 -4.87294e-11 0
-1.08212e-07 -3.37681e-11 0
-1.08224e-07 -2.34059e-11 0
-1.08231e-07 -1.62262e-11 0
-1.08235e-07 -1.12532e-11 0
-1.08237e-07 -7.81459e-12 0
-1.08237e-07 -5.44863e-12 0
-1.08236e-07 -3.84202e-12 0
-1.08235e-07 -2.79025e-12 0
-1.08233e-07 -2.17397e-12 0
-1.08232e-07 -1.95019e-12 0
-1.08231e-07 -2.16876e-12 0
-1.08231e-07 -2.98766e-12 0
-1.08231e-07 -4.78459e-12 0
-1.08232e-07 -8.7629e-12 0
-1.08236e-07 -1.64828e-11 0
0.00841948 1.36371e-07 0
0 -4.85736e-07 0
2.56989e-11 -3.32008e-09 0
-8.9217e-09 -1.0896e-08 0
-4.6767e-08 -1.56104e-08 0
-9.88041e-08 -1.22711e-08 0
-1.31734e-07 -5.66292e-09 0
-1.19926e-07 -2.66376e-09 0
-1.01943e-07 -1.60002e-08 0
-1.17829e-07 -1.84258e-08 0
-1.06905e-07 6.23076e-09 0
-9.65169e-08 3.25644e-08 0
-9.82802e-08 4.59157e-08 0
-8.80506e-08 3.44876e-08 0
-4.47269e-08 6.99997e-09 0
-1.69311e-08 -1.80185e-08 0
-3.94605e-08 -2.66301e-08 0
-8.1048e-08 -1.90118e-08 0
-1.06348e-07 -6.91625e-09 0
-1.13143e-07 4.86483e-10 0
-1.12609e-07 2.49457e-09 0
-1.11528e-07 1.95034e-09 0
-1.11488e-07 9.42762e-10 0
-1.1218e-07 2.21372e-10 0
-1.13103e-07 -1.44733e-10 0
-1.13968e-07 -2.74241e-10 0
-1.14668e-07 -2.82801e-10 0
-1.15195e-07 -2.42893e-10 0
-1.15576e-07 -1.91336e-10 0
-1.15843e-07 -1.43715e-10 0
-1.16029e-07 -1.04952e-10 0
-1.16155e-07 -7.53294e-11 0
-1.16241e-07 -5.34772e-11 0
-1.16299e-07 -3.76928e-11 0
-1.16337e-07 -2.64386e-11 0
-1.16362e-07 -1.8481e-11 0
-1.16377e-07 -1.28857e-11 0
-1.16386e-07 -8.96708e-12 0
-1.16391e-07 -6.2314e-12 0
-1.16393e-07 -4.32765e-12 0
-1.16394e-07 -3.00888e-12 0
-1.16393e-07 -2.10363e-12 0
-1.16392e-07 -1.49598e-12 0
-1.1639e-07 -1.11292e-12 0
-1.16389e-07 -9.16808e-13 0
-1.16388e-07 -9.06802e-13 0
-1.16387e-07 -1.13369e-12 0
-1.16387e-07 -1.72012e-12 0
-1.16388e-07 -2.88058e-12 0
-1.1639e-07 -5.17788e-12 0
-1.16398e-07 -9.82677e-12 0
0.00601796 6.2414e-08 0
0 0 0
1.5516e-11 0 0
-4.97468e-09 0 0
-2.32857e-08 0 0
-4.56382e-08 0 0
-6.00946e-08 0 0
-6.01515e-08 0 0
-5.35282e-08 0 0
-6.36924e-08 0 0
-6.19044e-08 0 0
-4.29483e-08 0 0
-1.88701e-08 0 0
-2.59961e-09 0 0
5.17324e-09 0 0
-1.70738e-09 0 0
-2.25779e-08 0 0
-4.30914e-08 0 0
-5.32491e-08 0 0
-5.473e-08 0 0
-5.29468e-08 0 0
-5.11021e-08 0 0
-5.00514e-08 0 0
-4.96681e-08 0 0
-4.96541e-08 0 0
-4.97911e-08 0 0
-4.99624e-08 0 0
-5.01178e-08 0 0
-5.02421e-08 0 0
-5.0335e-08 0 0
-5.04019e-08 0 0
-5.04487e-08 0 0
-5.04809e-08 0 0
-5.05024e-08 0 0
-5.05166e-08 0 0
-5.05255e-08 0 0
-5.0531e-08 0 0
-5.0534e-08 0 0
-5.05354e-08 0 0
-5.05358e-08 0 0
-5.05355e-08 0 0
-5.05348e-08 0 0
-5.05339e-08 0 0
-5.0533e-08 0 0
-5.05321e-08 0 0
-5.05314e-08 0 0
-5.05309e-08 0 0
-5.05309e-08 0 0
-5.05315e-08 0 0
-5.05332e-08 0 0
-5.05377e-08 0 0
0.00212571 0 0
0 0 5.4215e-07
2.77649e-11 0 1.32165e-09
2.32542e-08 0 2.52247e-08
2.18865e-09 0 7.80825e-08
-1.96218e-07 0 3.38918e-08
-7.74438e-08 0 -4.20131e-08
-3.64674e-08 0 -5.29526e-08
-9.36017e-09 0 -6.01476e-08
1.77285e-08 0 -4.9766e-08
4.44739e-08 0 -2.99759e-08
5.70013e-08 0 -9.3107e-09
4.26499e-08 0 2.62898e-09
7.38284e-09 0 4.53963e-09
-3.04689e-08 0 1.46908e-09
-5.72065e-08 0 -1.50542e-09
-7.21321e-08 0 -2.31277e-09
-8.12868e-08 0 -1.46647e-09
-8.92147e-08 0 -2.29173e-10
-9.70407e-08 0 6.26748e-10
-1.04208e-07 0 9.59191e-10
-1.10071e-07 0 9.31751e-10
-1.14419e-07 0 7.44283e-10
-1.17395e-07 0 5.29033e-10
-1.19296e-07 0 3.46779e-10
-1.20433e-07 0 2.1343e-10
-1.21063e-07 0 1.24283e-10
-1.21377e-07 0 6.84144e-11
-1.21504e-07 0 3.51933e-11
-1.2153e-07 0 1.63839e-11
-1.21505e-07 0 6.28694e-12
-1.2146e-07 0 1.22822e-12
-1.21409e-07 0 -1.04436e-12
-1.21362e-07 0 -1.855e-12
-1.2132e-07 0 -1.9522e-12
-1.21286e-07 0 -1.74131e-12
-1.21258e-07 0 -1.43032e-12
-1.21236e-07 0 -1.11789e-12
-1.21218e-07 0 -8.44489e-13
-1.21204e-07 0 -6.21263e-13
-1.21193e-07 0 -4.45587e-13
-1.21184e-07 0 -3.09116e-13
-1.21177e-07 0 -2.01633e-13
-1.21172e-07 0 -1.12102e-13
-1.21168e-07 0 -2.8937e-14
-1.21164e-07 0 5.9257e-14
-1.21162e-07 0 1.67929e-13
-1.21161e-07 0 2.89509e-13
-1.21161e-07 0 3.81693e-13
-1.21164e-07 0 1.11166e-12
-1.21172e-07 0 4.99002e-12
0.00598396 0 -2.60634e-08
0.0036 -2.96886e-07 -5.34885e-08
0.00359982 -0.001315 8.77138e-06
0.00674459 -0.00381521 6.19926e-05
0.0136064 -0.00628578 -0.0009373
0.0239036 -0.0143507 -0.00466161
0.0461061 -0.0126258 -0.00495014
0.0494795 -0.00156931 -0.00169027
0.0491778 0.00285973 -0.000185069
0.0440623 0.00513309 0.000550437
0.038343 0.00529996 0.000527253
0.033197 0.00461678 0.000237236
0.0289444 0.00363034 -7.62915e-05
0.0256213 0.00259737 -0.00029488
0.0231318 0.00171215 -0.000363529
0.0213252 0.00107928 -0.000307005
0.0200442 0.00068316 -0.000199583
0.0191547 0.000445981 -0.000103622
0.0185511 0.000297937 -4.19652e-05
0.0181522 0.000198996 -1.059e-05
0.0178964 0.000130421 2.05843e-06
0.0177373 8.30624e-05 5.45319e-06
0.0176416 5.11818e-05 5.15849e-06
0.017586 3.04142e-05 3.83726e-06
0.0175549 1.73388e-05 2.53687e-06
0.0175384 9.38445e-06 1.55521e-06
0.0175303 4.71765e-06 8.9946e-07
0.0175267 2.091e-06 4.93002e-07
0.0175256 6.88689e-07 2.54548e-07
0.0175256 -4.63958e-09 1.21166e-07
0.0175261 -3.04197e-07 5.01159e-08
0.0175268 -3.96599e-07 1.44778e-08
0.0175274 -3.88492e-07 -1.87039e-09
0.017528 -3.38296e-07 -8.20011e-09
0.0175284 -2.76258e-07 -9.64728e-09
0.0175288 -2.16743e-07 -8.94599e-09
0.017529 -1.65547e-07 -7.48238e-09
0.0175292 -1.24103e-07 -5.91173e-09
0.0175294 -9.18297e-08 -4.50866e-09
0.0175295 -6.73699e-08 -3.35987e-09
0.0175296 -4.92182e-08 -2.46772e-09
0.0175296 -3.60043e-08 -1.80553e-09
0.0175297 -2.66021e-08 -1.34646e-09
0.0175297 -2.01548e-08 -1.07638e-09
0.0175297 -1.60826e-08 -1.00795e-09
0.0175297 -1.40688e-08 -1.14842e-09
0.0175298 -1.40855e-08 -1.41329e-09
0.0175298 -1.66054e-08 -1.44185e-09
0.0175298 -2.21929e-08 1.57568e-09
0.0175299 -4.43792e-08 3.36834e-09
0.01753 -1.43e-07 -4.19012e-08
0.0175303 -2.23057e-07 -8.60744e-08
0.01 -1.41469e-07 -1.45001e-06
0.0100008 -0.00299287 -0.000540889
0.0148726 -0.00989351 -0.000740947
0.0241248 -0.0177846 -0.00154444
0.0380788 -0.0318797 -0.00355825
0.0583 -0.0237998 -0.00083521
0.0557133 -0.0022987 0.00290581
0.0553131 0.00549362 0.00302419
0.0495949 0.0105237 0.0026309
0.0441174 0.0106167 0.00176867
0.0396392 0.00942571 0.000839576
0.035914 0.00785686 7.96674e-05
0.0328621 0.00620215 -0.000419614
0.0305013 0.00464866 -0.000599875
0.0287504 0.00333021 -0.000523946
0.0274989 0.0023022 -0.000344752
0.026635 0.00154782 -0.000181133
0.0260584 0.00101608 -7.50059e-05
0.0256869 0.000651548 -2.02698e-05
0.0254567 0.000407558 2.37583e-06
0.02532 0.000248217 8.93424e-06
0.0252427 0.000146812 8.90225e-06
0.0252014 8.39725e-05 6.8875e-06
0.0251811 4.60922e-05 4.7515e-06
0.0251724 2.39251e-05 3.06708e-06
0.0251698 1.13871e-05 1.89415e-06
0.0251699 4.58947e-06 1.13228e-06
0.0251713 1.11359e-06 6.59334e-07
0.025173 -5.05533e-07 3.75198e-07
0.0251745 -1.1313e-06 2.08863e-07
0.0251759 -1.25756e-06 1.13638e-07
0.025177 -1.15693e-06 6.02387e-08
0.0251778 -9.73177e-07 3.09116e-08
0.0251784 -7.77235e-07 1.51666e-08
0.0251789 -6.004e-07 6.93905e-09
0.0251793 -4.53389e-07 2.78924e-09
0.0251795 -3.36971e-07 8.01723e-10
0.0251797 -2.47692e-07 -7.05802e-11
0.0251798 -1.80788e-07 -3.88663e-10
0.0251799 -1.3157e-07 -4.47034e-10
0.02518 -9.60048e-08 -4.00341e-10
0.02518 -7.08871e-08 -3.36102e-10
0.0251801 -5.38476e-08 -3.06172e-10
0.0251801 -4.3328e-08 -3.52541e-10
0.0251801 -3.8662e-08 -4.68303e-10
0.0251801 -4.01468e-08 -2.45995e-10
0.0251802 -5.12772e-08 9.02853e-10
0.0251802 -8.54867e-08 4.99991e-09
0.0251803 -1.64002e-07 2.0846e-09
0.0251805 -3.20082e-07 -7.75586e-08
0.0251806 -4.23133e-07 -1.51068e-07
0.0148 -9.67727e-07 -1.73945e-06
0.0148023 -0.00527505 -0.00109454
0.0202464 -0.0162357 -0.00238093
0.0270629 -0.0282441 -0.00405896
0.0315466 -0.0451017 -0.00562786
0.030056 -0.0278377 -0.00116763
0.0264969 -1.20183e-05 0.00314943
0.0261002 0.00722929 0.00321686
0.0300079 0.0148807 0.00304516
0.0304799 0.0144745 0.00208793
0.029603 0.0127445 0.00109709
0.0286299 0.0108274 0.000238221
0.0278487 0.0086343 -0.000297244
0.0274845 0.00640239 -0.000484286
0.0274065 0.0044875 -0.000416521
0.0274586 0.0030249 -0.000256102
0.027542 0.00198559 -0.000112812
0.0276157 0.00127541 -2.32293e-05
0.0276733 0.000800116 1.83669e-05
0.0277191 0.000487809 3.02355e-05
0.0277574 0.000287417 2.81535e-05
0.0277895 0.000162568 2.16046e-05
0.0278158 8.73366e-05 1.49812e-05
0.0278367 4.36437e-05 9.75663e-06
0.0278526 1.93193e-05 6.08712e-06
0.0278644 6.47969e-06 3.67899e-06
0.0278728 2.01431e-07 2.16816e-06
0.0278789 -2.48525e-06 1.25065e-06
0.0278831 -3.31122e-06 7.07431e-07
0.027886 -3.249e-06 3.92562e-07
0.027888 -2.82182e-06 2.13453e-07
0.0278893 -2.29547e-06 1.13372e-07
0.0278903 -1.79346e-06 5.84594e-08
0.0278909 -1.36411e-06 2.89314e-08
0.0278914 -1.01829e-06 1.34335e-08
0.0278917 -7.50041e-07 5.55509e-09
0.0278919 -5.47199e-07 1.73297e-09
0.027892 -3.96621e-07 1.81192e-11
0.0278921 -2.86442e-07 -6.36515e-10
0.0278922 -2.0685e-07 -7.8209e-10
0.0278923 -1.50176e-07 -7.03676e-10
0.0278923 -1.10688e-07 -5.4974e-10
0.0278923 -8.43636e-08 -3.91454e-10
0.0278923 -6.86928e-08 -2.24971e-10
0.0278924 -6.28853e-08 4.78741e-11
0.0278924 -6.92374e-08 7.3504e-10
0.0278924 -9.33185e-08 1.56298e-09
0.0278925 -1.42634e-07 1.1841e-09
0.0278925 -2.24176e-07 -1.6533e-08
0.0278925 -3.38105e-07 -1.17097e-07
0.0278925 -4.02512e-07 -2.00669e-07
0.018 -1.96558e-06 -1.73129e-06
0.0180028 -0.00684991 -0.00188613
0.0205917 -0.018458 -0.00489516
0.0204467 -0.0241693 -0.00634033
0.0159393 -0.0263316 -0.00751616
-1.54169e-06 -0.0137799 -0.00418594
9.88759e-05 2.82416e-05 8.79565e-07
-3.50146e-05 3.65451e-05 0.000588345
0.00683078 0.00441173 0.00125982
0.0141575 0.0101192 0.00118411
0.0176128 0.0111076 0.000754743
0.0192704 0.00994637 0.000196657
0.0209331 0.00787997 -0.000233811
0.0226765 0.00558308 -0.000381093
0.0242754 0.00369332 -0.000325955
0.0255991 0.00234433 -0.000195885
0.0266023 0.00145556 -7.33538e-05
0.0273089 0.000888731 6.78273e-06
0.0277835 0.000528151 4.29572e-05
0.0280953 0.000299673 4.9469e-05
0.0282987 0.000158326 4.19288e-05
0.028431 7.46698e-05 3.06693e-05
0.0285165 2.80793e-05 2.05382e-05
0.0285714 4.15765e-06 1.29689e-05
0.0286062 -6.68317e-06 7.85071e-06
0.028628 -1.04629e-05 4.60014e-06
0.0286416 -1.07443e-05 2.62347e-06
0.02865 -9.51467e-06 1.46001e-06
0.0286551 -7.81101e-06 7.9303e-07
0.0286583 -6.12788e-06 4.19372e-07
0.0286602 -4.66717e-06 2.14573e-07
0.0286614 -3.48311e-06 1.04872e-07
0.0286622 -2.56222e-06 4.76624e-08
0.0286626 -1.86522e-06 1.8847e-08
0.0286629 -1.34752e-06 5.0527e-09
0.0286631 -9.68162e-07 -1.00921e-09
0.0286632 -6.9297e-07 -3.23561e-09
0.0286633 -4.94935e-07 -3.66345e-09
0.0286633 -3.5343e-07 -3.32659e-09
0.0286634 -2.53089e-07 -2.72877e-09
0.0286634 -1.82705e-07 -2.1033e-09
0.0286634 -1.34307e-07 -1.54874e-09
0.0286634 -1.02474e-07 -1.09403e-09
0.0286634 -8.40655e-08 -7.6071e-10
0.0286634 -7.79274e-08 -6.32111e-10
0.0286634 -8.40158e-08 -1.02667e-09
0.0286634 -1.02138e-07 -3.26299e-09
0.0286634 -1.30046e-07 -9.30577e-09
0.0286634 -1.66237e-07 -3.78458e-08
0.0286634 -2.07965e-07 -1.44062e-07
0.0286632 -2.29427e-07 -2.25961e-07
0.0196 -2.76457e-06 -2.62919e-06
0.0196009 -0.00567079 -0.00273805
0.0190869 -0.0126803 -0.00643076
0.016066 -0.0155516 -0.00668674
0.0110953 -0.0144825 -0.00670291
0.00188714 -0.00594323 -0.00492706
7.41e-05 -6.80939e-05 -0.00121564
3.30794e-05 -3.30794e-05 -3.99089e-08
-3.42861e-05 3.57431e-05 0.000209358
0.00431082 0.0032105 0.000436972
0.00996204 0.00749673 0.00036428
0.0128502 0.00767259 3.98354e-05
0.0160808 0.00556251 -0.000297543
0.019234 0.00339904 -0.000405923
0.0219581 0.00181495 -0.000367012
0.0241515 0.000837675 -0.000258728
0.0257899 0.000325377 -0.0001326
0.0269212 8.88509e-05 -3.21117e-05
0.0276556 -1.48394e-05 2.34375e-05
0.0281151 -5.90369e-05 4.12523e-05
0.028397 -7.404e-05 3.84608e-05
0.0285678 -7.32475e-05 2.87224e-05
0.0286701 -6.44612e-05 1.90278e-05
0.0287305 -5.27551e-05 1.16843e-05
0.0287657 -4.11234e-05 6.80212e-06
0.0287858 -3.10013e-05 3.79894e-06
0.0287972 -2.28361e-05 2.04606e-06
0.0288035 -1.65557e-05 1.06254e-06
0.0288069 -1.18729e-05 5.28684e-07
0.0288087 -8.45263e-06 2.47903e-07
0.0288097 -5.98881e-06 1.0526e-07
0.0288101 -4.2301e-06 3.59455e-08
0.0288103 -2.98221e-06 4.44469e-09
0.0288104 -2.1002e-06 -8.22146e-09
0.0288104 -1.47835e-06 -1.19478e-08
0.0288104 -1.04064e-06 -1.17505e-08
0.0288104 -7.32918e-07 -1.00812e-08
0.0288104 -5.16861e-07 -8.07516e-09
0.0288104 -3.6545e-07 -6.21059e-09
0.0288104 -2.5972e-07 -4.65201e-09
0.0288104 -1.86428e-07 -3.42996e-09
0.0288104 -1.36439e-07 -2.53941e-09
0.0288104 -1.03558e-07 -1.99513e-09
0.0288104 -8.35107e-08 -1.92796e-09
0.0288103 -7.29738e-08 -2.64175e-09
0.0288103 -6.87019e-08 -4.54481e-09
0.0288103 -6.71635e-08 -8.92464e-09
0.0288103 -6.30566e-08 -1.70958e-08
0.0288102 -4.87841e-08 -4.78256e-08
0.0288101 -1.82875e-08 -1.52121e-07
0.02881 1.50163e-09 -2.30806e-07
0.0196 -1.31871e-06 -3.6018e-06
0.0196 -0.00354495 -0.00309858
0.0188884 -0.00766572 -0.00646581
0.017646 -0.00750452 -0.00612403
0.0134603 -0.00368372 -0.0056331
0.00941009 0.00295197 -0.00515936
0.0062538 0.00325326 -0.0028502
7.42151e-05 -6.19728e-05 -0.000570911
2.76868e-05 -2.76868e-05 -1.29506e-07
-3.3568e-05 3.50042e-05 6.85775e-05
0.00319096 0.00251184 0.000335431
0.0077796 0.00394472 0.000307197
0.0131593 0.00177764 -4.9832e-05
0.0177946 3.05655e-05 -0.000242927
0.0213628 -0.000936713 -0.000327793
0.0240008 -0.00128294 -0.000321501
0.0258572 -0.00120478 -0.000233668
0.0270659 -0.000943211 -0.000121234
0.0277935 -0.000674358 -3.80846e-05
0.0282068 -0.00046493 2.8512e-06
0.0284326 -0.000317012 1.49266e-05
0.0285525 -0.000215181 1.4093e-05
0.0286142 -0.000145373 9.82555e-06
0.0286448 -9.77169e-05 5.90775e-06
0.0286591 -6.54283e-05 3.22321e-06
0.0286652 -4.37307e-05 1.62174e-06
0.0286673 -2.92428e-05 7.46947e-07
0.0286676 -1.9602e-05 3.01472e-07
0.0286671 -1.31894e-05 9.02063e-08
0.0286664 -8.91552e-06 -9.25819e-10
0.0286658 -6.05628e-06 -3.39802e-08
0.0286652 -4.13418e-06 -4.09187e-08
0.0286647 -2.83519e-06 -3.73932e-08
0.0286644 -1.95263e-06 -3.06393e-08
0.0286641 -1.34998e-06 -2.3735e-08
0.0286639 -9.36631e-07 -1.77992e-08
0.0286638 -6.52057e-07 -1.30848e-08
0.0286637 -4.55595e-07 -9.50095e-09
0.0286636 -3.19762e-07 -6.85124e-09
0.0286636 -2.25883e-07 -4.93796e-09
0.0286635 -1.61205e-07 -3.6091e-09
0.0286635 -1.16908e-07 -2.78793e-09
0.0286635 -8.66894e-08 -2.48701e-09
0.0286634 -6.57286e-08 -2.83235e-09
0.0286634 -4.98823e-08 -4.04247e-09
0.0286634 -3.49249e-08 -6.27949e-09
0.0286634 -1.59153e-08 -1.06833e-08
0.0286633 1.48282e-08 -1.83376e-08
0.0286633 7.26071e-08 -4.53703e-08
0.0286632 1.71137e-07 -1.42662e-07
0.0286631 2.31448e-07 -2.17582e-07
0.018 -8.54678e-07 -3.56217e-06
0.0180009 -0.00188859 -0.00302309
0.018378 -0.0035142 -0.0061203
0.0185408 -0.00211701 -0.00536381
0.0176575 0.00117923 -0.00436174
0.0174639 0.00740094 -0.0039438
0.018165 0.0126641 -0.00275252
0.0112028 0.00693291 -0.00129014
7.58223e-05 -4.81234e-05 -0.000382476
-2.65845e-05 -5.56952e-05 5.57986e-07
7.82551e-06 -0.000411714 0.000763983
0.0088115 -0.00238392 0.00116806
0.0165301 -0.00433813 0.000632617
0.0216223 -0.00454921 0.000335074
0.0246208 -0.00406655 7.72393e-05
0.02631 -0.00335011 -0.000145878
0.0272439 -0.00252086 -0.00023612
0.0277282 -0.00173119 -0.000200591
0.0279443 -0.00111366 -0.00012306
0.0280153 -0.000693467 -6.12191e-05
0.0280191 -0.000427448 -2.65597e-05
0.0279985 -0.000263446 -1.07013e-05
0.0279733 -0.000162918 -4.31322e-06
0.0279511 -0.000101269 -1.9092e-06
0.0279338 -6.33827e-05 -9.97906e-07
0.0279212 -4.00139e-05 -6.10348e-07
0.0279123 -2.55157e-05 -4.08156e-07
0.0279061 -1.64479e-05 -2.81296e-07
0.0279019 -1.07198e-05 -1.94008e-07
0.0278989 -7.06116e-06 -1.32604e-07
0.0278969 -4.69733e-06 -8.97422e-08
0.0278955 -3.15276e-06 -6.02786e-08
0.0278946 -2.13275e-06 -4.03128e-08
0.0278939 -1.45264e-06 -2.69263e-08
0.0278934 -9.95299e-07 -1.80106e-08
0.0278931 -6.85511e-07 -1.20913e-08
0.0278929 -4.74407e-07 -8.16433e-09
0.0278927 -3.29873e-07 -5.55909e-09
0.0278926 -2.30574e-07 -3.83642e-09
0.0278925 -1.62177e-07 -2.71809e-09
0.0278925 -1.14894e-07 -2.04423e-09
0.0278925 -8.18609e-08 -1.7469e-09
0.0278924 -5.80174e-08 -1.82501e-09
0.0278924 -3.92705e-08 -2.35108e-09
0.0278924 -2.17858e-08 -3.46321e-09
0.0278924 -1.1763e-09 -5.19302e-09
0.0278923 2.83569e-08 -8.48781e-09
0.0278923 7.57727e-08 -1.40621e-08
0.0278923 1.62797e-07 -3.2631e-08
0.0278923 3.10776e-07 -1.16179e-07
0.0278923 4.01336e-07 -1.84468e-07
0.0148 -4.82318e-07 -3.1439e-06
0.0148015 -0.000944502 -0.0027943
0.0163069 -0.0013591 -0.00540632
0.0180523 0.00042069 -0.00440886
0.0196306 0.0036317 -0.00328236
0.0215631 0.00756742 -0.002953
0.0253529 0.0129115 -0.00233378
0.0285913 0.0196187 -0.00136352
0.0234264 0.0114787 -0.000247647
0.0238424 2.6035e-10 0.000653686
0.0270752 -0.00668778 0.00157055
0.0309649 -0.0132051 0.00211925
0.0321448 -0.0113763 0.00175423
0.0315673 -0.00816295 0.00137456
0.0302535 -0.00550556 0.000819652
0.0288315 -0.00364539 0.000205622
0.0276337 -0.00234926 -0.000186328
0.0267619 -0.00144478 -0.000283065
0.0261776 -0.000850542 -0.000219493
0.0258022 -0.000489525 -0.000130049
0.0255661 -0.000281263 -6.67474e-05
0.0254194 -0.00016334 -3.1646e-05
0.025329 -9.63922e-05 -1.43895e-05
0.0252734 -5.79139e-05 -6.42277e-06
0.0252391 -3.54401e-05 -2.85666e-06
0.0252179 -2.208e-05 -1.27779e-06
0.0252046 -1.3991e-05 -5.76941e-07
0.0251962 -9.00314e-06 -2.62189e-07
0.0251907 -5.8735e-06 -1.18521e-07
0.0251872 -3.87793e-06 -5.19476e-08
0.0251849 -2.58693e-06 -2.08905e-08
0.0251834 -1.74101e-06 -6.56046e-09
0.0251824 -1.18056e-06 -2.33135e-10
0.0251817 -8.0567e-07 2.25698e-09
0.0251812 -5.52877e-07 2.94361e-09
0.0251809 -3.81255e-07 2.83013e-09
0.0251806 -2.64092e-07 2.40742e-09
0.0251805 -1.83737e-07 1.90627e-09
0.0251804 -1.28391e-07 1.42395e-09
0.0251803 -9.00535e-08 9.88577e-10
0.0251802 -6.31762e-08 5.89991e-10
0.0251802 -4.37585e-08 1.92964e-10
0.0251802 -2.86886e-08 -2.53599e-10
0.0251802 -1.52064e-08 -8.27478e-10
0.0251801 -4.17068e-10 -1.63123e-09
0.0251801 1.93429e-08 -2.64035e-09
0.0251801 4.95855e-08 -4.36433e-09
0.0251801 9.81296e-08 -7.16157e-09
0.0251802 1.84467e-07 -1.69319e-08
0.0251803 3.29158e-07 -8.23051e-08
0.0251804 4.17497e-07 -1.39537e-07
0.01 -9.25901e-07 -2.82826e-06
0.0100008 -0.000584221 -0.00228544
0.0114302 -0.000562198 -0.00416906
0.0135464 0.000771661 -0.00306124
0.0163161 0.00272968 -0.00203168