# vtk DataFile Version 2.0
Tobias Weinzierl: CPU, Manycore and Cluster Computing
ASCII

DATASET STRUCTURED_POINTS
DIMENSIONS  51 11 6

ORIGIN 0 0 0 

SPACING 0.1 0.1 0.1 

POINT_DATA 3366

VECTORS velocity float
0 0 0
-3.16285e-14 0 0
2.74466e-10 0 0
8.73299e-10 0 0
-2.99186e-09 0 0
3.37817e-09 0 0
4.83299e-09 0 0
4.61034e-09 0 0
4.54192e-09 0 0
4.67788e-09 0 0
4.48245e-09 0 0
3.88717e-09 0 0
3.06611e-09 0 0
1.85439e-09 0 0
3.97909e-11 0 0
-2.00334e-09 0 0
-3.60957e-09 0 0
-4.52221e-09 0 0
-5.02239e-09 0 0
-5.5315e-09 0 0
-6.27057e-09 0 0
-7.21521e-09 0 0
-8.21902e-09 0 0
-9.13758e-09 0 0
-9.8863e-09 0 0
-1.04428e-08 0 0
-1.08252e-08 0 0
-1.10694e-08 0 0
-1.12135e-08 0 0
-1.12902e-08 0 0
-1.13245e-08 0 0
-1.13339e-08 0 0
-1.13302e-08 0 0
-1.13204e-08 0 0
-1.13088e-08 0 0
-1.12976e-08 0 0
-1.12879e-08 0 0
-1.128e-08 0 0
-1.12738e-08 0 0
-1.1269e-08 0 0
-1.12655e-08 0 0
-1.1263e-08 0 0
-1.12612e-08 0 0
-1.12599e-08 0 0
-1.1259e-08 0 0
-1.12585e-08 0 0
-1.12581e-08 0 0
-1.1258e-08 0 0
-1.12581e-08 0 0
-1.12585e-08 0 0
0.00192516 0 0
0 3.86604e-07 0
-4.75729e-13 -5.44763e-10 0
3.81989e-10 -1.94303e-09 0
2.54105e-09 -6.04402e-10 0
-9.74917e-10 -3.31388e-09 0
1.00681e-08 -4.38477e-09 0
1.20224e-08 3.57273e-10 0
1.17514e-08 5.50861e-10 0
1.26346e-08 -8.14397e-10 0
1.38754e-08 -1.72606e-09 0
1.40938e-08 -2.10944e-09 0
1.30405e-08 -1.8857e-09 0
1.07853e-08 -4.7361e-10 0
7.33768e-09 1.78782e-09 0
3.04561e-09 3.44135e-09 0
-1.08417e-09 3.52725e-09 0
-4.17021e-09 2.48476e-09 0
-6.26873e-09 1.37041e-09 0
-8.14783e-09 8.17759e-10 0
-1.04937e-08 8.02089e-10 0
-1.34659e-08 9.98578e-10 0
-1.67781e-08 1.1382e-09 0
-1.99958e-08 1.12267e-09 0
-2.27734e-08 9.76787e-10 0
-2.49459e-08 7.67789e-10 0
-2.65074e-08 5.54415e-10 0
-2.75472e-08 3.70701e-10 0
-2.81885e-08 2.28951e-10 0
-2.85503e-08 1.28202e-10 0
-2.87295e-08 6.1507e-11 0
-2.87979e-08 2.04367e-11 0
-2.88041e-08 -2.70672e-12 0
-2.87796e-08 -1.40883e-11 0
-2.8743e-08 -1.82543e-11 0
-2.87047e-08 -1.83469e-11 0
-2.867e-08 -1.64111e-11 0
-2.86409e-08 -1.36945e-11 0
-2.86176e-08 -1.08993e-11 0
-2.85996e-08 -8.3756e-12 0
-2.85862e-08 -6.26081e-12 0
-2.85762e-08 -4.57288e-12 0
-2.85691e-08 -3.27027e-12 0
-2.8564e-08 -2.28781e-12 0
-2.85605e-08 -1.55598e-12 0
-2.85581e-08 -1.00941e-12 0
-2.85566e-08 -5.90413e-13 0
-2.85557e-08 -2.40766e-13 0
-2.85554e-08 1.13253e-13 0
-2.85558e-08 6.90859e-13 0
-2.85572e-08 2.10439e-12 0
0.00553589 -2.09934e-08 0
0 -2.00396e-08 0
-1.05261e-13 -6.64398e-10 0
1.24257e-09 -3.98423e-09 0
6.29278e-09 -7.4114e-09 0
9.65566e-09 -1.32474e-08 0
1.77417e-08 -1.02254e-08 0
1.43299e-08 -6.97182e-10 0
1.38742e-08 -8.61502e-10 0
1.5688e-08 -4.398e-09 0
1.81154e-08 -8.15986e-09 0
1.73236e-08 -1.13372e-08 0
1.43014e-08 -1.20437e-08 0
1.08148e-08 -8.71145e-09 0
6.68104e-09 -2.93709e-09 0
2.07709e-09 2.37819e-09 0
-2.13091e-09 5.92013e-09 0
-5.24623e-09 7.88082e-09 0
-7.39056e-09 8.72421e-09 0
-9.24495e-09 8.76897e-09 0
-1.14351e-08 8.24703e-09 0
-1.41725e-08 7.3383e-09 0
-1.72564e-08 6.18638e-09 0
-2.02887e-08 4.92921e-09 0
-2.29105e-08 3.7032e-09 0
-2.49298e-08 2.61852e-09 0
-2.63276e-08 1.73743e-09 0
-2.71958e-08 1.07343e-09 0
-2.76688e-08 6.05702e-10 0
-2.78767e-08 2.96851e-10 0
-2.79239e-08 1.06432e-10 0
-2.78848e-08 -1.47225e-12 0
-2.78072e-08 -5.53479e-11 0
-2.77195e-08 -7.60856e-11 0
-2.76367e-08 -7.80572e-11 0
-2.75655e-08 -7.05823e-11 0
-2.75077e-08 -5.93358e-11 0
-2.74626e-08 -4.75167e-11 0
-2.74284e-08 -3.67344e-11 0
-2.74031e-08 -2.76398e-11 0
-2.73847e-08 -2.03472e-11 0
-2.73715e-08 -1.47029e-11 0
-2.73622e-08 -1.04435e-11 0
-2.73557e-08 -7.28373e-12 0
-2.73512e-08 -4.95927e-12 0
-2.73482e-08 -3.23838e-12 0
-2.73463e-08 -1.9181e-12 0
-2.73453e-08 -7.814e-13 0
-2.73451e-08 4.97829e-13 0
-2.73456e-08 2.31188e-12 0
-2.73471e-08 5.04297e-12 0
0.00796466 -5.00414e-08 0
0 -6.40121e-07 0
1.51768e-12 -2.10042e-09 0
2.57506e-09 -7.49407e-09 0
8.91822e-09 -1.43202e-08 0
1.11114e-08 -1.99854e-08 0
1.10518e-08 -1.10635e-08 0
7.14156e-09 -6.11266e-12 0
6.7331e-09 -1.35751e-09 0
5.46415e-09 -6.85752e-09 0
4.83217e-09 -1.45492e-08 0
3.89063e-09 -2.0307e-08 0
1.56573e-09 -2.24633e-08 0
-5.34254e-10 -1.95347e-08 0
-4.06085e-09 -1.21046e-08 0
-9.00983e-09 -2.38865e-09 0
-1.39938e-08 7.19229e-09 0
-1.74558e-08 1.41168e-08 0
-1.86264e-08 1.70392e-08 0
-1.77882e-08 1.65111e-08 0
-1.5944e-08 1.40932e-08 0
-1.41476e-08 1.11358e-08 0
-1.29747e-08 8.33954e-09 0
-1.24531e-08 5.94216e-09 0
-1.23208e-08 3.99188e-09 0
-1.23007e-08 2.48109e-09 0
-1.22306e-08 1.37628e-09 0
-1.20647e-08 6.21221e-10 0
-1.18239e-08 1.45028e-10 0
-1.15503e-08 -1.25458e-10 0
-1.12811e-08 -2.55411e-10 0
-1.10401e-08 -2.96803e-10 0
-1.08379e-08 -2.8758e-10 0
-1.06763e-08 -2.53367e-10 0
-1.05519e-08 -2.10169e-10 0
-1.04587e-08 -1.67104e-10 0
-1.03905e-08 -1.28711e-10 0
-1.03414e-08 -9.67092e-11 0
-1.03066e-08 -7.12252e-11 0
-1.02821e-08 -5.15949e-11 0
-1.02652e-08 -3.68494e-11 0
-1.02535e-08 -2.59845e-11 0
-1.02455e-08 -1.80927e-11 0
-1.02401e-08 -1.24118e-11 0
-1.02365e-08 -8.32731e-12 0
-1.02342e-08 -5.34711e-12 0
-1.02327e-08 -3.05426e-12 0
-1.0232e-08 -1.06588e-12 0
-1.02317e-08 9.64063e-13 0
-1.02316e-08 3.23357e-12 0
-1.02318e-08 5.63257e-12 0
0.00900641 -5.48824e-08 0
0 -1.25463e-06 0
2.95144e-13 -4.10496e-09 0
9.05226e-10 -1.14646e-08 0
3.34542e-09 -1.51839e-08 0
2.65538e-09 -1.23265e-08 0
-9.93987e-13 -4.50518e-09 0
-2.26411e-11 -2.9428e-11 0
2.68028e-11 -2.75874e-11 0
-2.13109e-09 -4.80339e-09 0
-1.0813e-08 -1.62468e-08 0
-1.53714e-08 -2.71655e-08 0
-1.47063e-08 -3.23465e-08 0
-1.53452e-08 -2.90449e-08 0
-1.84859e-08 -1.76271e-08 0
-2.28099e-08 -2.56269e-09 0
-2.67278e-08 1.12501e-08 0
-2.89012e-08 1.97296e-08 0
-2.83043e-08 2.16215e-08 0
-2.47192e-08 1.87121e-08 0
-1.911e-08 1.38773e-08 0
-1.30693e-08 9.1966e-09 0
-7.86226e-09 5.497e-09 0
-3.97455e-09 2.83473e-09 0
-1.28702e-09 1.02003e-09 0
5.43899e-10 -1.43594e-10 0
1.83043e-09 -8.1589e-10 0
2.77501e-09 -1.13124e-09 0
3.48875e-09 -1.20545e-09 0
4.03115e-09 -1.13364e-09 0
4.43881e-09 -9.87406e-10 0
4.73936e-09 -8.15455e-10 0
4.95622e-09 -6.47316e-10 0
5.10949e-09 -4.98312e-10 0
5.21582e-09 -3.74336e-10 0
5.28844e-09 -2.75672e-10 0
5.33737e-09 -1.99721e-10 0
5.36999e-09 -1.4274e-10 0
5.39155e-09 -1.00851e-10 0
5.40571e-09 -7.0556e-11 0
5.41496e-09 -4.89283e-11 0
5.42097e-09 -3.36441e-11 0
5.42487e-09 -2.29194e-11 0
5.42738e-09 -1.54165e-11 0
5.42898e-09 -1.01431e-11 0
5.42998e-09 -6.36028e-12 0
5.43061e-09 -3.522e-12 0
5.43111e-09 -1.25199e-12 0
5.43174e-09 6.50268e-13 0
5.4327e-09 2.24594e-12 0
5.4335e-09 3.56317e-12 0
0.00940317 -3.13561e-08 0
0 -1.13661e-06 0
-2.52692e-12 -4.27968e-09 0
-1.80895e-09 -9.67463e-09 0
-2.02401e-09 -1.1769e-08 0
-3.8414e-09 -1.1667e-08 0
-2.90057e-09 -5.29385e-09 0
-2.43447e-11 2.32613e-11 0
3.54284e-12 -3.54284e-12 0
2.62381e-11 -2.73673e-11 0
-6.72731e-09 -8.61188e-09 0
-2.1469e-08 -2.67083e-08 0
-2.49107e-08 -3.70533e-08 0
-2.7186e-08 -3.2537e-08 0
-2.92772e-08 -1.87397e-08 0
-3.02778e-08 -1.68105e-09 0
-3.02538e-08 1.30489e-08 0
-2.95025e-08 2.11405e-08 0
-2.74277e-08 2.15778e-08 0
-2.30828e-08 1.67642e-08 0
-1.65943e-08 1.02703e-08 0
-9.31595e-09 4.59071e-09 0
-2.76262e-09 6.01479e-10 0
2.25302e-09 -1.80744e-09 0
5.68154e-09 -3.0416e-09 0
7.86737e-09 -3.48149e-09 0
9.21429e-09 -3.41879e-09 0
1.0036e-08 -3.06998e-09 0
1.0537e-08 -2.59151e-09 0
1.08416e-08 -2.08852e-09 0
1.10245e-08 -1.62333e-09 0
1.11315e-08 -1.22589e-09 0
1.11915e-08 -9.04512e-10 0
1.12232e-08 -6.54948e-10 0
1.12382e-08 -4.67042e-10 0
1.1244e-08 -3.28917e-10 0
1.12449e-08 -2.29287e-10 0
1.12435e-08 -1.58491e-10 0
1.12414e-08 -1.0878e-10 0
1.12391e-08 -7.42016e-11 0
1.1237e-08 -5.03244e-11 0
1.12353e-08 -3.39251e-11 0
1.1234e-08 -2.26964e-11 0
1.1233e-08 -1.50057e-11 0
1.12323e-08 -9.70849e-12 0
1.12319e-08 -6.01892e-12 0
1.12317e-08 -3.42572e-12 0
1.12319e-08 -1.62245e-12 0
1.12326e-08 -4.38775e-13 0
1.12338e-08 1.65029e-13 0
1.12347e-08 3.31282e-13 0
0.00950137 6.97926e-09 0
0 -7.83446e-07 0
-1.48866e-12 -2.52436e-09 0
-1.84991e-09 -6.42753e-09 0
-1.68312e-09 -8.45794e-09 0
-5.11115e-09 -8.80414e-09 0
-7.09851e-09 -6.18807e-09 0
-3.27243e-09 -1.93835e-09 0
-2.31451e-11 2.33775e-11 0
2.86203e-12 -2.86203e-12 0
2.5382e-11 -2.70947e-11 0
-9.91926e-09 -1.53772e-08 0
-2.19244e-08 -3.32444e-08 0
-2.90364e-08 -3.00795e-08 0
-3.18524e-08 -1.60113e-08 0
-3.0956e-08 2.88868e-10 0
-2.73108e-08 1.32083e-08 0
-2.29094e-08 1.9336e-08 0
-1.88185e-08 1.82594e-08 0
-1.44771e-08 1.24921e-08 0
-9.29668e-09 5.56156e-09 0
-3.77327e-09 -9.15251e-11 0
1.04105e-09 -3.67715e-09 0
4.45274e-09 -5.43005e-09 0
6.40866e-09 -5.89325e-09 0
7.25359e-09 -5.56978e-09 0
7.41525e-09 -4.83886e-09 0
7.23342e-09 -3.96154e-09 0
6.92303e-09 -3.10091e-09 0
6.59893e-09 -2.34385e-09 0
6.3123e-09 -1.72359e-09 0
6.07932e-09 -1.24037e-09 0
5.8993e-09 -8.77616e-10 0
5.76476e-09 -6.12777e-10 0
5.66651e-09 -4.23455e-10 0
5.59596e-09 -2.90262e-10 0
5.54593e-09 -1.97689e-10 0
5.51078e-09 -1.33937e-10 0
5.48627e-09 -9.03405e-11 0
5.46929e-09 -6.06838e-11 0
5.45758e-09 -4.05891e-11 0
5.44955e-09 -2.70097e-11 0
5.44408e-09 -1.78461e-11 0
5.4404e-09 -1.16654e-11 0
5.43799e-09 -7.50446e-12 0
5.4365e-09 -4.7301e-12 0
5.43572e-09 -2.9378e-12 0
5.4355e-09 -1.88628e-12 0
5.43581e-09 -1.46817e-12 0
5.43649e-09 -1.77408e-12 0
5.43699e-09 -2.80586e-12 0
0.00940315 4.25309e-08 0
0 -5.49055e-07 0
3.35012e-13 -1.63943e-09 0
-6.85111e-10 -4.40747e-09 0
-1.03667e-09 -6.39915e-09 0
-4.14733e-09 -6.42561e-09 0
-8.80692e-09 -3.52882e-09 0
-9.44388e-09 -4.28867e-10 0
-5.69544e-09 3.05375e-10 0
-2.57174e-11 2.10374e-11 0
2.55401e-11 1.68487e-11 0
3.61074e-12 -8.52398e-09 0
-1.32825e-08 -2.05755e-08 0
-2.69281e-08 -1.90135e-08 0
-3.42588e-08 -6.63424e-09 0
-3.3563e-08 5.87372e-09 0
-2.61722e-08 1.31648e-08 0
-1.67316e-08 1.44239e-08 0
-9.49354e-09 1.09858e-08 0
-5.39216e-09 5.32865e-09 0
-3.20348e-09 -4.36009e-11 0
-1.88286e-09 -3.72972e-09 0
-1.2372e-09 -5.56225e-09 0
-1.36652e-09 -6.00826e-09 0
-2.1946e-09 -5.62365e-09 0
-3.45028e-09 -4.83456e-09 0
-4.83111e-09 -3.91847e-09 0
-6.11875e-09 -3.03843e-09 0
-7.20313e-09 -2.27651e-09 0
-8.05649e-09 -1.6607e-09 0
-8.69745e-09 -1.18682e-09 0
-9.16345e-09 -8.35006e-10 0
-9.49459e-09 -5.80592e-10 0
-9.72616e-09 -4.00115e-10 0
-9.8863e-09 -2.73862e-10 0
-9.99619e-09 -1.86432e-10 0
-1.00712e-08 -1.26337e-10 0
-1.01222e-08 -8.52618e-11 0
-1.01568e-08 -5.73099e-11 0
-1.01802e-08 -3.83571e-11 0
-1.0196e-08 -2.55462e-11 0
-1.02066e-08 -1.69126e-11 0
-1.02137e-08 -1.11156e-11 0
-1.02184e-08 -7.24836e-12 0
-1.02215e-08 -4.70405e-12 0
-1.02234e-08 -3.08529e-12 0
-1.02246e-08 -2.14636e-12 0
-1.02252e-08 -1.76662e-12 0
-1.02254e-08 -1.95561e-12 0
-1.02254e-08 -2.931e-12 0
-1.02258e-08 -4.84759e-12 0
0.00900639 5.89283e-08 0
0 -4.65469e-07 0
3.37279e-13 -8.54775e-10 0
7.14416e-11 -2.43836e-09 0
-1.01345e-09 -3.78757e-09 0
-5.3108e-09 -4.06478e-09 0
-1.14706e-08 -1.14354e-09 0
-1.40771e-08 2.3185e-09 0
-1.31596e-08 -1.56676e-09 0
-8.5789e-09 -3.16807e-09 0
-6.92763e-09 1.89318e-14 0
-6.03077e-09 -4.73614e-09 0
-1.66839e-08 -9.35455e-09 0
-3.19665e-08 -5.19418e-09 0
-3.9485e-08 3.26447e-09 0
-3.49083e-08 9.48475e-09 0
-2.22619e-08 1.03636e-08 0
-9.76157e-09 6.99188e-09 0
-3.32076e-09 1.97834e-09 0
-3.22679e-09 -2.26024e-09 0
-6.4268e-09 -4.48427e-09 0
-1.01941e-08 -4.85363e-09 0
-1.34422e-08 -4.22433e-09 0
-1.612e-08 -3.34256e-09 0
-1.84074e-08 -2.56233e-09 0
-2.0394e-08 -1.95788e-09 0
-2.20826e-08 -1.49852e-09 0
-2.34608e-08 -1.14276e-09 0
-2.4539e-08 -8.63103e-10 0
-2.5352e-08 -6.4348e-10 0
-2.59476e-08 -4.73156e-10 0
-2.63745e-08 -3.4333e-10 0
-2.66755e-08 -2.46112e-10 0
-2.68853e-08 -1.74492e-10 0
-2.70304e-08 -1.22487e-10 0
-2.713e-08 -8.51981e-11 0
-2.71981e-08 -5.8758e-11 0
-2.72446e-08 -4.01947e-11 0
-2.72761e-08 -2.72772e-11 0
-2.72974e-08 -1.83619e-11 0
-2.73118e-08 -1.2257e-11 0
-2.73214e-08 -8.11084e-12 0
-2.73278e-08 -5.32364e-12 0
-2.73321e-08 -3.47901e-12 0
-2.73349e-08 -2.29527e-12 0
-2.73367e-08 -1.59294e-12 0
-2.73379e-08 -1.27399e-12 0
-2.73387e-08 -1.31591e-12 0
-2.73394e-08 -1.77179e-12 0
-2.73402e-08 -2.8062e-12 0
-2.73418e-08 -4.57731e-12 0
0.00796467 4.70274e-08 0
0 -4.79804e-07 0
1.22064e-12 -1.08062e-10 0
4.83343e-10 -4.80814e-10 0
-1.11945e-09 -9.67986e-10 0
-6.19246e-09 -1.15351e-09 0
-1.32433e-08 -8.25084e-10 0
-1.67177e-08 6.76428e-10 0
-1.58837e-08 -2.2593e-11 0
-1.84769e-08 -1.54967e-09 0
-1.70826e-08 -7.26069e-10 0
-1.50876e-08 2.21067e-10 0
-1.92879e-08 2.16869e-09 0
-2.48356e-08 4.25094e-09 0
-2.56081e-08 4.74432e-09 0
-1.91488e-08 3.84429e-09 0
-9.24174e-09 1.87414e-09 0
-2.22788e-09 -5.77284e-10 0
-1.54428e-09 -2.48972e-09 0
-5.86316e-09 -3.13134e-09 0
-1.17459e-08 -2.64479e-09 0
-1.67422e-08 -1.71213e-09 0
-2.01773e-08 -9.04162e-10 0
-2.23751e-08 -4.20959e-10 0
-2.38382e-08 -2.09157e-10 0
-2.4908e-08 -1.4664e-10 0
-2.57499e-08 -1.39863e-10 0
-2.64289e-08 -1.41307e-10 0
-2.69716e-08 -1.35128e-10 0
-2.73956e-08 -1.20466e-10 0
-2.77188e-08 -1.01103e-10 0
-2.79595e-08 -8.08687e-11 0
-2.81354e-08 -6.22779e-11 0
-2.8262e-08 -4.65344e-11 0
-2.83518e-08 -3.39292e-11 0
-2.84149e-08 -2.42401e-11 0
-2.84588e-08 -1.70195e-11 0
-2.84891e-08 -1.17679e-11 0
-2.85098e-08 -8.02319e-12 0
-2.85239e-08 -5.39739e-12 0
-2.85334e-08 -3.58368e-12 0
-2.85398e-08 -2.34957e-12 0
-2.8544e-08 -1.52499e-12 0
-2.85468e-08 -9.8976e-13 0
-2.85487e-08 -6.63374e-13 0
-2.85499e-08 -4.98176e-13 0
-2.85508e-08 -4.72325e-13 0
-2.85516e-08 -5.89107e-13 0
-2.85524e-08 -8.56486e-13 0
-2.85536e-08 -1.26334e-12 0
-2.85557e-08 -1.91373e-12 0
0.00553592 1.69333e-08 0
0 0 0
1.06381e-12 0 0
3.02546e-10 0 0
-5.35797e-10 0 0
-2.94198e-09 0 0
-6.38063e-09 0 0
-8.81264e-09 0 0
-8.41969e-09 0 0
-9.90035e-09 0 0
-1.01548e-08 0 0
-9.05326e-09 0 0
-7.74882e-09 0 0
-6.23146e-09 0 0
-4.57938e-09 0 0
-2.39642e-09 0 0
-3.11081e-10 0 0
3.39859e-10 0 0
-1.00431e-09 0 0
-3.58364e-09 0 0
-6.18138e-09 0 0
-8.07481e-09 0 0
-9.19483e-09 0 0
-9.78792e-09 0 0
-1.01116e-08 0 0
-1.03248e-08 0 0
-1.04974e-08 0 0
-1.06502e-08 0 0
-1.07848e-08 0 0
-1.0899e-08 0 0
-1.09917e-08 0 0
-1.10643e-08 0 0
-1.11194e-08 0 0
-1.11601e-08 0 0
-1.11897e-08 0 0
-1.12107e-08 0 0
-1.12255e-08 0 0
-1.12357e-08 0 0
-1.12428e-08 0 0
-1.12475e-08 0 0
-1.12508e-08 0 0
-1.12529e-08 0 0
-1.12543e-08 0 0
-1.12552e-08 0 0
-1.12559e-08 0 0
-1.12563e-08 0 0
-1.12566e-08 0 0
-1.12569e-08 0 0
-1.12573e-08 0 0
-1.12579e-08 0 0
-1.12589e-08 0 0
0.00192518 0 0
0 0 5.36516e-07
-4.38608e-13 0 2.7044e-10
-3.45273e-10 0 1.06984e-09
1.98954e-09 0 3.87087e-09
-1.06724e-08 0 8.09142e-10
5.44445e-09 0 -3.43995e-09
1.05394e-08 0 -1.58931e-09
1.12492e-08 0 -2.59659e-10
1.12514e-08 0 7.46989e-10
1.18427e-08 0 1.78565e-09
1.35191e-08 0 2.90027e-09
1.62451e-08 0 3.30216e-09
1.89475e-08 0 2.50651e-09
1.96955e-08 0 1.23862e-09
1.70197e-08 0 4.16501e-10
1.15332e-08 0 1.22226e-10
5.25973e-09 0 3.4237e-11
-3.04899e-10 0 4.25273e-11
-4.99422e-09 0 1.91642e-10
-9.31199e-09 0 4.4621e-10
-1.35974e-08 0 6.85243e-10
-1.77823e-08 0 8.10356e-10
-2.15837e-08 0 7.99815e-10
-2.47507e-08 0 6.90599e-10
-2.71803e-08 0 5.37493e-10
-2.89103e-08 0 3.84548e-10
-3.00599e-08 0 2.56012e-10
-3.0773e-08 0 1.59476e-10
-3.11815e-08 0 9.27327e-11
-3.13912e-08 0 4.95965e-11
-3.1479e-08 0 2.33791e-11
-3.14974e-08 0 8.4387e-12
-3.14803e-08 0 5.87103e-13
-3.1448e-08 0 -3.0483e-12
-3.14121e-08 0 -4.32455e-12
-3.13785e-08 0 -4.38238e-12
-3.13497e-08 0 -3.88774e-12
-3.13265e-08 0 -3.20707e-12
-3.13084e-08 0 -2.52628e-12
-3.12947e-08 0 -1.92765e-12
-3.12846e-08 0 -1.43724e-12
-3.12772e-08 0 -1.05282e-12
-3.1272e-08 0 -7.60159e-13
-3.12684e-08 0 -5.41636e-13
-3.12659e-08 0 -3.80083e-13
-3.12643e-08 0 -2.63182e-13
-3.12633e-08 0 -1.85418e-13
-3.1263e-08 0 -1.66709e-13
-3.12632e-08 0 -1.87984e-13
-3.12645e-08 0 1.93599e-13
0.0054718 0 -1.53546e-09
0.0036 -3.07594e-07 -6.24318e-08
0.0035998 -0.00138973 -2.28823e-05
0.00670658 -0.00393237 0.00010944
0.0136126 -0.00588837 -0.000509003
0.0235113 -0.0144617 -0.00427658
0.0463572 -0.0134005 -0.00488308
0.0498796 -0.00192237 -0.00164375
0.0496184 0.0026432 -0.00016232
0.0446309 0.00496861 0.000571454
0.0390256 0.00513524 0.000559235
0.0339251 0.00446702 0.000289662
0.0296389 0.00358319 1.3398e-05
0.0262354 0.00271045 -0.000182345
0.023651 0.00194534 -0.000280002
0.0217338 0.0013365 -0.000294203
0.0203099 0.000895247 -0.000251866
0.0192385 0.000600689 -0.000182128
0.0184247 0.000414313 -0.000110237
0.017809 0.000296219 -5.25996e-05
0.017351 0.000216463 -1.49571e-05
0.0170192 0.000157815 4.87371e-06
0.0167868 0.000112456 1.24185e-05
0.01663 7.73398e-05 1.31209e-05
0.0165286 5.09811e-05 1.08799e-05
0.0164659 3.20503e-05 7.93615e-06
0.0164292 1.90813e-05 5.31531e-06
0.0164091 1.06061e-05 3.33411e-06
0.0163992 5.32788e-06 1.97469e-06
0.0163951 2.21079e-06 1.10321e-06
0.0163943 4.88073e-07 5.74194e-07
0.016395 -3.7557e-07 2.68801e-07
0.0163964 -7.36214e-07 1.01857e-07
0.0163979 -8.20686e-07 1.68296e-08
0.0163993 -7.67351e-07 -2.18763e-08
0.0164004 -6.56544e-07 -3.57386e-08
0.0164014 -5.32039e-07 -3.72118e-08
0.0164021 -4.15517e-07 -3.32162e-08
0.0164026 -3.15945e-07 -2.73983e-08
0.016403 -2.35425e-07 -2.15365e-08
0.0164033 -1.727e-07 -1.63866e-08
0.0164035 -1.25143e-07 -1.21735e-08
0.0164037 -8.98291e-08 -8.87174e-09
0.0164038 -6.40584e-08 -6.36016e-09
0.0164039 -4.55605e-08 -4.49238e-09
0.0164039 -3.2553e-08 -3.13175e-09
0.016404 -2.36863e-08 -2.1039e-09
0.016404 -1.80169e-08 -1.0971e-09
0.016404 -1.50575e-08 8.86869e-10
0.0164041 -1.67818e-08 4.53624e-09
0.0164041 -4.02948e-08 -1.73583e-10
0.0164042 -6.1254e-08 -7.09783e-09
0.01 -1.3797e-07 -1.45796e-06
0.0100007 -0.0029874 -0.000599748
0.0147857 -0.00996176 -0.000794003
0.0241782 -0.017741 -0.00123979
0.0385772 -0.0325679 -0.00334483
0.0592665 -0.0248789 -0.000819297
0.0565014 -0.00274481 0.00317814
0.0559371 0.00508508 0.00338772
0.0501552 0.0100613 0.00300832
0.044685 0.0102061 0.00212047
0.0401883 0.00912388 0.00117409
0.0364838 0.00770747 0.000426785
0.0335174 0.00623772 -9.36784e-05
0.0312433 0.0048808 -0.000397229
0.029505 0.00373377 -0.000505246
0.0281518 0.00281558 -0.000469269
0.0270888 0.002098 -0.000356043
0.0262645 0.00154289 -0.000225689
0.0256441 0.00111709 -0.000116523
0.0251943 0.00079392 -4.26324e-05
0.0248808 0.000551833 -1.48695e-06
0.0246714 0.000373486 1.63482e-05
0.0245382 0.000244959 2.05995e-05
0.0244583 0.000154872 1.8465e-05
0.0244142 9.37515e-05 1.42547e-05
0.0243926 5.37578e-05 1.00804e-05
0.0243844 2.86048e-05 6.72186e-06
0.0243836 1.34769e-05 4.29372e-06
0.0243863 4.85842e-06 2.65052e-06
0.0243904 2.98247e-07 1.58796e-06
0.0243945 -1.842e-06 9.24078e-07
0.0243983 -2.61472e-06 5.21079e-07
0.0244014 -2.66948e-06 2.82938e-07
0.0244039 -2.38993e-06 1.46072e-07
0.0244058 -1.9909e-06 6.9858e-08
0.0244072 -1.58408e-06 2.90605e-08
0.0244083 -1.22087e-06 8.3817e-09
0.0244091 -9.19252e-07 -1.2329e-09
0.0244096 -6.80035e-07 -5.01047e-09
0.02441 -4.96267e-07 -5.88371e-09
0.0244103 -3.58376e-07 -5.43929e-09
0.0244105 -2.56791e-07 -4.4984e-09
0.0244106 -1.8311e-07 -3.47108e-09
0.0244107 -1.30481e-07 -2.5369e-09
0.0244108 -9.36177e-08 -1.75473e-09
0.0244108 -6.86942e-08 -9.99665e-10
0.0244109 -5.33831e-08 2.39945e-10
0.0244109 -4.94827e-08 2.82993e-09
0.0244109 -6.31265e-08 6.10171e-09
0.024411 -1.10187e-07 -6.6078e-09
0.0244111 -1.45153e-07 -2.08354e-08
0.0148 -9.62084e-07 -1.75162e-06
0.0148024 -0.00529706 -0.00112666
0.020392 -0.0164371 -0.00244781
0.0275718 -0.0288615 -0.0039408
0.0322304 -0.0462575 -0.00577215
0.0306937 -0.0285557 -0.00142108
0.0269001 -1.23657e-05 0.00329942
0.0263394 0.00705958 0.00352331
0.0298374 0.0144027 0.00343871
0.0301839 0.0138223 0.00247574
0.0293838 0.0120416 0.00151001
0.028555 0.0102003 0.000670386
0.0279325 0.00832512 6.61815e-05
0.0276221 0.00657374 -0.000292451
0.0274978 0.00508956 -0.000424313
0.0274576 0.00386965 -0.000398046
0.0274583 0.00287509 -0.000293196
0.027486 0.00207968 -0.000172509
0.0275327 0.0014641 -7.22627e-05
0.0275897 0.00100421 -5.34493e-06
0.0276497 0.000670517 3.01574e-05
0.0277081 0.000433974 4.27048e-05
0.0277624 0.000270066 4.16861e-05
0.0278114 0.00015957 3.45369e-05
0.0278541 8.76454e-05 2.59404e-05
0.02789 4.28368e-05 1.82309e-05
0.0279192 1.64213e-05 1.22093e-05
0.0279421 1.9604e-06 7.87958e-06
0.0279596 -5.10047e-06 4.93402e-06
0.0279726 -7.83641e-06 3.00899e-06
0.027982 -8.22571e-06 1.78983e-06
0.0279888 -7.47819e-06 1.03796e-06
0.0279936 -6.29209e-06 5.85411e-07
0.0279969 -5.0416e-06 3.19453e-07
0.0279992 -3.90567e-06 1.6704e-07
0.0280008 -2.95218e-06 8.2145e-08
0.0280019 -2.1904e-06 3.64663e-08
0.0280026 -1.60203e-06 1.29962e-08
0.0280031 -1.15862e-06 1.74211e-09
0.0280034 -8.30621e-07 -3.02952e-09
0.0280037 -5.91507e-07 -4.52038e-09
0.0280038 -4.19291e-07 -4.46316e-09
0.0280039 -2.96628e-07 -3.77479e-09
0.028004 -2.10349e-07 -2.89843e-09
0.0280041 -1.50812e-07 -1.97387e-09
0.0280041 -1.11736e-07 -9.19738e-10
0.0280041 -8.99947e-08 8.01937e-10
0.0280042 -8.64463e-08 2.90914e-09
0.0280042 -1.04837e-07 8.19116e-10
0.0280042 -1.41684e-07 -2.07113e-08
0.0280042 -1.63356e-07 -3.91865e-08
0.018 -1.93883e-06 -1.69994e-06
0.018003 -0.00700523 -0.00187598
0.0207851 -0.0190203 -0.00492453
0.0207424 -0.0250285 -0.00634168
0.016101 -0.0270508 -0.00762913
-1.60847e-06 -0.014047 -0.004337
9.73928e-05 2.61997e-05 9.26084e-07
-3.32628e-05 3.46117e-05 0.000655284
0.00656839 0.00407367 0.00144332
0.013418 0.0092383 0.00141412
0.0168272 0.0100376 0.00100527
0.018607 0.00906454 0.000466973
0.0203063 0.00752123 -2.01806e-05
0.0219999 0.00589866 -0.000290612
0.0235228 0.00451027 -0.000360289
0.0248114 0.00335799 -0.000311634
0.025873 0.00240861 -0.000216339
0.026735 0.00165303 -0.000118187
0.027423 0.00108432 -3.82535e-05
0.0279588 0.000679852 1.61031e-05
0.0283652 0.000404786 4.54092e-05
0.0286663 0.000223784 5.48612e-05
0.0288857 0.000108383 5.1609e-05
0.0290436 3.79875e-05 4.22938e-05
0.029156 -1.99141e-06 3.16085e-05
0.029235 -2.20445e-05 2.2092e-05
0.0292898 -2.97264e-05 1.46687e-05
0.0293272 -3.03235e-05 9.3469e-06
0.0293523 -2.73423e-05 5.75107e-06
0.0293689 -2.29509e-05 3.42784e-06
0.0293798 -1.83757e-05 1.98035e-06
0.0293868 -1.42275e-05 1.10661e-06
0.0293912 -1.07455e-05 5.9467e-07
0.0293941 -7.96341e-06 3.03667e-07
0.0293958 -5.81561e-06 1.43702e-07
0.029397 -4.19843e-06 5.92746e-08
0.0293977 -3.0035e-06 1.71079e-08
0.0293981 -2.13325e-06 -2.20766e-09
0.0293984 -1.50662e-06 -9.68308e-09
0.0293986 -1.05947e-06 -1.13794e-08
0.0293987 -7.42785e-07 -1.05125e-08
0.0293987 -5.20002e-07 -8.70888e-09
0.0293988 -3.64385e-07 -6.74455e-09
0.0293988 -2.56784e-07 -4.93196e-09
0.0293988 -1.83919e-07 -3.29909e-09
0.0293988 -1.37093e-07 -1.87049e-09
0.0293988 -1.10929e-07 -5.28187e-10
0.0293989 -1.00874e-07 -1.61867e-10
0.0293988 -1.03723e-07 -8.69499e-09
0.0293988 -1.05277e-07 -3.39645e-08
0.0293988 -1.02358e-07 -5.10341e-08
0.0196 -2.81552e-06 -2.56429e-06
0.019601 -0.00591692 -0.00274435
0.0190562 -0.0132037 -0.00648149
0.0159396 -0.0162365 -0.00669005
0.0108819 -0.015219 -0.00669056
0.00172125 -0.00627217 -0.00504466
7.25005e-05 -6.65673e-05 -0.00130454
3.33045e-05 -3.33045e-05 -4.16844e-08
-3.26582e-05 3.38674e-05 0.000261647
0.00390166 0.00274234 0.000559271
0.00892537 0.00640784 0.000490378
0.0118384 0.00668411 0.000139768
0.015085 0.00523096 -0.000243898
0.0182372 0.00381497 -0.000407753
0.0209369 0.00273587 -0.000401427
0.0231226 0.0018856 -0.000319473
0.0248533 0.00119584 -0.000221588
0.0262073 0.000661504 -0.000133064
0.0272482 0.00028703 -6.12383e-05
0.028027 5.48339e-05 -8.52903e-06
0.0285911 -7.10437e-05 2.41469e-05
0.0289869 -0.000128142 3.87251e-05
0.0292572 -0.000145015 4.01159e-05
0.0294377 -0.000139992 3.42179e-05
0.0295557 -0.000124092 2.58478e-05
0.0296313 -0.000103931 1.79011e-05
0.0296788 -8.345e-05 1.15936e-05
0.0297079 -6.48314e-05 7.1036e-06
0.0297253 -4.90635e-05 4.14164e-06
0.0297354 -3.63629e-05 2.29876e-06
0.0297412 -2.65069e-05 1.20729e-06
0.0297443 -1.90715e-05 5.8982e-07
0.0297459 -1.35824e-05 2.56827e-07
0.0297466 -9.59689e-06 8.72202e-08
0.0297469 -6.73968e-06 7.47818e-09
0.029747 -4.7112e-06 -2.51508e-08
0.029747 -3.28171e-06 -3.4541e-08
0.029747 -2.28003e-06 -3.34725e-08
0.0297469 -1.58117e-06 -2.84549e-08
0.0297468 -1.09526e-06 -2.25872e-08
0.0297468 -7.58441e-07 -1.71849e-08
0.0297467 -5.25687e-07 -1.26816e-08
0.0297467 -3.65545e-07 -9.12202e-09
0.0297467 -2.56217e-07 -6.40852e-09
0.0297467 -1.82691e-07 -4.43095e-09
0.0297467 -1.34251e-07 -3.25485e-09
0.0297466 -1.02655e-07 -3.01185e-09
0.0297466 -7.97911e-08 -4.17197e-09
0.0297466 -5.77426e-08 -1.54425e-08
0.0297465 -2.12558e-08 -3.85577e-08
0.0297464 3.54994e-09 -5.14496e-08
0.0196 -1.35644e-06 -3.57874e-06
0.0195999 -0.00369295 -0.00312711
0.0187624 -0.00810903 -0.00652202
0.0175104 -0.00814282 -0.00605363
0.0131831 -0.00431363 -0.00554418
0.00908462 0.00256338 -0.00533343
0.00614547 0.00315162 -0.00311785
7.26735e-05 -6.04611e-05 -0.000673619
2.78029e-05 -2.78029e-05 -1.27205e-07
-3.2124e-05 3.31924e-05 9.54101e-05
0.00269843 0.00191984 0.000362125
0.00698769 0.00299197 0.000262801
0.0122521 0.00146181 -0.000163631
0.016885 0.000480073 -0.000352165
0.0204856 3.47475e-05 -0.000357888
0.0231689 -0.0002266 -0.000289484
0.0251459 -0.000436392 -0.000212013
0.0265889 -0.000588872 -0.00014671
0.0276191 -0.000655285 -9.31979e-05
0.0283276 -0.000637273 -4.9443e-05
0.0287917 -0.000563415 -1.70071e-05
0.02908 -0.000466531 2.70015e-06
0.0292494 -0.000369468 1.12777e-05
0.029343 -0.000283525 1.25063e-05
0.0293908 -0.000212395 1.02229e-05
0.0294123 -0.000155991 7.05363e-06
0.0294198 -0.000112663 4.29164e-06
0.0294202 -8.02354e-05 2.32425e-06
0.0294177 -5.64927e-05 1.09504e-06
0.0294142 -3.94233e-05 4.05682e-07
0.0294108 -2.73298e-05 6.02128e-08
0.0294079 -1.88576e-05 -8.78049e-08
0.0294055 -1.29713e-05 -1.33009e-07
0.0294037 -8.90547e-06 -1.30645e-07
0.0294023 -6.10775e-06 -1.10225e-07
0.0294013 -4.18717e-06 -8.60564e-08
0.0294006 -2.87045e-06 -6.41783e-08
0.0294001 -1.96827e-06 -4.64939e-08
0.0293997 -1.35028e-06 -3.30488e-08
0.0293995 -9.27009e-07 -2.31948e-08
0.0293993 -6.37214e-07 -1.61311e-08
0.0293991 -4.38979e-07 -1.11343e-08
0.0293991 -3.03603e-07 -7.65968e-09
0.029399 -2.11261e-07 -5.34375e-09
0.0293989 -1.47919e-07 -3.99704e-09
0.0293989 -1.03054e-07 -3.57852e-09
0.0293989 -6.81447e-08 -4.10014e-09
0.0293988 -3.49457e-08 -5.53087e-09
0.0293988 6.90326e-09 -1.49028e-08
0.0293987 6.97817e-08 -3.22149e-08
0.0293987 1.08079e-07 -4.10923e-08
0.018 -8.63912e-07 -3.57142e-06
0.0180009 -0.00201259 -0.00304989
0.0183157 -0.0038881 -0.00616178
0.0183703 -0.00268444 -0.00528769
0.0173516 0.000612093 -0.00419512
0.0170724 0.00706607 -0.0039659
0.0178075 0.0125761 -0.00300454
0.0109364 0.00693018 -0.0014985
7.41465e-05 -4.67757e-05 -0.000436719
-2.51756e-05 -5.44789e-05 5.56469e-07
7.8948e-06 -0.0007181 0.000747141
0.00826561 -0.00288577 0.00108493
0.0155631 -0.00443819 0.000449596
0.0205361 -0.00408371 0.000133428
0.0237006 -0.00320484 1.30276e-05
0.025695 -0.00246728 -3.24007e-05
0.0269496 -0.00196745 -5.97389e-05
0.0277157 -0.00161182 -8.10869e-05
0.0281459 -0.00131145 -8.94754e-05
0.0283471 -0.00103367 -8.12469e-05
0.0284036 -0.000783811 -6.22253e-05
0.02838 -0.0005746 -4.15023e-05
0.0283209 -0.000410761 -2.49894e-05
0.0282537 -0.000288523 -1.41481e-05
0.0281919 -0.000200173 -7.88104e-06
0.0281411 -0.000137631 -4.51072e-06
0.0281018 -9.40045e-05 -2.72555e-06
0.0280727 -6.39125e-05 -1.74014e-06
0.0280517 -4.33334e-05 -1.15237e-06
0.028037 -2.93462e-05 -7.74163e-07
0.0280267 -1.98756e-05 -5.19104e-07
0.0280196 -1.34744e-05 -3.44365e-07
0.0280148 -9.1482e-06 -2.25217e-07
0.0280114 -6.22139e-06 -1.4515e-07
0.0280091 -4.23792e-06 -9.22927e-08
0.0280076 -2.89109e-06 -5.80047e-08
0.0280065 -1.97479e-06 -3.61113e-08
0.0280058 -1.35034e-06 -2.23189e-08
0.0280053 -9.24223e-07 -1.37246e-08
0.0280049 -6.33198e-07 -8.41486e-09
0.0280047 -4.34344e-07 -5.15642e-09
0.0280045 -2.98382e-07 -3.17804e-09
0.0280044 -2.05143e-07 -2.03621e-09
0.0280043 -1.40474e-07 -1.48484e-09
0.0280043 -9.41033e-08 -1.40076e-09
0.0280042 -5.81135e-08 -1.71174e-09
0.0280042 -2.57338e-08 -2.33487e-09
0.0280042 9.75394e-09 -3.11449e-09
0.0280041 5.84533e-08 -7.79806e-09
0.0280041 1.26654e-07 -1.85138e-08
0.0280041 1.65556e-07 -2.49493e-08
0.0148 -4.84832e-07 -3.16405e-06
0.0148015 -0.00103778 -0.00282964
0.0162302 -0.00165121 -0.00542662
0.017793 -3.83503e-05 -0.00429156
0.0191151 0.00316563 -0.00306801
0.0208517 0.00734862 -0.00284615
0.0246664 0.0129787 -0.0024116
0.0279593 0.0195113 -0.00151711
0.0229912 0.0112911 -0.000345243
0.023444 3.38979e-11 0.000624306
0.0265889 -0.00671028 0.00155922
0.0300037 -0.0131066 0.00211024
0.0308207 -0.0110363 0.00163925
0.0302451 -0.00771056 0.00114368
0.0292541 -0.00508093 0.000697371
0.0282751 -0.0033652 0.000348193
0.0274346 -0.00229662 0.000106741
0.0267425 -0.00160094 -3.84887e-05
0.0261792 -0.00111276 -0.000104807
0.025726 -0.00075752 -0.000115081
0.0253686 -0.000503624 -9.53878e-05
0.0250945 -0.000329862 -6.71188e-05
0.0248901 -0.000215506 -4.22413e-05
0.0247419 -0.000141792 -2.45579e-05
0.0246369 -9.43531e-05 -1.34875e-05
0.024564 -6.34916e-05 -7.10496e-06
0.0245141 -4.31094e-05 -3.62048e-06
0.0244803 -2.94587e-05 -1.78633e-06
0.0244576 -2.02173e-05 -8.45611e-07
0.0244423 -1.39131e-05 -3.73823e-07
0.0244321 -9.59026e-06 -1.4341e-07
0.0244253 -6.61593e-06 -3.54419e-08
0.0244207 -4.56503e-06 1.14021e-08
0.0244176 -3.14916e-06 2.84788e-08
0.0244155 -2.17124e-06 3.16907e-08
0.024414 -1.49585e-06 2.89934e-08
0.024413 -1.02965e-06 2.42656e-08
0.0244124 -7.08122e-07 1.93061e-08
0.0244119 -4.86605e-07 1.4867e-08
0.0244116 -3.34149e-07 1.11874e-08
0.0244114 -2.29258e-07 8.26949e-09
0.0244112 -1.56923e-07 6.01536e-09
0.0244111 -1.06554e-07 4.28868e-09
0.0244111 -7.05172e-08 2.96807e-09
0.024411 -4.3063e-08 1.9585e-09
0.024411 -1.9526e-08 1.21387e-09
0.024411 4.38077e-09 8.23745e-10
0.024411 3.26279e-08 8.13305e-10
0.024411 7.04412e-08 2.36011e-11
0.024411 1.18216e-07 -6.75915e-09
0.024411 1.43851e-07 -1.26807e-08
0.01 -9.26534e-07 -2.8666e-06
0.0100008 -0.000635818 -0.00230431
0.0113215 -0.000715483 -0.00414395
0.0131847 0.000548781 -0.00291004
0.0156195 0.00251783 -0.00181245
0.0195202 0.00556491 -0.00182202
0.0254393 0.0083647 -0.00236989
0.034552 0.0101209 -0.00209633