# vtk DataFile Version 2.0
Tobias Weinzierl: CPU, Manycore and Cluster Computing
ASCII

DATASET STRUCTURED_POINTS
DIMENSIONS  51 11 6

ORIGIN 0 0 0 

SPACING 0.1 0.1 0.1 

POINT_DATA 3366

VECTORS velocity float
0 0 0
-1.1365e-10 0 0
-1.63744e-07 0 0
-2.93798e-07 0 0
-2.92624e-07 0 0
-7.28637e-08 0 0
-8.774e-09 0 0
-2.8351e-08 0 0
-9.10261e-08 0 0
-1.6051e-07 0 0
-1.97488e-07 0 0
-2.04633e-07 0 0
-1.99424e-07 0 0
-1.93184e-07 0 0
-1.89834e-07 0 0
-1.89433e-07 0 0
-1.90712e-07 0 0
-1.92519e-07 0 0
-1.94217e-07 0 0
-1.95569e-07 0 0
-1.96556e-07 0 0
-1.97242e-07 0 0
-1.97709e-07 0 0
-1.98028e-07 0 0
-1.98253e-07 0 0
-1.98419e-07 0 0
-1.9855e-07 0 0
-1.98661e-07 0 0
-1.98761e-07 0 0
-1.98855e-07 0 0
-1.98944e-07 0 0
-1.9903e-07 0 0
-1.99114e-07 0 0
-1.99196e-07 0 0
-1.99275e-07 0 0
-1.99352e-07 0 0
-1.99425e-07 0 0
-1.99495e-07 0 0
-1.99561e-07 0 0
-1.99623e-07 0 0
-1.99681e-07 0 0
-1.99734e-07 0 0
-1.99783e-07 0 0
-1.99827e-07 0 0
-1.99866e-07 0 0
-1.99901e-07 0 0
-1.99931e-07 0 0
-1.99959e-07 0 0
-1.99987e-07 0 0
-2.00021e-07 0 0
0.0028694 0 0
0 3.63986e-07 0
-1.81919e-10 8.80778e-08 0
-3.11189e-07 1.47528e-07 0
-5.75684e-07 9.6825e-08 0
-5.37808e-07 5.08056e-08 0
-1.65285e-07 6.18168e-08 0
-5.61861e-08 1.10015e-07 0
-6.36948e-08 1.14624e-07 0
-1.17256e-07 1.02499e-07 0
-2.20887e-07 7.95343e-08 0
-2.89183e-07 4.15776e-08 0
-3.12036e-07 1.35273e-08 0
-3.17092e-07 9.81235e-10 0
-3.2119e-07 -1.76099e-09 0
-3.289e-07 -4.19993e-10 0
-3.39105e-07 1.44054e-09 0
-3.49302e-07 2.41064e-09 0
-3.57874e-07 2.49666e-09 0
-3.64344e-07 2.11042e-09 0
-3.68896e-07 1.58701e-09 0
-3.71956e-07 1.10284e-09 0
-3.73958e-07 7.21602e-10 0
-3.75253e-07 4.48465e-10 0
-3.76098e-07 2.65202e-10 0
-3.76666e-07 1.48417e-10 0
-3.77068e-07 7.72868e-11 0
-3.77372e-07 3.58527e-11 0
-3.7762e-07 1.29003e-11 0
-3.77835e-07 1.00147e-12 0
-3.78032e-07 -4.54603e-12 0
-3.78218e-07 -6.608e-12 0
-3.78395e-07 -6.87101e-12 0
-3.78567e-07 -6.29244e-12 0
-3.78732e-07 -5.39324e-12 0
-3.78892e-07 -4.44103e-12 0
-3.79046e-07 -3.56095e-12 0
-3.79193e-07 -2.80076e-12 0
-3.79334e-07 -2.1678e-12 0
-3.79466e-07 -1.64892e-12 0
-3.79591e-07 -1.21994e-12 0
-3.79707e-07 -8.47984e-13 0
-3.79813e-07 -4.88016e-13 0
-3.79911e-07 -7.21067e-14 0
-3.79999e-07 5.13581e-13 0
-3.80077e-07 1.47378e-12 0
-3.80146e-07 3.17737e-12 0
-3.80205e-07 6.28743e-12 0
-3.80258e-07 1.21059e-11 0
-3.80309e-07 2.35012e-11 0
-3.80368e-07 4.6147e-11 0
0.00756159 -2.49986e-07 0
0 3.75638e-08 0
-9.23281e-11 1.06857e-07 0
-2.23733e-07 1.29544e-07 0
-4.6337e-07 -2.62396e-09 0
-3.2551e-07 -3.46569e-10 0
-8.16449e-08 9.63819e-08 0
-1.17657e-07 1.34912e-07 0
-1.47868e-07 5.66638e-08 0
-1.43144e-07 -2.58696e-09 0
-1.74473e-07 1.96864e-08 0
-2.1172e-07 4.35524e-08 0
-2.22397e-07 6.44894e-08 0
-2.27974e-07 7.00282e-08 0
-2.35145e-07 5.99639e-08 0
-2.46651e-07 4.56465e-08 0
-2.60784e-07 3.3096e-08 0
-2.74186e-07 2.3239e-08 0
-2.84909e-07 1.58251e-08 0
-2.92614e-07 1.04587e-08 0
-2.97784e-07 6.71782e-09 0
-3.01104e-07 4.20004e-09 0
-3.03187e-07 2.55875e-09 0
-3.04487e-07 1.51947e-09 0
-3.05311e-07 8.78672e-10 0
-3.05856e-07 4.93317e-10 0
-3.0624e-07 2.6714e-10 0
-3.06534e-07 1.37674e-10 0
-3.06776e-07 6.56121e-11 0
-3.06989e-07 2.68615e-11 0
-3.07186e-07 6.99435e-12 0
-3.07372e-07 -2.44658e-12 0
-3.07551e-07 -6.31721e-12 0
-3.07724e-07 -7.34594e-12 0
-3.07891e-07 -7.02827e-12 0
-3.08053e-07 -6.15848e-12 0
-3.08208e-07 -5.13969e-12 0
-3.08356e-07 -4.16154e-12 0
-3.08497e-07 -3.2998e-12 0
-3.0863e-07 -2.57076e-12 0
-3.08754e-07 -1.95883e-12 0
-3.0887e-07 -1.42793e-12 0
-3.08977e-07 -9.20936e-13 0
-3.09075e-07 -3.48217e-13 0
-3.09162e-07 4.37922e-13 0
-3.0924e-07 1.69969e-12 0
-3.09307e-07 3.93661e-12 0
-3.09364e-07 8.05412e-12 0
-3.09411e-07 1.54763e-11 0
-3.09453e-07 2.79747e-11 0
-3.09494e-07 4.90565e-11 0
0.00976661 -3.38941e-07 0
0 -4.38298e-07 0
-4.17254e-11 5.01236e-08 0
-1.36972e-07 -2.20863e-08 0
-3.72993e-07 -2.24172e-07 0
-2.36712e-07 -2.16741e-07 0
1.07916e-08 -6.46094e-08 0
-7.0699e-08 -1.47078e-11 0
-1.12539e-07 -9.64215e-08 0
-2.69333e-07 -2.03524e-07 0
-2.88231e-07 -1.55527e-07 0
-2.95636e-07 -3.63839e-08 0
-2.87364e-07 6.26009e-08 0
-2.7086e-07 1.03787e-07 0
-2.48962e-07 9.49707e-08 0
-2.3379e-07 7.23778e-08 0
-2.28618e-07 5.1642e-08 0
-2.29399e-07 3.53112e-08 0
-2.3206e-07 2.32366e-08 0
-2.34589e-07 1.47741e-08 0
-2.3642e-07 9.11327e-09 0
-2.37596e-07 5.47075e-09 0
-2.3832e-07 3.20177e-09 0
-2.38771e-07 1.82712e-09 0
-2.39077e-07 1.01464e-09 0
-2.39309e-07 5.45391e-10 0
-2.39508e-07 2.80593e-10 0
-2.39694e-07 1.34918e-10 0
-2.39875e-07 5.72257e-11 0
-2.40054e-07 1.75164e-11 0
-2.40231e-07 -1.46974e-12 0
-2.40407e-07 -9.48041e-12 0
-2.40581e-07 -1.19153e-11 0
-2.40751e-07 -1.16995e-11 0
-2.40917e-07 -1.03728e-11 0
-2.41078e-07 -8.7136e-12 0
-2.41232e-07 -7.08972e-12 0
-2.41381e-07 -5.65408e-12 0
-2.41522e-07 -4.45069e-12 0
-2.41655e-07 -3.47078e-12 0
-2.4178e-07 -2.68063e-12 0
-2.41896e-07 -2.03279e-12 0
-2.42003e-07 -1.46612e-12 0
-2.421e-07 -8.94796e-13 0
-2.42187e-07 -1.85779e-13 0
-2.42264e-07 8.60015e-13 0
-2.4233e-07 2.52084e-12 0
-2.42385e-07 5.25793e-12 0
-2.42429e-07 9.98738e-12 0
-2.42464e-07 1.84938e-11 0
-2.42498e-07 3.28633e-11 0
0.0102067 -2.65862e-07 0
0 -8.46224e-07 0
-7.78473e-11 -2.22421e-08 0
-1.39941e-07 -1.25831e-07 0
-3.94758e-07 -2.27976e-07 0
-3.62311e-07 -1.73462e-07 0
-1.95561e-11 -4.90794e-08 0
-4.50584e-09 -3.62791e-09 0
3.4719e-09 -3.72427e-09 0
-1.52435e-07 -1.28159e-07 0
-3.23406e-07 -2.08394e-07 0
-3.30636e-07 -8.25485e-08 0
-3.40317e-07 4.14355e-08 0
-3.37726e-07 8.80984e-08 0
-3.07006e-07 7.84536e-08 0
-2.7216e-07 5.91259e-08 0
-2.48436e-07 4.29743e-08 0
-2.35491e-07 2.97459e-08 0
-2.28882e-07 1.93884e-08 0
-2.25401e-07 1.1965e-08 0
-2.2344e-07 7.05621e-09 0
-2.22282e-07 4.00423e-09 0
-2.21601e-07 2.19273e-09 0
-2.21227e-07 1.15611e-09 0
-2.21057e-07 5.81205e-10 0
-2.2102e-07 2.71874e-10 0
-2.2107e-07 1.11021e-10 0
-2.21174e-07 3.10946e-11 0
-2.21311e-07 -5.86046e-12 0
-2.21467e-07 -2.07061e-11 0
-2.21634e-07 -2.46696e-11 0
-2.21805e-07 -2.36546e-11 0
-2.21976e-07 -2.06743e-11 0
-2.22146e-07 -1.72003e-11 0
-2.22312e-07 -1.38996e-11 0
-2.22473e-07 -1.10315e-11 0
-2.22628e-07 -8.65717e-12 0
-2.22777e-07 -6.74939e-12 0
-2.22918e-07 -5.24696e-12 0
-2.23052e-07 -4.08111e-12 0
-2.23177e-07 -3.18639e-12 0
-2.23293e-07 -2.50369e-12 0
-2.234e-07 -1.97891e-12 0
-2.23498e-07 -1.56098e-12 0
-2.23585e-07 -1.19474e-12 0
-2.23661e-07 -7.84312e-13 0
-2.23727e-07 -1.18488e-13 0
-2.23781e-07 1.21732e-12 0
-2.23824e-07 3.88787e-12 0
-2.23859e-07 8.70624e-12 0
-2.23892e-07 1.61907e-11 0
0.0102714 -1.38691e-07 0
0 -7.56659e-07 0
-1.1567e-10 -5.30088e-08 0
-1.51874e-07 -1.33749e-07 0
-4.05089e-07 -1.84865e-07 0
-4.42481e-07 -1.93367e-07 0
-1.4541e-07 -8.92492e-08 0
-4.06778e-09 4.00403e-09 0
-5.33277e-10 5.33277e-10 0
3.36214e-09 -3.58155e-09 0
-1.49285e-07 -8.68396e-08 0
-2.47465e-07 -8.31945e-08 0
-3.08844e-07 6.29425e-08 0
-3.72498e-07 1.04762e-07 0
-3.64058e-07 7.04903e-08 0
-3.17245e-07 3.98809e-08 0
-2.75709e-07 2.38427e-08 0
-2.49894e-07 1.43607e-08 0
-2.3554e-07 8.05777e-09 0
-2.2765e-07 4.08104e-09 0
-2.23244e-07 1.81859e-09 0
-2.20769e-07 6.57357e-10 0
-2.19401e-07 1.2134e-10 0
-2.18683e-07 -9.32379e-11 0
-2.18346e-07 -1.56941e-10 0
-2.18235e-07 -1.57073e-10 0
-2.18254e-07 -1.34905e-10 0
-2.18347e-07 -1.08321e-10 0
-2.18483e-07 -8.41311e-11 0
-2.18641e-07 -6.4268e-11 0
-2.18811e-07 -4.87195e-11 0
-2.18985e-07 -3.68316e-11 0
-2.19159e-07 -2.78434e-11 0
-2.1933e-07 -2.10777e-11 0
-2.19498e-07 -1.59899e-11 0
-2.1966e-07 -1.21614e-11 0
-2.19816e-07 -9.27818e-12 0
-2.19966e-07 -7.10678e-12 0
-2.20108e-07 -5.47522e-12 0
-2.20241e-07 -4.25758e-12 0
-2.20367e-07 -3.36314e-12 0
-2.20483e-07 -2.729e-12 0
-2.20591e-07 -2.31446e-12 0
-2.20688e-07 -2.0929e-12 0
-2.20776e-07 -2.04012e-12 0
-2.20852e-07 -2.12429e-12 0
-2.20918e-07 -2.29148e-12 0
-2.20973e-07 -2.43e-12 0
-2.21016e-07 -2.30714e-12 0
-2.2105e-07 -1.654e-12 0
-2.21082e-07 -5.16032e-13 0
0.0102781 6.01325e-10 0
0 -5.37476e-07 0
-1.23465e-10 -6.3566e-08 0
-1.46186e-07 -1.44302e-07 0
-3.95546e-07 -1.38079e-07 0
-4.60653e-07 -1.02691e-07 0
-3.22209e-07 -9.00145e-08 0
-1.0888e-07 -4.46927e-08 0
-4.03667e-09 3.97084e-09 0
-6.10069e-10 6.10069e-10 0
3.21462e-09 -3.50963e-09 0
-9.24537e-08 4.58413e-08 0
-2.10641e-07 1.60613e-07 0
-3.83679e-07 1.7532e-07 0
-4.28319e-07 7.43031e-08 0
-3.66235e-07 1.22249e-08 0
-2.98675e-07 -5.33944e-09 0
-2.58249e-07 -7.74276e-09 0
-2.3825e-07 -6.93344e-09 0
-2.28801e-07 -5.4972e-09 0
-2.24326e-07 -4.03002e-09 0
-2.22211e-07 -2.78466e-09 0
-2.21243e-07 -1.84605e-09 0
-2.20848e-07 -1.19245e-09 0
-2.20742e-07 -7.60033e-10 0
-2.20784e-07 -4.82806e-10 0
-2.209e-07 -3.08138e-10 0
-2.21056e-07 -1.98837e-10 0
-2.21229e-07 -1.30348e-10 0
-2.21411e-07 -8.70883e-11 0
-2.21595e-07 -5.93983e-11 0
-2.21777e-07 -4.13626e-11 0
-2.21957e-07 -2.93755e-11 0
-2.22132e-07 -2.12355e-11 0
-2.22302e-07 -1.55894e-11 0
-2.22466e-07 -1.15959e-11 0
-2.22623e-07 -8.7243e-12 0
-2.22773e-07 -6.63406e-12 0
-2.22915e-07 -5.10323e-12 0
-2.2305e-07 -3.98589e-12 0
-2.23175e-07 -3.18699e-12 0
-2.23292e-07 -2.64774e-12 0
-2.234e-07 -2.33809e-12 0
-2.23497e-07 -2.25604e-12 0
-2.23585e-07 -2.43348e-12 0
-2.23662e-07 -2.95001e-12 0
-2.23729e-07 -3.95753e-12 0
-2.23784e-07 -5.70026e-12 0
-2.23828e-07 -8.43405e-12 0
-2.23862e-07 -1.22535e-11 0
-2.23895e-07 -1.74633e-11 0
0.0102714 1.3953e-07 0
0 -3.8652e-07 0
-1.38286e-10 -7.08907e-08 0
-1.53823e-07 -1.42529e-07 0
-3.83933e-07 -1.12514e-07 0
-4.44366e-07 -5.43616e-08 0
-3.48795e-07 -3.97824e-08 0
-2.43076e-07 -9.76723e-08 0
-1.42213e-07 -7.13818e-08 0
-4.27103e-09 3.67054e-09 0
3.02626e-09 3.94092e-09 0
-3.16885e-10 9.74951e-08 0
-8.03234e-08 2.94139e-07 0
-2.68742e-07 2.83949e-07 0
-3.90919e-07 8.26891e-08 0
-3.68855e-07 -2.68405e-08 0
-3.06501e-07 -3.98327e-08 0
-2.65274e-07 -2.86389e-08 0
-2.46684e-07 -1.83997e-08 0
-2.39927e-07 -1.14996e-08 0
-2.37998e-07 -7.02781e-09 0
-2.37767e-07 -4.20848e-09 0
-2.38038e-07 -2.48706e-09 0
-2.38404e-07 -1.46272e-09 0
-2.38747e-07 -8.62659e-10 0
-2.39048e-07 -5.13425e-10 0
-2.39312e-07 -3.10042e-10 0
-2.3955e-07 -1.90855e-10 0
-2.39771e-07 -1.20236e-10 0
-2.39978e-07 -7.77474e-11 0
-2.40177e-07 -5.1682e-11 0
-2.40368e-07 -3.5317e-11 0
-2.40552e-07 -2.47707e-11 0
-2.4073e-07 -1.77833e-11 0
-2.40901e-07 -1.30244e-11 0
-2.41066e-07 -9.69933e-12 0
-2.41223e-07 -7.32482e-12 0
-2.41374e-07 -5.60122e-12 0
-2.41517e-07 -4.33909e-12 0
-2.41651e-07 -3.41732e-12 0
-2.41777e-07 -2.75965e-12 0
-2.41894e-07 -2.32295e-12 0
-2.42002e-07 -2.09437e-12 0
-2.421e-07 -2.09743e-12 0
-2.42188e-07 -2.41025e-12 0
-2.42265e-07 -3.20168e-12 0
-2.42332e-07 -4.79803e-12 0
-2.42389e-07 -7.79555e-12 0
-2.42435e-07 -1.31014e-11 0
-2.42472e-07 -2.15815e-11 0
-2.42507e-07 -3.4469e-11 0
0.0102067 2.6492e-07 0
0 -3.52309e-07 0
-1.55916e-10 -6.81339e-08 0
-1.82746e-07 -1.32015e-07 0
-3.93209e-07 -9.40985e-08 0
-4.50893e-07 -3.81865e-08 0
-3.82502e-07 -1.51781e-08 0
-2.8523e-07 -5.07261e-08 0
-2.60229e-07 -1.58974e-07 0
-1.79215e-07 -1.15482e-07 0
-2.81351e-07 -3.1913e-11 0
-3.71029e-07 9.82843e-08 0
-2.47026e-07 2.94484e-07 0
-1.47156e-07 3.03337e-07 0
-2.39076e-07 1.077e-07 0
-3.10549e-07 -2.69597e-08 0
-3.12684e-07 -4.84698e-08 0
-3.02119e-07 -3.27306e-08 0
-2.9835e-07 -1.78883e-08 0
-2.991e-07 -9.28763e-09 0
-3.01016e-07 -4.84044e-09 0
-3.02744e-07 -2.58336e-09 0
-3.04007e-07 -1.42185e-09 0
-3.04872e-07 -8.08095e-10 0
-3.05468e-07 -4.7377e-10 0
-3.05896e-07 -2.8617e-10 0
-3.06225e-07 -1.77992e-10 0
-3.06495e-07 -1.14006e-10 0
-3.06731e-07 -7.5201e-11 0
-3.06946e-07 -5.10514e-11 0
-3.07148e-07 -3.56062e-11 0
-3.07341e-07 -2.54429e-11 0
-3.07525e-07 -1.85614e-11 0
-3.07703e-07 -1.37735e-11 0
-3.07875e-07 -1.03601e-11 0
-3.08039e-07 -7.87649e-12 0
-3.08197e-07 -6.04083e-12 0
-3.08348e-07 -4.67e-12 0
-3.0849e-07 -3.64235e-12 0
-3.08625e-07 -2.87638e-12 0
-3.08751e-07 -2.31907e-12 0
-3.08868e-07 -1.94094e-12 0
-3.08976e-07 -1.73757e-12 0
-3.09074e-07 -1.73946e-12 0
-3.09162e-07 -2.03621e-12 0
-3.0924e-07 -2.82472e-12 0
-3.09308e-07 -4.49947e-12 0
-3.09366e-07 -7.85155e-12 0
-3.09415e-07 -1.44608e-11 0
-3.09457e-07 -2.69547e-11 0
-3.09499e-07 -4.96462e-11 0
0.00976654 3.33092e-07 0
0 -3.80366e-07 0
-1.75428e-10 -4.20977e-08 0
-2.07804e-07 -8.06937e-08 0
-3.91344e-07 -5.5749e-08 0
-4.49047e-07 -2.81967e-08 0
-4.34486e-07 -3.89067e-08 0
-3.78612e-07 -7.62027e-08 0
-3.43211e-07 -1.03451e-07 0
-3.94686e-07 2.96651e-08 0
-4.07933e-07 2.12279e-07 0
-4.18029e-07 1.35478e-07 0
-3.02596e-07 -7.24573e-08 0
-2.19532e-07 -1.39983e-07 0
-3.05426e-07 -6.95527e-08 0
-3.86417e-07 5.24479e-09 0
-3.96174e-07 3.11814e-08 0
-3.84738e-07 2.55055e-08 0
-3.77077e-07 1.4163e-08 0
-3.74434e-07 6.50312e-09 0
-3.7418e-07 2.63013e-09 0
-3.74695e-07 9.32491e-10 0
-3.75326e-07 2.56259e-10 0
-3.75881e-07 1.17306e-11 0
-3.76332e-07 -6.30384e-11 0
-3.76699e-07 -7.56967e-11 0
-3.77007e-07 -6.81378e-11 0
-3.77275e-07 -5.58037e-11 0
-3.77516e-07 -4.39284e-11 0
-3.77739e-07 -3.39658e-11 0
-3.77949e-07 -2.60485e-11 0
-3.78148e-07 -1.99059e-11 0
-3.78339e-07 -1.51928e-11 0
-3.78522e-07 -1.15945e-11 0
-3.78697e-07 -8.85289e-12 0
-3.78865e-07 -6.76598e-12 0
-3.79025e-07 -5.17878e-12 0
-3.79177e-07 -3.97342e-12 0
-3.79321e-07 -3.06112e-12 0
-3.79457e-07 -2.376e-12 0
-3.79584e-07 -1.87112e-12 0
-3.79701e-07 -1.51678e-12 0
-3.7981e-07 -1.30238e-12 0
-3.79908e-07 -1.24351e-12 0
-3.79997e-07 -1.39939e-12 0
-3.80076e-07 -1.91125e-12 0
-3.80145e-07 -3.07958e-12 0
-3.80205e-07 -5.54366e-12 0
-3.80257e-07 -1.08302e-11 0
-3.80306e-07 -2.2732e-11 0
-3.80363e-07 -4.72816e-11 0
0.00756158 2.38928e-07 0
0 0 0
-8.98232e-11 0 0
-1.0531e-07 0 0
-1.8836e-07 0 0
-2.18423e-07 0 0
-2.23946e-07 0 0
-2.27594e-07 0 0
-2.25178e-07 0 0
-2.15755e-07 0 0
-1.26785e-07 0 0
-4.73018e-08 0 0
-6.61501e-08 0 0
-1.52765e-07 0 0
-2.27825e-07 0 0
-2.49778e-07 0 0
-2.36096e-07 0 0
-2.1785e-07 0 0
-2.06325e-07 0 0
-2.00811e-07 0 0
-1.98603e-07 0 0
-1.97886e-07 0 0
-1.97762e-07 0 0
-1.97848e-07 0 0
-1.97994e-07 0 0
-1.98148e-07 0 0
-1.98295e-07 0 0
-1.9843e-07 0 0
-1.98556e-07 0 0
-1.98673e-07 0 0
-1.98783e-07 0 0
-1.98886e-07 0 0
-1.98985e-07 0 0
-1.99079e-07 0 0
-1.99169e-07 0 0
-1.99254e-07 0 0
-1.99336e-07 0 0
-1.99413e-07 0 0
-1.99485e-07 0 0
-1.99554e-07 0 0
-1.99618e-07 0 0
-1.99677e-07 0 0
-1.99731e-07 0 0
-1.99781e-07 0 0
-1.99825e-07 0 0
-1.99865e-07 0 0
-1.999e-07 0 0
-1.9993e-07 0 0
-1.99957e-07 0 0
-1.99984e-07 0 0
-2.00018e-07 0 0
0.00286943 0 0
0 0 4.05298e-07
-1.46784e-10 0 7.54565e-08
-3.26864e-07 0 1.45946e-07
-6.59856e-07 0 3.18421e-08
-7.96961e-07 0 -2.71956e-07
-1.22241e-07 0 -3.45885e-07
1.1508e-07 0 -1.54748e-07
1.35119e-07 0 -3.25934e-08
4.464e-08 0 2.94374e-08
-8.54519e-08 0 2.67051e-08
-1.83209e-07 0 2.32254e-09
-2.42209e-07 0 -1.18137e-08
-2.78619e-07 0 -1.26498e-08
-3.03122e-07 0 -8.04648e-09
-3.21424e-07 0 -3.5462e-09
-3.36471e-07 0 -7.75433e-10
-3.48863e-07 0 4.65239e-10
-3.58523e-07 0 8.00245e-10
-3.65607e-07 0 7.32548e-10
-3.70549e-07 0 5.46236e-10
-3.73874e-07 0 3.65336e-10
-3.7606e-07 0 2.27875e-10
-3.77484e-07 0 1.35163e-10
-3.78418e-07 0 7.70425e-11
-3.79046e-07 0 4.24239e-11
-3.79488e-07 0 2.26067e-11
-3.79819e-07 0 1.16417e-11
-3.80084e-07 0 5.76723e-12
-3.80311e-07 0 2.72535e-12
-3.80515e-07 0 1.21223e-12
-3.80705e-07 0 4.98456e-13
-3.80886e-07 0 1.87449e-13
-3.81059e-07 0 6.9794e-14
-3.81226e-07 0 3.84909e-14
-3.81387e-07 0 4.10897e-14
-3.81541e-07 0 5.33486e-14
-3.81689e-07 0 6.50867e-14
-3.8183e-07 0 7.27806e-14
-3.81962e-07 0 7.58114e-14
-3.82087e-07 0 7.46712e-14
-3.82203e-07 0 7.03129e-14
-3.8231e-07 0 6.45239e-14
-3.82407e-07 0 6.22254e-14
-3.82496e-07 0 7.94725e-14
-3.82574e-07 0 1.65108e-13
-3.82643e-07 0 4.43074e-13
-3.82704e-07 0 1.22628e-12
-3.82758e-07 0 3.44842e-12
-3.8281e-07 0 9.84287e-12
-3.82871e-07 0 2.59019e-11
0.00755529 0 -1.42014e-07
0.0036 1.06201e-07 1.56647e-07
0.00359965 -0.00177945 -0.000424966
0.00780789 -0.00532038 -0.0015573
0.0162439 -0.00867609 -0.00316137
0.0280496 -0.0128574 -0.00459367
0.0465751 -0.00875688 -0.00316948
0.0486962 -0.00016992 -0.000476388
0.0480246 0.00331714 0.00058014
0.0426922 0.00501771 0.000661118
0.0371005 0.00472344 0.00014326
0.0321731 0.00380371 -0.000244656
0.0281889 0.00281031 -0.000342945
0.0252725 0.00194112 -0.000272396
0.0233126 0.00127639 -0.000164894
0.0220613 0.000815496 -8.27738e-05
0.0212857 0.000511175 -3.53799e-05
0.0208161 0.000314592 -1.25702e-05
0.020538 0.00018995 -3.15799e-06
0.0203768 0.00011254 6.27076e-08
0.0202855 6.54674e-05 8.05619e-07
0.0202349 3.74107e-05 7.27336e-07
0.0202076 2.09985e-05 4.73775e-07
0.0201934 1.15673e-05 2.53185e-07
0.0201863 6.24152e-06 1.06918e-07
0.020183 3.28772e-06 2.38128e-08
0.0201816 1.68101e-06 -1.70232e-08
0.0201812 8.26288e-07 -3.30454e-08
0.0201812 3.83724e-07 -3.59939e-08
0.0201814 1.62486e-07 -3.28972e-08
0.0201816 5.72351e-08 -2.76066e-08
0.0201818 1.09119e-08 -2.2048e-08
0.0201819 -6.72023e-09 -1.70657e-08
0.020182 -1.12559e-08 -1.29383e-08
0.0201821 -1.04536e-08 -9.6733e-09
0.0201822 -7.97768e-09 -7.16587e-09
0.0201822 -5.4195e-09 -5.27906e-09
0.0201823 -3.36762e-09 -3.88098e-09
0.0201823 -1.9607e-09 -2.85989e-09
0.0201823 -1.16626e-09 -2.12896e-09
0.0201823 -9.19195e-10 -1.62735e-09
0.0201823 -1.1951e-09 -1.32139e-09
0.0201824 -2.06343e-09 -1.20895e-09
0.0201824 -3.75367e-09 -1.32912e-09
0.0201824 -6.76984e-09 -1.77872e-09
0.0201824 -1.21384e-08 -2.76434e-09
0.0201824 -2.20002e-08 -4.77578e-09
0.0201825 -4.02647e-08 -8.28921e-09
0.0201825 -7.5095e-08 -1.4363e-08
0.0201827 -1.71255e-07 -5.58313e-08
0.020183 -4.53351e-07 -2.49516e-07
0.0201836 -6.62338e-07 -4.05688e-07
0.01 9.21665e-08 -6.13987e-07
0.0100009 -0.00379219 -0.000926378
0.0151897 -0.0115585 -0.00254315
0.0242504 -0.0186802 -0.00409986
0.036696 -0.0279542 -0.00437624
0.0556572 -0.0186852 -0.0011739
0.0544205 -0.000913067 0.00167855
0.0549133 0.00598683 0.00204517
0.0491792 0.0108555 0.0016583
0.0431209 0.0106193 0.000560605
0.0379829 0.00911113 -0.000265967
0.0337977 0.0070927 -0.000511476
0.0308172 0.00501122 -0.000430645
0.0289332 0.0032878 -0.000267493
0.0278007 0.00206325 -0.000135863
0.0271377 0.00125949 -5.83344e-05
0.0267594 0.00075194 -2.05771e-05
0.0265497 0.000439682 -4.79871e-06
0.0264373 0.000251845 6.90021e-07
0.0263793 0.000141201 1.97644e-06
0.0263509 7.73312e-05 1.81836e-06
0.0263381 4.12003e-05 1.3212e-06
0.0263332 2.11926e-05 8.6105e-07
0.026332 1.03759e-05 5.26051e-07
0.0263324 4.69624e-06 3.07324e-07
0.0263333 1.82694e-06 1.73327e-07
0.0263344 4.57428e-07 9.4712e-08
0.0263353 -1.36355e-07 5.00879e-08
0.0263361 -3.4587e-07 2.54654e-08
0.0263367 -3.77307e-07 1.22483e-08
0.0263371 -3.35633e-07 5.3671e-09
0.0263375 -2.71724e-07 1.92138e-09
0.0263377 -2.08347e-07 2.91531e-10
0.0263379 -1.54205e-07 -4.07244e-10
0.026338 -1.11353e-07 -6.48017e-10
0.0263381 -7.9002e-08 -6.77912e-10
0.0263382 -5.53877e-08 -6.2279e-10
0.0263382 -3.86372e-08 -5.45477e-10
0.0263382 -2.71275e-08 -4.7823e-10
0.0263383 -1.961e-08 -4.41671e-10
0.0263383 -1.52443e-08 -4.57455e-10
0.0263383 -1.36256e-08 -5.59354e-10
0.0263383 -1.4873e-08 -8.06914e-10
0.0263383 -1.98599e-08 -1.30082e-09
0.0263383 -3.0671e-08 -2.18836e-09
0.0263384 -5.19044e-08 -3.82485e-09
0.0263384 -9.59456e-08 -7.22752e-09
0.0263385 -1.90254e-07 -1.55617e-08
0.0263386 -3.65269e-07 -7.68485e-08
0.0263388 -6.64151e-07 -3.59527e-07
0.026339 -8.52365e-07 -5.86984e-07
0.0148 -6.93049e-07 -8.17765e-07
0.014802 -0.00576874 -0.00143376
0.0194675 -0.0167123 -0.00389438
0.0253716 -0.0265429 -0.00562374
0.0295807 -0.0402054 -0.00488396
0.0281361 -0.02462 -0.000778697
0.0260617 -8.02182e-06 0.00173598
0.0263981 0.00788924 0.00187144
0.0312791 0.0164393 0.00174352
0.0312125 0.0159612 0.000838306
0.0296867 0.0133884 5.55532e-05
0.0283796 0.0102495 -0.000291007
0.027613 0.00700384 -0.00030442
0.027351 0.00440821 -0.000200691
0.0273043 0.00266694 -9.63105e-05
0.027331 0.00157503 -3.17995e-05
0.0273796 0.000909393 -2.14183e-06
0.0274297 0.000512752 7.68835e-06
0.0274729 0.000281841 8.79729e-06
0.0275068 0.000150528 7.03061e-06
0.0275318 7.7606e-05 4.86396e-06
0.0275495 3.81223e-05 3.10733e-06
0.0275617 1.73623e-05 1.88632e-06
0.0275699 6.85096e-06 1.10457e-06
0.0275754 1.81035e-06 6.29169e-07
0.0275791 -3.97571e-07 3.50162e-07
0.0275815 -1.19785e-06 1.90722e-07
0.0275832 -1.34106e-06 1.01562e-07
0.0275842 -1.20993e-06 5.26553e-08
0.027585 -9.90883e-07 2.63385e-08
0.0275855 -7.68263e-07 1.24758e-08
0.0275858 -5.7519e-07 5.36491e-09
0.027586 -4.20375e-07 1.84959e-09
0.0275862 -3.01894e-07 2.09084e-10
0.0275863 -2.13984e-07 -4.80625e-10
0.0275863 -1.50209e-07 -7.07454e-10
0.0275864 -1.04772e-07 -7.24138e-10
0.0275864 -7.29511e-08 -6.59028e-10
0.0275864 -5.11293e-08 -5.77057e-10
0.0275865 -3.66849e-08 -5.13921e-10
0.0275865 -2.78631e-08 -4.96783e-10
0.0275865 -2.3702e-08 -5.58891e-10
0.0275865 -2.40717e-08 -7.51747e-10
0.0275865 -2.99592e-08 -1.16889e-09
0.0275865 -4.43503e-08 -2.05374e-09
0.0275865 -7.3372e-08 -4.17885e-09
0.0275865 -1.24955e-07 -9.70962e-09
0.0275865 -2.08306e-07 -2.49164e-08
0.0275866 -3.38389e-07 -1.03277e-07
0.0275865 -5.34109e-07 -4.1975e-07
0.0275865 -6.50712e-07 -6.69127e-07
0.018 -1.53297e-06 -1.07768e-06
0.0180019 -0.0065867 -0.00222715
0.019852 -0.0173205 -0.00599506
0.0197758 -0.022183 -0.00723336
0.0159857 -0.0237868 -0.00612252
-7.89015e-07 -0.012344 -0.00265789
7.91667e-05 2.71486e-05 4.05853e-07
-3.10429e-05 3.28359e-05 0.000350574
0.00774317 0.00552701 0.000696299
0.0162033 0.0120946 0.000564174
0.019468 0.0120581 0.000242043
0.0210385 0.00934334 -6.92473e-05
0.0227551 0.00618574 -0.000187121
0.0243703 0.00368567 -0.000144099
0.0255898 0.0021241 -6.29031e-05
0.0264123 0.0011966 -7.79313e-06
0.0269393 0.000653067 1.52954e-05
0.0272684 0.000342223 1.94225e-05
0.0274705 0.000170435 1.60627e-05
0.0275928 7.90591e-05 1.12264e-05
0.027666 3.24894e-05 7.15471e-06
0.0277094 1.00025e-05 4.29974e-06
0.0277349 -6.85838e-09 2.4793e-06
0.0277499 -3.82106e-06 1.38437e-06
0.0277587 -4.73449e-06 7.51563e-07
0.0277638 -4.41593e-06 3.96644e-07
0.0277668 -3.67418e-06 2.02518e-07
0.0277686 -2.87593e-06 9.88476e-08
0.0277696 -2.16822e-06 4.49217e-08
0.0277702 -1.59414e-06 1.77903e-08
0.0277706 -1.15135e-06 4.78307e-09
0.0277708 -8.20576e-07 -9.68788e-10
0.027771 -5.78865e-07 -3.12181e-09
0.0277711 -4.0504e-07 -3.5828e-09
0.0277711 -2.81572e-07 -3.32027e-09
0.0277712 -1.94769e-07 -2.80819e-09
0.0277712 -1.34321e-07 -2.2656e-09
0.0277712 -9.26684e-08 -1.78454e-09
0.0277712 -6.43916e-08 -1.39801e-09
0.0277712 -4.57066e-08 -1.1167e-09
0.0277712 -3.40912e-08 -9.50956e-10
0.0277712 -2.80487e-08 -9.29652e-10
0.0277712 -2.70216e-08 -1.12839e-09
0.0277712 -3.13749e-08 -1.72453e-09
0.0277712 -4.2143e-08 -3.16792e-09
0.0277712 -6.0724e-08 -6.70211e-09
0.0277712 -8.92803e-08 -1.47559e-08
0.0277711 -1.30931e-07 -3.31054e-08
0.0277711 -1.92822e-07 -1.17154e-07
0.027771 -2.82967e-07 -4.43228e-07
0.0277709 -3.3577e-07 -6.98138e-07
0.0196 -1.86951e-06 -1.87095e-06
0.0196007 -0.00507192 -0.00297298
0.0190546 -0.0115258 -0.00728093
0.0164353 -0.0136366 -0.00762953
0.0119952 -0.0118927 -0.00604097
0.00268188 -0.00471189 -0.00338847
6.02682e-05 -5.56287e-05 -0.000667272
2.45858e-05 -2.45858e-05 -4.0065e-08
-3.00873e-05 3.19985e-05 8.26779e-05
0.00550213 0.00410557 0.000179254
0.0120498 0.00853167 0.000143802
0.0148905 0.00702835 -5.20081e-05
0.0184626 0.00376852 -0.000225777
0.0217885 0.00164347 -0.000206428
0.0242004 0.000656006 -0.000107611
0.025719 0.000230616 -2.7035e-05
0.0266157 4.71924e-05 1.03231e-05
0.0271315 -2.6713e-05 1.91109e-05
0.0274242 -4.94476e-05 1.6387e-05
0.0275887 -4.97912e-05 1.12477e-05
0.0276803 -4.20035e-05 6.91433e-06
0.0277309 -3.26068e-05 3.97447e-06
0.0277586 -2.41754e-05 2.17799e-06
0.0277737 -1.74396e-05 1.14631e-06
0.0277818 -1.23678e-05 5.78668e-07
0.0277861 -8.67568e-06 2.76936e-07
0.0277884 -6.04198e-06 1.21821e-07
0.0277896 -4.18698e-06 4.51723e-08
0.0277902 -2.89103e-06 9.37942e-09
0.0277905 -1.99055e-06 -5.77928e-09
0.0277906 -1.36722e-06 -1.09299e-08
0.0277906 -9.36981e-07 -1.1523e-08
0.0277906 -6.40728e-07 -1.02718e-08
0.0277906 -4.37196e-07 -8.46903e-09
0.0277906 -2.97701e-07 -6.68763e-09
0.0277906 -2.02368e-07 -5.14741e-09
0.0277906 -1.37466e-07 -3.90373e-09
0.0277906 -9.35366e-08 -2.943e-09
0.0277906 -6.40925e-08 -2.23056e-09
0.0277906 -4.47185e-08 -1.73583e-09
0.0277906 -3.24489e-08 -1.44938e-09
0.0277906 -2.53256e-08 -1.40257e-09
0.0277906 -2.20374e-08 -1.70182e-09
0.0277906 -2.15943e-08 -2.5876e-09
0.0277906 -2.30702e-08 -4.53768e-09
0.0277905 -2.52692e-08 -8.66519e-09
0.0277905 -2.63258e-08 -1.72399e-08
0.0277905 -2.33525e-08 -3.5764e-08
0.0277904 -1.52123e-08 -1.20355e-07
0.0277903 -4.86257e-09 -4.482e-07
0.0277902 2.77482e-10 -7.04279e-07
0.0196 -9.61626e-07 -2.54334e-06
0.0196002 -0.0029504 -0.00327261
0.019074 -0.00612743 -0.00732163
0.0179508 -0.0056266 -0.00725118
0.0147258 -0.00206548 -0.00542911
0.0109448 0.00386885 -0.00351067
0.00677543 0.00348572 -0.0015755
6.03112e-05 -5.09461e-05 -0.000294452
2.08588e-05 -2.08588e-05 -9.88208e-08
-2.89244e-05 3.12502e-05 2.17925e-05
0.00409671 0.00264311 0.000305996
0.00885 0.00297986 0.000302073
0.0149353 -0.000590594 -0.000151799
0.0202785 -0.00194564 -0.000335703
0.0238209 -0.00174958 -0.000250849
0.0257717 -0.00120139 -0.000111188
0.0267662 -0.000761105 -2.89386e-05
0.0272671 -0.000473345 9.19351e-07
0.0275205 -0.000293405 6.99503e-06
0.0276487 -0.000181707 5.89615e-06
0.0277132 -0.000112596 3.73248e-06
0.0277452 -6.9961e-05 2.07324e-06
0.0277607 -4.36859e-05 1.05259e-06
0.027768 -2.74625e-05 4.88161e-07
0.0277711 -1.73992e-05 1.97805e-07
0.0277723 -1.11147e-05 5.82395e-08
0.0277726 -7.158e-06 -3.14405e-09
0.0277726 -4.64478e-06 -2.608e-08
0.0277723 -3.03421e-06 -3.12651e-08
0.0277721 -1.99332e-06 -2.90336e-08
0.0277719 -1.31543e-06 -2.43087e-08
0.0277717 -8.70993e-07 -1.92836e-08
0.0277716 -5.78016e-07 -1.48229e-08
0.0277715 -3.84072e-07 -1.11747e-08
0.0277714 -2.5532e-07 -8.32324e-09
0.0277714 -1.69732e-07 -6.15625e-09
0.0277713 -1.12858e-07 -4.54209e-09
0.0277713 -7.51607e-08 -3.36206e-09
0.0277713 -5.03027e-08 -2.52338e-09
0.0277713 -3.40392e-08 -1.96526e-09
0.0277712 -2.34652e-08 -1.66573e-09
0.0277712 -1.64796e-08 -1.6539e-09
0.0277712 -1.13589e-08 -2.03059e-09
0.0277712 -6.35083e-09 -3.00661e-09
0.0277712 7.98184e-10 -5.01661e-09
0.0277712 1.34636e-08 -9.13113e-09
0.0277711 3.7137e-08 -1.75289e-08
0.0277711 8.10862e-08 -3.51624e-08
0.0277711 1.57505e-07 -1.17121e-07
0.027771 2.70763e-07 -4.41497e-07
0.0277709 3.36121e-07 -6.95997e-07
0.018 -5.88056e-07 -2.50411e-06
0.0180008 -0.00124636 -0.00322112
0.0186024 -0.00192413 -0.00694367
0.0193028 -0.00035509 -0.00649011
0.0190884 0.00237966 -0.00461331
0.0190571 0.0077942 -0.00297657
0.0194221 0.0128556 -0.00160101
0.011972 0.00711775 -0.000724612
6.17337e-05 -4.01585e-05 -0.000251786
-2.34463e-05 -4.59145e-05 3.74044e-07
6.25039e-06 -0.00043062 0.000893568
0.00949899 -0.00387816 0.00125355
0.0173259 -0.00752773 0.00028802
0.0225277 -0.00705426 -0.000268815
0.0254543 -0.00470651 -0.000330309
0.0268099 -0.00265509 -0.000193594
0.0273516 -0.00143016 -8.16105e-05
0.0275469 -0.000779018 -2.86757e-05
0.0276086 -0.000433222 -9.03519e-06
0.0276218 -0.000244785 -2.65717e-06
0.0276192 -0.000140008 -7.77655e-07
0.0276126 -8.09768e-05 -2.77078e-07
0.027606 -4.73691e-05 -1.56636e-07
0.0276007 -2.80365e-05 -1.24223e-07
0.0275966 -1.67931e-05 -1.05486e-07
0.0275936 -1.01777e-05 -8.68306e-08
0.0275915 -6.23824e-06 -6.85146e-08
0.02759 -3.86376e-06 -5.22782e-08
0.0275889 -2.41549e-06 -3.89684e-08
0.0275882 -1.52215e-06 -2.8608e-08
0.0275877 -9.6537e-07 -2.08073e-08
0.0275873 -6.15168e-07 -1.50562e-08
0.0275871 -3.93191e-07 -1.08711e-08
0.0275869 -2.51634e-07 -7.84939e-09
0.0275868 -1.60979e-07 -5.67811e-09
0.0275867 -1.02792e-07 -4.12355e-09
0.0275866 -6.54433e-08 -3.01619e-09
0.0275866 -4.15132e-08 -2.23686e-09
0.0275865 -2.62082e-08 -1.70678e-09
0.0275865 -1.63572e-08 -1.38218e-09
0.0275865 -9.75092e-09 -1.25436e-09
0.0275865 -4.6624e-09 -1.35709e-09
0.0275865 5.6346e-10 -1.78516e-09
0.0275865 7.95187e-09 -2.72996e-09
0.0275865 2.04876e-08 -4.57965e-09
0.0275865 4.29839e-08 -8.32116e-09
0.0275865 8.35782e-08 -1.59883e-08
0.0275864 1.57555e-07 -3.16269e-08
0.0275864 2.93589e-07 -1.06223e-07
0.0275864 5.15955e-07 -4.16352e-07
0.0275864 6.50192e-07 -6.6245e-07
0.0148 -3.82742e-07 -2.16508e-06
0.0148012 -0.000331067 -0.00303285
0.0167984 0.000129443 -0.00624919
0.0194606 0.00194276 -0.00545485
0.0218226 0.00446447 -0.00368836
0.023895 0.00755008 -0.00250841
0.0271989 0.0126532 -0.00162585
0.0302236 0.0201923 -0.000886391
0.0245011 0.0121073 -0.000131923
0.0252236 6.37712e-10 0.00050555
0.0296037 -0.00721078 0.00170272
0.0344981 -0.0147922 0.00243755
0.0343481 -0.0136313 0.00138268
0.0317901 -0.00988155 0.00017141
0.0294697 -0.00584755 -0.000366001
0.0280503 -0.00299352 -0.000331626
0.0272803 -0.00145271 -0.000175246
0.0268675 -0.000713838 -7.49756e-05
0.0266418 -0.000363021 -2.93054e-05
0.0265156 -0.000190787 -1.10185e-05
0.0264437 -0.000102932 -4.0748e-06
0.026402 -5.6676e-05 -1.49465e-06
0.0263773 -3.17158e-05 -5.42135e-07
0.0263626 -1.79849e-05 -1.90021e-07
0.0263536 -1.03126e-05 -5.9544e-08
0.0263481 -5.96903e-06 -1.16531e-08
0.0263446 -3.48179e-06 5.02096e-09
0.0263424 -2.04307e-06 9.77191e-09
0.026341 -1.20341e-06 1.00303e-08
0.0263401 -7.09612e-07 8.73399e-09
0.0263395 -4.17458e-07 7.06009e-09
0.0263391 -2.43899e-07 5.46743e-09
0.0263388 -1.40637e-07 4.11301e-09
0.0263386 -7.93059e-08 3.02575e-09
0.0263385 -4.31016e-08 2.18224e-09
0.0263385 -2.19842e-08 1.5412e-09
0.0263384 -9.90739e-09 1.05833e-09
0.0263384 -3.1942e-09 6.91629e-10
0.0263383 4.32858e-10 4.01568e-10
0.0263383 2.45019e-09 1.47942e-10
0.0263383 3.92918e-09 -1.16762e-10
0.0263383 5.83919e-09 -4.58587e-10
0.0263383 9.34138e-09 -9.81395e-10
0.0263383 1.61596e-08 -1.85996e-09
0.0263383 2.91641e-08 -3.42139e-09
0.0263383 5.33885e-08 -6.47493e-09
0.0263383 9.77376e-08 -1.27374e-08
0.0263384 1.80024e-07 -2.5421e-08
0.0263384 3.45275e-07 -8.68407e-08
0.0263386 6.5331e-07 -3.58302e-07
0.0263387 8.49812e-07 -5.76874e-07
0.01 -7.21314e-07 -1.946e-06
0.0100005 -0.000181301 -0.00257035
0.0123488 0.000317456 -0.00493019
0.0157375 0.00154681 -0.00385339