# vtk DataFile Version 2.0
Tobias Weinzierl: CPU, Manycore and Cluster Computing
ASCII

DATASET STRUCTURED_POINTS
DIMENSIONS  51 11 6

ORIGIN 0 0 0 

SPACING 0.1 0.1 0.1 

POINT_DATA 3366

VECTORS velocity float
0 0 0
-6.02396e-11 0 0
-5.06306e-08 0 0
-1.66149e-07 0 0
-2.64771e-07 0 0
-1.01275e-07 0 0
-3.5848e-08 0 0
9.31192e-10 0 0
7.77114e-09 0 0
-2.81864e-08 0 0
-7.93814e-08 0 0
-1.16123e-07 0 0
-1.30025e-07 0 0
-1.28933e-07 0 0
-1.23402e-07 0 0
-1.19504e-07 0 0
-1.18493e-07 0 0
-1.19406e-07 0 0
-1.21045e-07 0 0
-1.22668e-07 0 0
-1.23967e-07 0 0
-1.24894e-07 0 0
-1.25507e-07 0 0
-1.25893e-07 0 0
-1.26129e-07 0 0
-1.26274e-07 0 0
-1.26368e-07 0 0
-1.26436e-07 0 0
-1.26493e-07 0 0
-1.26546e-07 0 0
-1.266e-07 0 0
-1.26656e-07 0 0
-1.26715e-07 0 0
-1.26774e-07 0 0
-1.26835e-07 0 0
-1.26896e-07 0 0
-1.26956e-07 0 0
-1.27015e-07 0 0
-1.27071e-07 0 0
-1.27125e-07 0 0
-1.27176e-07 0 0
-1.27223e-07 0 0
-1.27267e-07 0 0
-1.27306e-07 0 0
-1.27342e-07 0 0
-1.27373e-07 0 0
-1.274e-07 0 0
-1.27423e-07 0 0
-1.27445e-07 0 0
-1.27471e-07 0 0
0.00241992 0 0
0 4.35035e-07 0
-9.25865e-11 1.61513e-08 0
-8.40191e-08 4.75367e-08 0
-3.00249e-07 6.56834e-08 0
-4.45706e-07 4.46146e-08 0
-1.83626e-07 6.3308e-08 0
-1.09338e-07 1.09238e-07 0
-6.81468e-08 9.06473e-08 0
-2.97482e-08 7.02775e-08 0
-5.66681e-08 7.33071e-08 0
-1.27843e-07 6.65265e-08 0
-1.90241e-07 4.42014e-08 0
-2.19184e-07 1.89232e-08 0
-2.23546e-07 2.55998e-09 0
-2.21896e-07 -2.83422e-09 0
-2.24319e-07 -1.96386e-09 0
-2.31308e-07 2.5815e-10 0
-2.3997e-07 1.65511e-09 0
-2.47942e-07 2.02193e-09 0
-2.54197e-07 1.78158e-09 0
-2.58637e-07 1.32672e-09 0
-2.61575e-07 8.77645e-10 0
-2.63419e-07 5.21152e-10 0
-2.64532e-07 2.71552e-10 0
-2.65187e-07 1.12744e-10 0
-2.6557e-07 2.06521e-11 0
-2.65804e-07 -2.69134e-11 0
-2.6596e-07 -4.70535e-11 0
-2.66082e-07 -5.16399e-11 0
-2.66191e-07 -4.82956e-11 0
-2.66298e-07 -4.15848e-11 0
-2.66409e-07 -3.40407e-11 0
-2.66523e-07 -2.6935e-11 0
-2.66641e-07 -2.0803e-11 0
-2.66761e-07 -1.57796e-11 0
-2.66882e-07 -1.18023e-11 0
-2.67001e-07 -8.72621e-12 0
-2.67118e-07 -6.38575e-12 0
-2.67231e-07 -4.62372e-12 0
-2.67338e-07 -3.30239e-12 0
-2.6744e-07 -2.30442e-12 0
-2.67534e-07 -1.52761e-12 0
-2.67621e-07 -8.74984e-13 0
-2.67699e-07 -2.38612e-13 0
-2.6777e-07 5.32515e-13 0
-2.67831e-07 1.69485e-12 0
-2.67885e-07 3.71451e-12 0
-2.67931e-07 7.58011e-12 0
-2.67975e-07 1.57671e-11 0
-2.68023e-07 3.28123e-11 0
0.00666442 -1.68433e-07 0
0 2.90279e-09 0
-5.3433e-11 1.78512e-08 0
-1.75022e-08 3.26415e-09 0
-1.76504e-07 -9.35142e-08 0
-2.19234e-07 -1.47066e-07 0
-3.06637e-08 -5.10684e-09 0
-1.06513e-07 1.52026e-07 0
-1.36913e-07 1.19977e-07 0
-1.04827e-07 3.90255e-08 0
-8.51429e-08 9.09317e-09 0
-1.22096e-07 6.29983e-09 0
-1.66552e-07 2.23694e-08 0
-1.89237e-07 4.22102e-08 0
-1.90163e-07 5.04813e-08 0
-1.86145e-07 4.71695e-08 0
-1.88214e-07 3.89083e-08 0
-1.96472e-07 2.98747e-08 0
-2.06902e-07 2.17141e-08 0
-2.16349e-07 1.50205e-08 0
-2.23543e-07 9.91497e-09 0
-2.28455e-07 6.24924e-09 0
-2.31562e-07 3.75077e-09 0
-2.33415e-07 2.1263e-09 0
-2.3447e-07 1.11739e-09 0
-2.35052e-07 5.20323e-10 0
-2.35371e-07 1.86378e-10 0
-2.35555e-07 1.31369e-11 0
-2.35676e-07 -6.65089e-11 0
-2.35775e-07 -9.46043e-11 0
-2.35869e-07 -9.63633e-11 0
-2.35967e-07 -8.62208e-11 0
-2.36073e-07 -7.19971e-11 0
-2.36184e-07 -5.76191e-11 0
-2.36301e-07 -4.48236e-11 0
-2.3642e-07 -3.41816e-11 0
-2.3654e-07 -2.56893e-11 0
-2.36659e-07 -1.90941e-11 0
-2.36776e-07 -1.40655e-11 0
-2.36888e-07 -1.02763e-11 0
-2.36996e-07 -7.43547e-12 0
-2.37097e-07 -5.29437e-12 0
-2.37191e-07 -3.63827e-12 0
-2.37278e-07 -2.26597e-12 0
-2.37356e-07 -9.57958e-13 0
-2.37426e-07 5.74087e-13 0
-2.37487e-07 2.80393e-12 0
-2.37539e-07 6.62107e-12 0
-2.37582e-07 1.34795e-11 0
-2.37619e-07 2.49295e-11 0
-2.37657e-07 4.32781e-11 0
0.00900659 -2.74634e-07 0
0 -6.22605e-07 0
-4.74639e-11 -1.11286e-08 0
4.05484e-08 -8.61844e-08 0
-8.80867e-08 -2.38799e-07 0
-1.42128e-07 -3.11791e-07 0
5.1698e-08 -1.48056e-07 0
-3.32308e-08 -1.12315e-10 0
-6.78451e-08 -3.93658e-08 0
-1.44985e-07 -1.11339e-07 0
-1.57319e-07 -1.33489e-07 0
-1.89343e-07 -9.12316e-08 0
-2.26511e-07 -1.72627e-08 0
-2.39614e-07 4.86612e-08 0
-2.24982e-07 7.48213e-08 0
-1.98873e-07 7.15114e-08 0
-1.78201e-07 5.80803e-08 0
-1.68086e-07 4.36527e-08 0
-1.656e-07 3.09309e-08 0
-1.66484e-07 2.07124e-08 0
-1.68078e-07 1.31179e-08 0
-1.69333e-07 7.84787e-09 0
-1.70063e-07 4.40423e-09 0
-1.70395e-07 2.27431e-09 0
-1.70496e-07 1.02737e-09 0
-1.70496e-07 3.41375e-10 0
-1.7047e-07 -6.12275e-12 0
-1.70456e-07 -1.59774e-10 0
-1.70469e-07 -2.08953e-10 0
-1.7051e-07 -2.06303e-10 0
-1.70577e-07 -1.81328e-10 0
-1.70664e-07 -1.49603e-10 0
-1.70766e-07 -1.18684e-10 0
-1.70879e-07 -9.17272e-11 0
-1.70997e-07 -6.96123e-11 0
-1.71119e-07 -5.21408e-11 0
-1.71242e-07 -3.86789e-11 0
-1.71363e-07 -2.84842e-11 0
-1.71481e-07 -2.08562e-11 0
-1.71595e-07 -1.51935e-11 0
-1.71704e-07 -1.10041e-11 0
-1.71806e-07 -7.89286e-12 0
-1.71901e-07 -5.53918e-12 0
-1.71987e-07 -3.66718e-12 0
-1.72066e-07 -2.0023e-12 0
-1.72135e-07 -2.1845e-13 0
-1.72195e-07 2.07353e-12 0
-1.72244e-07 5.3126e-12 0
-1.72284e-07 1.01906e-11 0
-1.72313e-07 1.80738e-11 0
-1.72342e-07 3.09705e-11 0
0.00963587 -2.36651e-07 0
0 -1.19511e-06 0
-1.20836e-10 -5.182e-08 0
1.67824e-08 -1.50316e-07 0
-1.21755e-07 -2.10838e-07 0
-2.30844e-07 -1.72878e-07 0
-5.54812e-11 -6.06266e-08 0
-3.31627e-09 -3.03949e-09 0
2.8803e-09 -3.04002e-09 0
-7.76881e-08 -8.36214e-08 0
-2.06707e-07 -1.6885e-07 0
-2.43095e-07 -1.22971e-07 0
-2.68218e-07 -2.46812e-08 0
-2.8354e-07 4.8771e-08 0
-2.72897e-07 6.94933e-08 0
-2.4023e-07 5.94142e-08 0
-2.0415e-07 4.45822e-08 0
-1.77753e-07 3.22818e-08 0
-1.62387e-07 2.22699e-08 0
-1.54255e-07 1.42254e-08 0
-1.49852e-07 8.25053e-09 0
-1.47233e-07 4.22788e-09 0
-1.45533e-07 1.76758e-09 0
-1.44388e-07 4.03185e-10 0
-1.43627e-07 -2.67097e-10 0
-1.43144e-07 -5.34722e-10 0
-1.42861e-07 -5.88955e-10 0
-1.4272e-07 -5.42811e-10 0
-1.42677e-07 -4.58839e-10 0
-1.427e-07 -3.68847e-10 0
-1.42767e-07 -2.87158e-10 0
-1.4286e-07 -2.18795e-10 0
-1.42972e-07 -1.64227e-10 0
-1.43093e-07 -1.21961e-10 0
-1.43219e-07 -8.98787e-11 0
-1.43348e-07 -6.58672e-11 0
-1.43475e-07 -4.80745e-11 0
-1.436e-07 -3.49848e-11 0
-1.43721e-07 -2.54047e-11 0
-1.43838e-07 -1.8418e-11 0
-1.43948e-07 -1.33316e-11 0
-1.44051e-07 -9.62469e-12 0
-1.44146e-07 -6.90307e-12 0
-1.44233e-07 -4.86317e-12 0
-1.44312e-07 -3.27351e-12 0
-1.44381e-07 -1.95411e-12 0
-1.4444e-07 -7.04433e-13 0
-1.44489e-07 8.45465e-13 0
-1.44527e-07 3.36955e-12 0
-1.44554e-07 7.82525e-12 0
-1.44581e-07 1.50221e-11 0
0.00976635 -1.27929e-07 0
0 -1.06652e-06 0
-1.72444e-10 -5.67295e-08 0
-1.66432e-08 -1.26707e-07 0
-1.49043e-07 -1.70677e-07 0
-2.83695e-07 -1.93118e-07 0
-1.21471e-07 -9.24526e-08 0
-3.13435e-09 3.06109e-09 0
-1.81618e-10 1.81618e-10 0
2.8057e-09 -2.9539e-09 0
-1.0606e-07 -7.90769e-08 0
-2.14653e-07 -1.22789e-07 0
-2.2526e-07 -2.12275e-08 0
-2.64108e-07 6.84008e-08 0
-2.93332e-07 7.97699e-08 0
-2.79806e-07 5.19518e-08 0
-2.38136e-07 2.69251e-08 0
-1.98132e-07 1.31159e-08 0
-1.71481e-07 5.69623e-09 0
-1.562e-07 1.25962e-09 0
-1.47703e-07 -1.29459e-09 0
-1.42861e-07 -2.46717e-09 0
-1.40027e-07 -2.73562e-09 0
-1.38361e-07 -2.51911e-09 0
-1.37404e-07 -2.10807e-09 0
-1.36886e-07 -1.66715e-09 0
-1.36639e-07 -1.27265e-09 0
-1.36556e-07 -9.49758e-10 0
-1.36572e-07 -6.98567e-10 0
-1.36646e-07 -5.09085e-10 0
-1.36754e-07 -3.68872e-10 0
-1.3688e-07 -2.66354e-10 0
-1.37015e-07 -1.91954e-10 0
-1.37154e-07 -1.38202e-10 0
-1.37293e-07 -9.94681e-11 0
-1.37431e-07 -7.15961e-11 0
-1.37565e-07 -5.1554e-11 0
-1.37695e-07 -3.71467e-11 0
-1.3782e-07 -2.67922e-11 0
-1.37939e-07 -1.93535e-11 0
-1.3805e-07 -1.40153e-11 0
-1.38155e-07 -1.01958e-11 0
-1.38251e-07 -7.48534e-12 0
-1.38339e-07 -5.60099e-12 0
-1.38418e-07 -4.34429e-12 0
-1.38488e-07 -3.5622e-12 0
-1.38547e-07 -3.12702e-12 0
-1.38597e-07 -2.92231e-12 0
-1.38635e-07 -2.72722e-12 0
-1.38662e-07 -2.0518e-12 0
-1.38688e-07 -5.38136e-13 0
0.00978514 1.35031e-09 0
0 -7.50236e-07 0
-1.63073e-10 -4.99274e-08 0
-2.13132e-08 -1.18701e-07 0
-1.48896e-07 -1.3034e-07 0
-3.04693e-07 -1.0748e-07 0
-2.71928e-07 -6.43896e-08 0
-7.89444e-08 -1.84701e-08 0
-3.10342e-09 3.0187e-09 0
-2.13355e-10 2.13355e-10 0
2.71761e-09 -2.89247e-09 0
-8.72786e-08 -4.21743e-08 0
-1.01404e-07 9.68427e-09 0
-1.70025e-07 1.29081e-07 0
-2.6758e-07 1.21891e-07 0
-3.02442e-07 5.58903e-08 0
-2.67728e-07 7.74477e-09 0
-2.16543e-07 -1.10193e-08 0
-1.79803e-07 -1.50522e-08 0
-1.59624e-07 -1.41706e-08 0
-1.49726e-07 -1.1859e-08 0
-1.45079e-07 -9.26786e-09 0
-1.42961e-07 -6.89637e-09 0
-1.42058e-07 -4.95752e-09 0
-1.41741e-07 -3.48469e-09 0
-1.41706e-07 -2.418e-09 0
-1.41802e-07 -1.66797e-09 0
-1.41957e-07 -1.14938e-09 0
-1.42133e-07 -7.93677e-10 0
-1.42315e-07 -5.50184e-10 0
-1.42494e-07 -3.83209e-10 0
-1.42668e-07 -2.68244e-10 0
-1.42835e-07 -1.88682e-10 0
-1.42996e-07 -1.33315e-10 0
-1.43151e-07 -9.45779e-11 0
-1.43299e-07 -6.734e-11 0
-1.43441e-07 -4.81039e-11 0
-1.43576e-07 -3.44696e-11 0
-1.43704e-07 -2.47798e-11 0
-1.43825e-07 -1.78851e-11 0
-1.43939e-07 -1.29864e-11 0
-1.44044e-07 -9.52948e-12 0
-1.44142e-07 -7.13341e-12 0
-1.4423e-07 -5.54321e-12 0
-1.4431e-07 -4.60441e-12 0
-1.4438e-07 -4.25624e-12 0
-1.44441e-07 -4.5465e-12 0
-1.44491e-07 -5.68073e-12 0
-1.4453e-07 -7.97535e-12 0
-1.44559e-07 -1.15088e-11 0
-1.44585e-07 -1.61666e-11 0
0.00976633 1.29677e-07 0
0 -5.31057e-07 0
-1.62723e-10 -4.43198e-08 0
-3.17512e-08 -1.01312e-07 0
-1.6081e-07 -1.01406e-07 0
-2.95582e-07 -5.75685e-08 0
-2.94396e-07 -1.89086e-08 0
-1.88302e-07 -3.43782e-08 0
-9.07528e-08 -2.86475e-08 0
-3.14227e-09 2.8946e-09 0
2.65916e-09 3.01307e-09 0
-1.52974e-10 -2.01495e-08 0
-3.90468e-08 6.82224e-08 0
-5.2573e-08 2.06444e-07 0
-1.41812e-07 1.78303e-07 0
-2.33712e-07 6.60747e-08 0
-2.50376e-07 -9.28126e-09 0
-2.20727e-07 -3.22532e-08 0
-1.9062e-07 -3.13849e-08 0
-1.73907e-07 -2.45807e-08 0
-1.67304e-07 -1.77068e-08 0
-1.65668e-07 -1.2177e-08 0
-1.65933e-07 -8.13781e-09 0
-1.66729e-07 -5.35432e-09 0
-1.67546e-07 -3.50395e-09 0
-1.68237e-07 -2.29753e-09 0
-1.68789e-07 -1.51659e-09 0
-1.69226e-07 -1.01043e-09 0
-1.69578e-07 -6.80179e-10 0
-1.69869e-07 -4.62623e-10 0
-1.70117e-07 -3.17725e-10 0
-1.70335e-07 -2.20139e-10 0
-1.7053e-07 -1.53713e-10 0
-1.7071e-07 -1.08056e-10 0
-1.70876e-07 -7.64029e-11 0
-1.71033e-07 -5.42946e-11 0
-1.7118e-07 -3.87563e-11 0
-1.71319e-07 -2.77807e-11 0
-1.71449e-07 -2.00004e-11 0
-1.71572e-07 -1.44768e-11 0
-1.71687e-07 -1.05628e-11 0
-1.71794e-07 -7.81371e-12 0
-1.71892e-07 -5.93124e-12 0
-1.71982e-07 -4.73126e-12 0
-1.72062e-07 -4.13352e-12 0
-1.72133e-07 -4.17404e-12 0
-1.72194e-07 -5.04573e-12 0
-1.72245e-07 -7.21679e-12 0
-1.72286e-07 -1.16252e-11 0
-1.72318e-07 -1.94905e-11 0
-1.72347e-07 -3.18382e-11 0
0.00963582 2.34327e-07 0
0 -4.68614e-07 0
-1.54912e-10 -3.40553e-08 0
-5.426e-08 -8.0365e-08 0
-1.92124e-07 -7.99073e-08 0
-3.11098e-07 -4.10797e-08 0
-3.14849e-07 2.53231e-09 0
-2.34283e-07 -7.57338e-09 0
-1.83362e-07 -8.65356e-08 0
-9.49636e-08 -6.89542e-08 0
-1.1048e-07 -2.37411e-11 0
-2.28369e-07 3.59924e-08 0
-2.85904e-07 1.09041e-07 0
-1.36127e-07 1.65404e-07 0
-5.95812e-08 1.48223e-07 0
-1.41705e-07 6.78594e-08 0
-2.21063e-07 2.34475e-09 0
-2.37147e-07 -2.33382e-08 0
-2.29363e-07 -2.46979e-08 0
-2.23947e-07 -1.85573e-08 0
-2.2372e-07 -1.24036e-08 0
-2.25819e-07 -7.9545e-09 0
-2.28257e-07 -5.05404e-09 0
-2.30299e-07 -3.23003e-09 0
-2.31826e-07 -2.09097e-09 0
-2.32923e-07 -1.37424e-09 0
-2.3371e-07 -9.16676e-10 0
-2.34285e-07 -6.19698e-10 0
-2.3472e-07 -4.23826e-10 0
-2.35062e-07 -2.92757e-10 0
-2.35342e-07 -2.0394e-10 0
-2.3558e-07 -1.43097e-10 0
-2.35789e-07 -1.01027e-10 0
-2.35978e-07 -7.17063e-11 0
-2.36151e-07 -5.11309e-11 0
-2.36311e-07 -3.66097e-11 0
-2.36461e-07 -2.63128e-11 0
-2.36602e-07 -1.89841e-11 0
-2.36734e-07 -1.37551e-11 0
-2.36858e-07 -1.00222e-11 0
-2.36974e-07 -7.36597e-12 0
-2.37082e-07 -5.49817e-12 0
-2.3718e-07 -4.22988e-12 0
-2.3727e-07 -3.45556e-12 0
-2.37351e-07 -3.1556e-12 0
-2.37422e-07 -3.42482e-12 0
-2.37484e-07 -4.53158e-12 0
-2.37537e-07 -7.05585e-12 0
-2.37581e-07 -1.23502e-11 0
-2.37617e-07 -2.31635e-11 0
-2.37653e-07 -4.31324e-11 0
0.00900653 2.63656e-07 0
0 -4.95269e-07 0
-1.49638e-10 -1.7484e-08 0
-7.45365e-08 -4.29716e-08 0
-2.06371e-07 -4.19255e-08 0
-3.01959e-07 -2.24916e-08 0
-3.20776e-07 -1.58887e-08 0
-2.70491e-07 -3.38061e-08 0
-2.36394e-07 -8.10216e-08 0
-2.61553e-07 -5.63238e-08 0
-2.47618e-07 7.98662e-08 0
-2.90747e-07 1.70346e-07 0
-2.6131e-07 1.08235e-07 0
-1.36443e-07 -2.30197e-08 0
-8.64492e-08 -8.61229e-08 0
-1.72756e-07 -6.78869e-08 0
-2.56557e-07 -2.16065e-08 0
-2.77182e-07 7.45837e-09 0
-2.69775e-07 1.31695e-08 0
-2.62055e-07 9.05492e-09 0
-2.59141e-07 4.37428e-09 0
-2.5918e-07 1.51828e-09 0
-2.60294e-07 1.8452e-10 0
-2.61559e-07 -3.05769e-10 0
-2.62653e-07 -4.14509e-10 0
-2.63516e-07 -3.79499e-10 0
-2.64178e-07 -3.05394e-10 0
-2.64688e-07 -2.32048e-10 0
-2.65089e-07 -1.71452e-10 0
-2.65414e-07 -1.24945e-10 0
-2.65686e-07 -9.04671e-11 0
-2.65921e-07 -6.53367e-11 0
-2.66128e-07 -4.71675e-11 0
-2.66317e-07 -3.40771e-11 0
-2.6649e-07 -2.46563e-11 0
-2.6665e-07 -1.78759e-11 0
-2.66801e-07 -1.29925e-11 0
-2.66942e-07 -9.47274e-12 0
-2.67075e-07 -6.935e-12 0
-2.672e-07 -5.10718e-12 0
-2.67316e-07 -3.79703e-12 0
-2.67423e-07 -2.87192e-12 0
-2.67522e-07 -2.24641e-12 0
-2.67612e-07 -1.87927e-12 0
-2.67693e-07 -1.77966e-12 0
-2.67765e-07 -2.03028e-12 0
-2.67828e-07 -2.84417e-12 0
-2.67882e-07 -4.6772e-12 0
-2.67929e-07 -8.58248e-12 0
-2.67971e-07 -1.69644e-11 0
-2.68018e-07 -3.37024e-11 0
0.00666443 1.52608e-07 0
0 0 0
-7.23618e-11 0 0
-3.9478e-08 0 0
-9.91297e-08 0 0
-1.38429e-07 0 0
-1.498e-07 0 0
-1.45592e-07 0 0
-1.43754e-07 0 0
-1.66702e-07 0 0
-1.37208e-07 0 0
-6.25183e-08 0 0
-4.16797e-09 0 0
-2.96717e-09 0 0
-5.09681e-08 0 0
-1.1312e-07 0 0
-1.4693e-07 0 0
-1.49027e-07 0 0
-1.39585e-07 0 0
-1.31369e-07 0 0
-1.26916e-07 0 0
-1.25127e-07 0 0
-1.24686e-07 0 0
-1.24796e-07 0 0
-1.25074e-07 0 0
-1.25368e-07 0 0
-1.25627e-07 0 0
-1.25845e-07 0 0
-1.26026e-07 0 0
-1.26177e-07 0 0
-1.26307e-07 0 0
-1.26421e-07 0 0
-1.26523e-07 0 0
-1.26616e-07 0 0
-1.26702e-07 0 0
-1.26782e-07 0 0
-1.26857e-07 0 0
-1.26928e-07 0 0
-1.26994e-07 0 0
-1.27056e-07 0 0
-1.27114e-07 0 0
-1.27168e-07 0 0
-1.27218e-07 0 0
-1.27263e-07 0 0
-1.27304e-07 0 0
-1.2734e-07 0 0
-1.27371e-07 0 0
-1.27399e-07 0 0
-1.27423e-07 0 0
-1.27445e-07 0 0
-1.27472e-07 0 0
0.00241995 0 0
0 0 5.5274e-07
-6.58042e-11 0 3.43248e-08
-7.57056e-08 0 1.18397e-07
-3.24874e-07 0 1.48301e-07
-7.16713e-07 0 -1.09648e-07
-2.57949e-07 0 -2.92394e-07
-4.10312e-08 0 -2.11609e-07
9.02809e-08 0 -1.34431e-07
1.41879e-07 0 -4.13231e-08
1.00705e-07 0 1.36834e-08
7.28386e-09 0 2.12489e-08
-8.62537e-08 0 6.2804e-09
-1.5179e-07 0 -6.27719e-09
-1.8854e-07 0 -9.34816e-09
-2.07876e-07 0 -6.76032e-09
-2.20799e-07 0 -3.10947e-09
-2.32241e-07 0 -5.18572e-10
-2.42689e-07 0 7.36979e-10
-2.51428e-07 0 1.08254e-09
-2.58075e-07 0 9.85035e-10
-2.62755e-07 0 7.46057e-10
-2.65859e-07 0 5.10183e-10
-2.67822e-07 0 3.26463e-10
-2.69019e-07 0 1.99233e-10
-2.69732e-07 0 1.17249e-10
-2.70154e-07 0 6.69809e-11
-2.70411e-07 0 3.72875e-11
-2.70582e-07 0 2.0271e-11
-2.70712e-07 0 1.07751e-11
-2.70825e-07 0 5.60811e-12
-2.70934e-07 0 2.86916e-12
-2.71045e-07 0 1.45901e-12
-2.7116e-07 0 7.57911e-13
-2.71277e-07 0 4.24572e-13
-2.71397e-07 0 2.75428e-13
-2.71517e-07 0 2.14299e-13
-2.71636e-07 0 1.92389e-13
-2.71753e-07 0 1.86075e-13
-2.71865e-07 0 1.8485e-13
-2.71972e-07 0 1.84984e-13
-2.72074e-07 0 1.8637e-13
-2.72168e-07 0 1.91353e-13
-2.72255e-07 0 2.04699e-13
-2.72333e-07 0 2.34569e-13
-2.72403e-07 0 3.00744e-13
-2.72465e-07 0 4.5635e-13
-2.72519e-07 0 8.31837e-13
-2.72566e-07 0 1.94666e-12
-2.7261e-07 0 5.86513e-12
-2.7266e-07 0 1.71916e-11
0.00664805 0 -8.01876e-08
0.0036 -1.41319e-07 4.95865e-08
0.0035998 -0.00131088 -4.07852e-05
0.00692744 -0.00415295 -0.000448098
0.0142275 -0.00748223 -0.00210308
0.0254448 -0.0140009 -0.00515796
0.0462535 -0.0109781 -0.00457528
0.0491645 -0.000921332 -0.00129182
0.0486612 0.00320712 0.000256001
0.0434206 0.00533088 0.000848021
0.0377608 0.00527513 0.000556419
0.0327299 0.00434165 4.34122e-05
0.028556 0.0032113 -0.000305606
0.0253256 0.00219779 -0.00039691
0.0230066 0.00143074 -0.000317381
0.0214353 0.000914785 -0.000192941
0.0204071 0.000585474 -9.52634e-05
0.0197508 0.000374472 -3.84207e-05
0.0193413 0.000237064 -1.1397e-05
0.0190917 0.000147446 -7.79846e-07
0.0189431 8.97856e-05 2.32565e-06
0.0188568 5.3451e-05 2.54876e-06
0.0188079 3.10719e-05 1.93922e-06
0.0187811 1.76004e-05 1.26776e-06
0.0187669 9.67519e-06 7.54601e-07
0.0187597 5.12271e-06 4.16452e-07
0.0187564 2.57539e-06 2.1248e-07
0.0187551 1.19352e-06 9.74384e-08
0.0187547 4.73098e-07 3.65593e-08
0.0187548 1.18191e-07 6.6991e-09
0.0187551 -4.11493e-08 -6.3406e-09
0.0187554 -1.00213e-07 -1.07814e-08
0.0187557 -1.10992e-07 -1.11612e-08
0.0187559 -1.00909e-07 -9.86585e-09
0.0187561 -8.37791e-08 -8.07726e-09
0.0187562 -6.60871e-08 -6.33211e-09
0.0187563 -5.05133e-08 -4.8371e-09
0.0187564 -3.786e-08 -3.64102e-09
0.0187564 -2.80783e-08 -2.72507e-09
0.0187565 -2.07953e-08 -2.04887e-09
0.0187565 -1.55734e-08 -1.57352e-09
0.0187565 -1.20328e-08 -1.2741e-09
0.0187565 -9.91041e-09 -1.1478e-09
0.0187566 -9.10554e-09 -1.22301e-09
0.0187566 -9.74031e-09 -1.56331e-09
0.0187566 -1.22595e-08 -2.23447e-09
0.0187566 -1.77721e-08 -3.32243e-09
0.0187567 -2.84536e-08 -4.44582e-09
0.0187567 -4.84293e-08 -3.2119e-09
0.0187569 -1.10662e-07 -1.92544e-08
0.0187571 -3.17966e-07 -1.42859e-07
0.0187576 -4.76089e-07 -2.48763e-07
0.01 -8.40653e-08 -1.25976e-06
0.010001 -0.00313378 -0.000510856
0.0149936 -0.010294 -0.00116074
0.0240287 -0.0182718 -0.00266328
0.037321 -0.0303635 -0.00418231
0.0569355 -0.0214973 -0.00115997
0.0549157 -0.00158476 0.00219026
0.054959 0.00575305 0.00251212
0.0494299 0.0106462 0.00232738
0.0439213 0.01063 0.00138752
0.0392478 0.00939393 0.000311273
0.0352087 0.00770385 -0.000378871
0.0319824 0.00582156 -0.000598871
0.0296941 0.00407395 -0.000507385
0.0281799 0.00269804 -0.000317702
0.0272146 0.00172674 -0.000160491
0.0266164 0.00107889 -6.65332e-05
0.0262567 0.000660103 -2.0812e-05
0.0260474 0.000395609 -2.25101e-06
0.0259297 0.000232096 3.58282e-06
0.0258662 0.000133101 4.34907e-06
0.0258336 7.44006e-05 3.51887e-06
0.0258179 4.03302e-05 2.4522e-06
0.0258111 2.10056e-05 1.57822e-06
0.0258089 1.03288e-05 9.66015e-07
0.0258088 4.61643e-06 5.70791e-07
0.0258095 1.68824e-06 3.28279e-07
0.0258104 2.7986e-07 1.84623e-07
0.0258113 -3.26493e-07 1.01752e-07
0.0258121 -5.28774e-07 5.49641e-08
0.0258128 -5.41533e-07 2.90384e-08
0.0258132 -4.76363e-07 1.49236e-08
0.0258136 -3.88435e-07 7.37661e-09
0.0258139 -3.02897e-07 3.42243e-09
0.0258141 -2.29516e-07 1.40208e-09
0.0258142 -1.70623e-07 4.04479e-10
0.0258143 -1.25274e-07 -6.37395e-11
0.0258144 -9.13616e-08 -2.6663e-10
0.0258144 -6.66146e-08 -3.45238e-10
0.0258145 -4.90348e-08 -3.77816e-10
0.0258145 -3.70639e-08 -4.15052e-10
0.0258145 -2.96429e-08 -5.00762e-10
0.0258146 -2.62663e-08 -6.85271e-10
0.0258146 -2.71441e-08 -1.03546e-09
0.0258146 -3.35244e-08 -1.54357e-09
0.0258146 -4.84224e-08 -1.95943e-09
0.0258147 -8.10782e-08 -2.01469e-09
0.0258147 -1.5534e-07 -6.7181e-10
0.0258149 -3.03321e-07 -3.07732e-08
0.0258151 -5.70417e-07 -2.28268e-07
0.0258153 -7.41298e-07 -3.94451e-07
0.0148 -9.71721e-07 -1.58551e-06
0.0148024 -0.0053391 -0.0010521
0.0199647 -0.0162283 -0.00265075
0.0262369 -0.0276036 -0.00466181
0.0306451 -0.0431878 -0.00531248
0.0291562 -0.0264924 -0.00086456
0.0262298 -1.13462e-05 0.00250301
0.0262007 0.00745449 0.00254977
0.0305907 0.0154813 0.00247037
0.0309215 0.0151964 0.00154617
0.0297499 0.0132961 0.000541615
0.0285842 0.010918 -0.000158484
0.0277795 0.00812433 -0.000413325
0.0274831 0.00551804 -0.000376343
0.0274445 0.00355151 -0.000230945
0.027484 0.0022192 -0.000102146
0.0275343 0.00135621 -2.59171e-05
0.0275808 0.000809975 7.5142e-06
0.0276217 0.000471608 1.69463e-05
0.0276564 0.000267028 1.60977e-05
0.0276846 0.000146488 1.22111e-05
0.0277065 7.73323e-05 8.3045e-06
0.0277227 3.87614e-05 5.29015e-06
0.0277344 1.79283e-05 3.22513e-06
0.0277425 7.11796e-06 1.90435e-06
0.0277482 1.81503e-06 1.09683e-06
0.027752 -5.58693e-07 6.18745e-07
0.0277546 -1.439e-06 3.42569e-07
0.0277564 -1.60368e-06 1.86189e-07
0.0277576 -1.46014e-06 9.91755e-08
0.0277584 -1.21231e-06 5.15498e-08
0.0277589 -9.5542e-07 2.59223e-08
0.0277593 -7.28623e-07 1.23966e-08
0.0277596 -5.43543e-07 5.42916e-09
0.0277597 -3.99328e-07 1.9583e-09
0.0277599 -2.90298e-07 3.15933e-10
0.0277599 -2.09622e-07 -3.94268e-10
0.02776 -1.50937e-07 -6.46899e-10
0.02776 -1.08941e-07 -6.89942e-10
0.0277601 -7.95099e-08 -6.53167e-10
0.0277601 -5.96357e-08 -6.0911e-10
0.0277601 -4.73381e-08 -6.07693e-10
0.0277601 -4.16416e-08 -6.89381e-10
0.0277601 -4.27158e-08 -8.7811e-10
0.0277602 -5.26936e-08 -1.1898e-09
0.0277602 -7.73369e-08 -1.79491e-09
0.0277602 -1.25156e-07 -3.81928e-09
0.0277602 -2.05646e-07 -9.88456e-09
0.0277603 -3.30734e-07 -5.96237e-08
0.0277603 -5.14802e-07 -2.91806e-07
0.0277603 -6.23489e-07 -4.78767e-07
0.018 -2.01447e-06 -1.73314e-06
0.0180026 -0.0066538 -0.00188684
0.0203088 -0.0177862 -0.00505879
0.0200774 -0.0232719 -0.00666518
0.0158584 -0.025383 -0.00707318
-1.34846e-06 -0.0132526 -0.00358114
0.000101302 3.1413e-05 7.44624e-07
-3.7552e-05 3.94263e-05 0.000483524
0.0071957 0.00488862 0.00100579
0.0150538 0.0111008 0.000886156
0.0184725 0.0118344 0.000467009
0.0200902 0.00998629 -3.21271e-06
0.0218102 0.00723619 -0.00026762
0.0235846 0.00463123 -0.000279258
0.025087 0.00281628 -0.000172525
0.0261867 0.00168234 -6.29255e-05
0.0269224 0.000988511 4.17976e-06
0.0273935 0.000564173 3.04952e-05
0.02769 0.000308619 3.31267e-05
0.0278752 0.000159655 2.65316e-05
0.02799 7.64201e-05 1.84607e-05
0.0280606 3.21326e-05 1.18315e-05
0.0281036 9.93964e-06 7.18367e-06
0.0281296 -2.66775e-07 4.19585e-06
0.0281452 -4.2823e-06 2.37809e-06
0.0281545 -5.29461e-06 1.31383e-06
0.02816 -4.98487e-06 7.08513e-07
0.0281633 -4.19751e-06 3.72303e-07
0.0281652 -3.329e-06 1.89533e-07
0.0281664 -2.54539e-06 9.23213e-08
0.0281671 -1.89997e-06 4.18983e-08
0.0281676 -1.39486e-06 1.65836e-08
0.0281678 -1.01203e-06 4.46756e-09
0.028168 -7.28052e-07 -8.84114e-10
0.0281681 -5.20584e-07 -2.88773e-09
0.0281682 -3.70729e-07 -3.32065e-09
0.0281682 -2.63476e-07 -3.08371e-09
0.0281682 -1.87368e-07 -2.61738e-09
0.0281682 -1.33903e-07 -2.12665e-09
0.0281683 -9.69314e-08 -1.70224e-09
0.0281683 -7.21555e-08 -1.38619e-09
0.0281683 -5.676e-08 -1.20928e-09
0.0281683 -4.92541e-08 -1.22725e-09
0.0281683 -4.94964e-08 -1.57133e-09
0.0281683 -5.83827e-08 -2.53448e-09
0.0281683 -7.70701e-08 -4.98869e-09
0.0281683 -1.06659e-07 -1.08096e-08
0.0281682 -1.47976e-07 -2.23924e-08
0.0281682 -2.05539e-07 -8.14747e-08
0.0281681 -2.86867e-07 -3.23764e-07
0.028168 -3.34308e-07 -5.14563e-07
0.0196 -2.63814e-06 -2.68391e-06
0.0196008 -0.0053558 -0.00272648
0.0191083 -0.0120821 -0.00653919
0.0161888 -0.014689 -0.00702321
0.0113575 -0.0133881 -0.00663888
0.00219263 -0.00542798 -0.00440041
7.64869e-05 -7.03802e-05 -0.000969432
3.28283e-05 -3.28283e-05 -4.52871e-08
-3.66018e-05 3.85023e-05 0.000146823
0.00484012 0.00368418 0.000302201
0.0110253 0.00822949 0.000241517
0.0138135 0.00770689 -2.38241e-05
0.0171026 0.00482598 -0.000291346
0.0203997 0.0024088 -0.0003404
0.0231541 0.00104651 -0.00025034
0.0251286 0.000417779 -0.000120294
0.0263961 0.000146505 -2.37139e-05
0.0271627 2.56055e-05 2.1111e-05
0.0276148 -2.77826e-05 3.09974e-05
0.0278784 -4.67587e-05 2.61e-05
0.0280306 -4.8201e-05 1.80441e-05
0.0281177 -4.1976e-05 1.12432e-05
0.028167 -3.35336e-05 6.56545e-06
0.0281946 -2.54697e-05 3.66151e-06
0.0282098 -1.87486e-05 1.96729e-06
0.0282182 -1.35295e-05 1.02025e-06
0.0282227 -9.63996e-06 5.08225e-07
0.0282251 -6.81324e-06 2.39599e-07
0.0282263 -4.79085e-06 1.03109e-07
0.028227 -3.3581e-06 3.65132e-08
0.0282273 -2.3493e-06 5.93183e-09
0.0282274 -1.64172e-06 -6.66089e-09
0.0282275 -1.1466e-06 -1.06491e-08
0.0282275 -8.00659e-07 -1.07991e-08
0.0282275 -5.59215e-07 -9.45537e-09
0.0282275 -3.90875e-07 -7.71721e-09
0.0282275 -2.7367e-07 -6.05994e-09
0.0282275 -1.92273e-07 -4.65793e-09
0.0282274 -1.36024e-07 -3.55064e-09
0.0282274 -9.75524e-08 -2.72826e-09
0.0282274 -7.18201e-08 -2.1798e-09
0.0282274 -5.5458e-08 -1.92746e-09
0.0282274 -4.62227e-08 -2.0712e-09
0.0282274 -4.24569e-08 -2.86524e-09
0.0282274 -4.26486e-08 -4.73894e-09
0.0282274 -4.50044e-08 -8.48757e-09
0.0282274 -4.69261e-08 -1.57461e-08
0.0282273 -4.38008e-08 -2.82259e-08
0.0282273 -3.13366e-08 -8.82366e-08
0.0282272 -1.09396e-08 -3.31436e-07
0.028227 5.79348e-10 -5.22389e-07
0.0196 -1.295e-06 -3.59738e-06
0.0196001 -0.00328662 -0.0030709
0.0190064 -0.0069651 -0.00659987
0.0177249 -0.00661631 -0.00655465
0.0138965 -0.00291213 -0.00573256
0.0100229 0.00335384 -0.0045472
0.00645773 0.00332944 -0.00225829
7.65466e-05 -6.42139e-05 -0.000421745
2.76122e-05 -2.76122e-05 -1.32704e-07
-3.55374e-05 3.76662e-05 4.1807e-05
0.00367163 0.00282745 0.000339283
0.00829793 0.00398622 0.00037818
0.0137296 0.000851416 -3.37529e-05
0.0186174 -0.0012027 -0.000321236
0.0224269 -0.00175465 -0.000379143
0.0249856 -0.00148147 -0.000261002
0.0264879 -0.00102585 -0.000116379
0.027301 -0.000662481 -2.8696e-05
0.0277269 -0.000422012 5.00313e-06
0.0279474 -0.000269201 1.166e-05
0.0280607 -0.000171892 9.48433e-06
0.0281181 -0.000109685 6.02576e-06
0.0281466 -6.99819e-05 3.38948e-06
0.0281603 -4.47338e-05 1.75483e-06
0.0281665 -2.87129e-05 8.41249e-07
0.0281691 -1.85406e-05 3.65036e-07
0.02817 -1.20591e-05 1.31576e-07
0.0281701 -7.90523e-06 2.50989e-08
0.0281699 -5.22337e-06 -1.82086e-08
0.0281696 -3.47761e-06 -3.17751e-08
0.0281693 -2.33157e-06 -3.2394e-08
0.028169 -1.57304e-06 -2.8144e-08
0.0281688 -1.06717e-06 -2.26963e-08
0.0281687 -7.27493e-07 -1.75704e-08
0.0281686 -4.98089e-07 -1.32789e-08
0.0281685 -3.4243e-07 -9.89377e-09
0.0281684 -2.36453e-07 -7.31706e-09
0.0281684 -1.6418e-07 -5.40502e-09
0.0281684 -1.14923e-07 -4.02312e-09
0.0281683 -8.14753e-08 -3.07068e-09
0.0281683 -5.89142e-08 -2.49653e-09
0.0281683 -4.37483e-08 -2.31632e-09
0.0281683 -3.32896e-08 -2.63356e-09
0.0281683 -2.51198e-08 -3.66418e-09
0.0281683 -1.65336e-08 -5.74095e-09
0.0281682 -3.87536e-09 -9.53953e-09
0.0281682 1.83917e-08 -1.66532e-08
0.0281682 6.02403e-08 -2.81985e-08
0.0281681 1.38154e-07 -8.42157e-08
0.028168 2.61764e-07 -3.21413e-07
0.0281679 3.34946e-07 -5.09538e-07
0.018 -8.14752e-07 -3.53098e-06
0.018001 -0.00164199 -0.0030103
0.0184819 -0.00284866 -0.00626333
0.0188232 -0.00128105 -0.00579244
0.0182139 0.00182158 -0.00463817
0.0181575 0.00762845 -0.00364356
0.018723 0.0126925 -0.0022144
0.0115489 0.00695917 -0.000991996
7.83086e-05 -5.01193e-05 -0.000318614
-2.85154e-05 -5.76792e-05 5.54511e-07
7.9246e-06 -0.000211062 0.000839995
0.0093525 -0.00247048 0.00135053
0.0170802 -0.00537206 0.000700235
0.0219534 -0.00601639 0.000101978
0.0248433 -0.0050481 -0.000272715
0.0264752 -0.00346324 -0.000326225
0.0272958 -0.002087 -0.000213493
0.0276512 -0.00118986 -0.000102598
0.0277809 -0.000674059 -4.0942e-05
0.0278153 -0.000386012 -1.46382e-05
0.0278148 -0.000223696 -4.99704e-06
0.0278044 -0.000130951 -1.77431e-06
0.0277931 -7.74111e-05 -7.45445e-07
0.0277838 -4.62501e-05 -4.06786e-07
0.0277768 -2.79601e-05 -2.72758e-07
0.0277717 -1.71186e-05 -1.99443e-07
0.0277682 -1.06191e-05 -1.47984e-07
0.0277657 -6.67389e-06 -1.08666e-07
0.027764 -4.24759e-06 -7.86362e-08
0.0277628 -2.73553e-06 -5.62216e-08
0.027762 -1.78094e-06 -3.9874e-08
0.0277614 -1.17081e-06 -2.81608e-08
0.027761 -7.76362e-07 -1.98677e-08
0.0277608 -5.18724e-07 -1.4038e-08
0.0277606 -3.48925e-07 -9.95512e-09
0.0277604 -2.36168e-07 -7.10048e-09
0.0277603 -1.60836e-07 -5.10805e-09
0.0277603 -1.10277e-07 -3.72544e-09
0.0277602 -7.62212e-08 -2.78511e-09
0.0277602 -5.31539e-08 -2.18628e-09
0.0277602 -3.72709e-08 -1.88622e-09
0.0277602 -2.57517e-08 -1.89902e-09
0.0277602 -1.61978e-08 -2.30698e-09
0.0277601 -6.11007e-09 -3.28467e-09
0.0277601 7.72608e-09 -5.09084e-09
0.0277601 3.00849e-08 -8.26363e-09
0.0277601 6.84432e-08 -1.4288e-08
0.0277601 1.36668e-07 -2.3627e-08
0.0277601 2.66209e-07 -7.00125e-08
0.0277601 4.86953e-07 -2.88515e-07
0.02776 6.22098e-07 -4.66034e-07
0.0148 -4.80535e-07 -3.07343e-06
0.0148016 -0.000734229 -0.00280146
0.0164828 -0.000777698 -0.0055993
0.0185828 0.00113908 -0.00483957
0.0205596 0.00412569 -0.00360083
0.0226636 0.00761646 -0.00287354
0.0262737 0.0127437 -0.00203204
0.0293907 0.0198173 -0.0011153
0.0239457 0.0117474 -0.000145324
0.0243294 9.14665e-10 0.000587143
0.0278653 -0.00694402 0.00150406
0.032461 -0.0137279 0.00231552
0.0336741 -0.0119786 0.00202447
0.0323949 -0.00885406 0.00117127
0.0303045 -0.00600257 0.000168101
0.0285422 -0.00368346 -0.000343001
0.0273945 -0.00205051 -0.000361448
0.0267212 -0.00107785 -0.000220835
0.0263375 -0.000559654 -0.000107504
0.0261191 -0.000294599 -4.70039e-05
0.025994 -0.000158603 -1.9567e-05
0.0259216 -8.74095e-05 -7.99862e-06
0.0258794 -4.92448e-05 -3.27147e-06
0.0258544 -2.83087e-05 -1.35636e-06
0.0258394 -1.65761e-05 -5.75138e-07
0.0258302 -9.87148e-06 -2.50286e-07
0.0258246 -5.97107e-06 -1.11317e-07
0.0258211 -3.66436e-06 -4.99104e-08
0.0258188 -2.2791e-06 -2.19828e-08
0.0258174 -1.43515e-06 -9.07292e-09
0.0258164 -9.13987e-07 -3.14111e-09
0.0258158 -5.88067e-07 -5.29462e-10
0.0258154 -3.81854e-07 4.95114e-10
0.0258151 -2.49995e-07 7.7796e-10
0.025815 -1.64888e-07 7.35685e-10
0.0258148 -1.09511e-07 5.70524e-10
0.0258147 -7.3231e-08 3.75148e-10
0.0258147 -4.9307e-08 1.85203e-10
0.0258147 -3.33865e-08 5.32975e-12
0.0258146 -2.25678e-08 -1.79496e-10
0.0258146 -1.47898e-08 -4.02074e-10
0.0258146 -8.39258e-09 -7.17708e-10
0.0258146 -1.74337e-09 -1.21566e-09
0.0258146 7.1579e-09 -2.04008e-09
0.0258146 2.12054e-08 -3.37978e-09
0.0258146 4.5116e-08 -5.57886e-09
0.0258146 8.6775e-08 -9.70665e-09
0.0258146 1.60211e-07 -1.61061e-08
0.0258147 3.04437e-07 -4.95906e-08
0.0258148 5.68848e-07 -2.30153e-07
0.025815 7.36035e-07 -3.80932e-07
0.01 -9.33483e-07 -2.74138e-06
0.0100008 -0.000454852 -0.00233062
0.0117224 -0.000235122 -0.00438809
0.0143546 0.001127 -0.00341674