# vtk DataFile Version 2.0
Tobias Weinzierl: CPU, Manycore and Cluster Computing
ASCII

DATASET STRUCTURED_POINTS
DIMENSIONS  51 11 6

ORIGIN 0 0 0 

SPACING 0.1 0.1 0.1 

POINT_DATA 3366

VECTORS velocity float
0 0 0
-2.07669e-15 0 0
-1.9613e-10 0 0
-3.92941e-10 0 0
-1.23237e-09 0 0
6.89208e-10 0 0
1.10383e-09 0 0
1.09455e-09 0 0
1.26095e-09 0 0
1.76503e-09 0 0
2.52523e-09 0 0
3.2905e-09 0 0
3.77816e-09 0 0
3.83505e-09 0 0
3.45137e-09 0 0
2.72141e-09 0 0
1.81092e-09 0 0
9.1294e-10 0 0
1.54707e-10 0 0
-4.58168e-10 0 0
-1.00378e-09 0 0
-1.56314e-09 0 0
-2.167e-09 0 0
-2.79232e-09 0 0
-3.38929e-09 0 0
-3.91113e-09 0 0
-4.33083e-09 0 0
-4.64345e-09 0 0
-4.85996e-09 0 0
-4.99911e-09 0 0
-5.08105e-09 0 0
-5.12362e-09 0 0
-5.14095e-09 0 0
-5.14331e-09 0 0
-5.13771e-09 0 0
-5.12864e-09 0 0
-5.11876e-09 0 0
-5.10952e-09 0 0
-5.10157e-09 0 0
-5.09509e-09 0 0
-5.09003e-09 0 0
-5.08619e-09 0 0
-5.08336e-09 0 0
-5.08132e-09 0 0
-5.07988e-09 0 0
-5.07891e-09 0 0
-5.07828e-09 0 0
-5.07792e-09 0 0
-5.07777e-09 0 0
-5.0779e-09 0 0
0.00188542 0 0
0 3.86952e-07 0
6.81662e-15 1.53749e-11 0
-2.912e-10 -1.80212e-10 0
-3.07944e-10 -5.52572e-11 0
-7.42308e-10 -6.78029e-10 0
2.3623e-09 -5.72897e-10 0
2.83019e-09 8.03568e-10 0
2.64578e-09 7.31904e-10 0
3.35307e-09 -2.25122e-10 0
5.09925e-09 -1.37414e-09 0
7.51171e-09 -2.34886e-09 0
9.82137e-09 -2.8195e-09 0
1.12232e-08 -2.56073e-09 0
1.1299e-08 -1.5939e-09 0
1.02053e-08 -2.98305e-10 0
8.4485e-09 7.87392e-10 0
6.49222e-09 1.32647e-09 0
4.58076e-09 1.33957e-09 0
2.75031e-09 1.08364e-09 0
9.23821e-10 8.20893e-10 0
-9.84948e-10 6.77384e-10 0
-3.00231e-09 6.44601e-10 0
-5.07221e-09 6.54049e-10 0
-7.07677e-09 6.4483e-10 0
-8.88372e-09 5.91629e-10 0
-1.03933e-08 5.00215e-10 0
-1.15625e-08 3.90587e-10 0
-1.24029e-08 2.8263e-10 0
-1.29623e-08 1.89348e-10 0
-1.33036e-08 1.16185e-10 0
-1.3489e-08 6.31709e-11 0
-1.35712e-08 2.74551e-11 0
-1.35902e-08 5.20271e-12 0
-1.35743e-08 -7.32337e-12 0
-1.35423e-08 -1.32778e-11 0
-1.35053e-08 -1.5096e-11 0
-1.34697e-08 -1.45342e-11 0
-1.34385e-08 -1.27818e-11 0
-1.34127e-08 -1.05921e-11 0
-1.33924e-08 -8.40426e-12 0
-1.33768e-08 -6.44353e-12 0
-1.33652e-08 -4.7995e-12 0
-1.33567e-08 -3.48158e-12 0
-1.33507e-08 -2.45698e-12 0
-1.33464e-08 -1.6743e-12 0
-1.33436e-08 -1.07691e-12 0
-1.33417e-08 -6.06754e-13 0
-1.33406e-08 -1.94364e-13 0
-1.33402e-08 2.88919e-13 0
-1.33406e-08 1.09942e-12 0
0.00543343 -9.34541e-09 0
0 -1.86734e-08 0
2.71191e-13 -3.31518e-11 0
2.50344e-10 -8.57436e-10 0
1.30012e-09 -2.27851e-09 0
2.70549e-09 -3.97514e-09 0
4.66228e-09 -2.78888e-09 0
3.63418e-09 4.9038e-11 0
2.66124e-09 -2.0299e-10 0
3.0501e-09 -2.0106e-09 0
5.37874e-09 -3.97229e-09 0
8.94606e-09 -5.83826e-09 0
1.24048e-08 -7.2732e-09 0
1.45082e-08 -7.74486e-09 0
1.4449e-08 -6.79839e-09 0
1.26703e-08 -4.54073e-09 0
1.01622e-08 -1.58128e-09 0
7.61092e-09 1.33002e-09 0
5.20265e-09 3.58762e-09 0
2.86881e-09 4.89947e-09 0
5.39147e-10 5.31366e-09 0
-1.78618e-09 5.09411e-09 0
-4.06793e-09 4.53451e-09 0
-6.24737e-09 3.84075e-09 0
-8.24359e-09 3.12101e-09 0
-9.96518e-09 2.42876e-09 0
-1.13415e-08 1.79841e-09 0
-1.23485e-08 1.25628e-09 0
-1.30123e-08 8.1798e-10 0
-1.33941e-08 4.85673e-10 0
-1.35679e-08 2.49811e-10 0
-1.3604e-08 9.38063e-11 0
-1.35594e-08 -1.10439e-12 0
-1.34753e-08 -5.24535e-11 0
-1.33786e-08 -7.48175e-11 0
-1.32849e-08 -7.93236e-11 0
-1.32024e-08 -7.38896e-11 0
-1.31338e-08 -6.37902e-11 0
-1.30792e-08 -5.22962e-11 0
-1.30371e-08 -4.1257e-11 0
-1.30056e-08 -3.15755e-11 0
-1.29824e-08 -2.35665e-11 0
-1.29657e-08 -1.7209e-11 0
-1.29538e-08 -1.23132e-11 0
-1.29455e-08 -8.6238e-12 0
-1.29398e-08 -5.87769e-12 0
-1.2936e-08 -3.82848e-12 0
-1.29336e-08 -2.24282e-12 0
-1.29322e-08 -8.49119e-13 0
-1.29317e-08 6.82012e-13 0
-1.29321e-08 2.69262e-12 0
0.00786602 -2.38484e-08 0
0 -6.39313e-07 0
5.66808e-13 -5.41877e-10 0
6.81548e-10 -2.14158e-09 0
2.115e-09 -4.26644e-09 0
3.06058e-09 -5.55905e-09 0
2.98918e-09 -2.89315e-09 0
1.90702e-09 -1.79258e-12 0
1.11002e-09 -9.85517e-10 0
6.85404e-11 -3.08992e-09 0
1.04414e-09 -5.56848e-09 0
4.10166e-09 -8.57771e-09 0
7.26223e-09 -1.16655e-08 0
9.27831e-09 -1.33117e-08 0
9.09777e-09 -1.2333e-08 0
7.11161e-09 -8.82928e-09 0
4.23324e-09 -3.60074e-09 0
1.16685e-09 2.09304e-09 0
-1.66093e-09 6.83904e-09 0
-3.95361e-09 9.64638e-09 0
-5.51553e-09 1.03527e-08 0
-6.33274e-09 9.49761e-09 0
-6.5874e-09 7.85008e-09 0
-6.54228e-09 6.01861e-09 0
-6.40037e-09 4.33634e-09 0
-6.24736e-09 2.93007e-09 0
-6.08289e-09 1.82223e-09 0
-5.88053e-09 9.9404e-10 0
-5.62754e-09 4.10721e-10 0
-5.33384e-09 2.97368e-11 0
-5.02316e-09 -1.9428e-10 0
-4.72099e-09 -3.04713e-10 0
-4.44684e-09 -3.39107e-10 0
-4.21169e-09 -3.27202e-10 0
-4.01897e-09 -2.90719e-10 0
-3.86677e-09 -2.44311e-10 0
-3.75018e-09 -1.97032e-10 0
-3.66313e-09 -1.53864e-10 0
-3.5995e-09 -1.1704e-10 0
-3.55384e-09 -8.70912e-11 0
-3.52157e-09 -6.35906e-11 0
-3.49909e-09 -4.56616e-11 0
-3.4836e-09 -3.22874e-11 0
-3.47306e-09 -2.24861e-11 0
-3.46597e-09 -1.53937e-11 0
-3.46127e-09 -1.02884e-11 0
-3.45824e-09 -6.5755e-12 0
-3.45638e-09 -3.75539e-12 0
-3.45532e-09 -1.38333e-12 0
-3.45474e-09 9.03047e-13 0
-3.4546e-09 3.25661e-12 0
0.00897449 -2.65775e-08 0
0 -1.25633e-06 0
2.03913e-14 -1.04997e-09 0
7.77558e-11 -2.9867e-09 0
4.91846e-10 -3.96886e-09 0
6.1559e-10 -3.21316e-09 0
-2.02888e-13 -1.18158e-09 0
-1.08727e-11 -1.00757e-11 0
9.50018e-12 -9.86718e-12 0
-8.89443e-10 -1.46265e-09 0
-2.5441e-09 -5.14389e-09 0
-2.82391e-09 -9.7289e-09 0
-1.43474e-09 -1.41309e-08 0
-6.67945e-10 -1.65264e-08 0
-1.32918e-09 -1.53928e-08 0
-3.10655e-09 -1.07793e-08 0
-5.46302e-09 -3.66387e-09 0
-7.89289e-09 4.02521e-09 0
-9.89761e-09 1.00807e-08 0
-1.09789e-08 1.31089e-08 0
-1.07993e-08 1.30881e-08 0
-9.38512e-09 1.1016e-08 0
-7.1345e-09 8.12042e-09 0
-4.59801e-09 5.29291e-09 0
-2.22274e-09 2.96237e-09 0
-2.33823e-10 1.23241e-09 0
1.33407e-09 5.22955e-11 0
2.54346e-09 -6.78123e-10 0
3.47721e-09 -1.06495e-09 0
4.20293e-09 -1.2061e-09 0
4.76738e-09 -1.18586e-09 0
5.20263e-09 -1.07183e-09 0
5.53295e-09 -9.1404e-10 0
5.77865e-09 -7.46205e-10 0
5.95755e-09 -5.88563e-10 0
6.08511e-09 -4.51355e-10 0
6.17428e-09 -3.381e-10 0
6.2355e-09 -2.48258e-10 0
6.27685e-09 -1.79182e-10 0
6.30438e-09 -1.27398e-10 0
6.32245e-09 -8.93817e-11 0
6.33417e-09 -6.19526e-11 0
6.34169e-09 -4.24441e-11 0
6.34646e-09 -2.87247e-11 0
6.34943e-09 -1.91462e-11 0
6.35125e-09 -1.2461e-11 0
6.35235e-09 -7.73438e-12 0
6.35301e-09 -4.27756e-12 0
6.35353e-09 -1.61377e-12 0
6.35419e-09 5.46168e-13 0
6.35485e-09 2.31502e-12 0
0.00943618 -1.30886e-08 0
0 -1.13905e-06 0
-4.88185e-13 -9.47025e-10 0
-6.19931e-10 -2.22763e-09 0
-8.15712e-10 -2.98e-09 0
-1.0918e-09 -3.26345e-09 0
-7.76399e-10 -1.56422e-09 0
-1.01323e-11 1.00331e-11 0
-5.32404e-13 5.32404e-13 0
1.00054e-11 -8.99472e-12 0
-1.54371e-09 -2.12638e-09 0
-5.20318e-09 -7.94785e-09 0
-7.52081e-09 -1.41383e-08 0
-9.23995e-09 -1.70325e-08 0
-1.09703e-08 -1.56281e-08 0
-1.25159e-08 -1.02084e-08 0
-1.36925e-08 -2.2308e-09 0
-1.43263e-08 5.83584e-09 0
-1.42276e-08 1.15526e-08 0
-1.31543e-08 1.36655e-08 0
-1.09388e-08 1.24985e-08 0
-7.70788e-09 9.38562e-09 0
-3.92579e-09 5.75394e-09 0
-1.90482e-10 2.545e-09 0
3.02841e-09 1.43673e-10 0
5.51834e-09 -1.42684e-09 0
7.29159e-09 -2.30036e-09 0
8.48008e-09 -2.64976e-09 0
9.24262e-09 -2.63924e-09 0
9.71582e-09 -2.40837e-09 0
1.00005e-08 -2.06652e-09 0
1.01654e-08 -1.6919e-09 0
1.02559e-08 -1.3343e-09 0
1.03012e-08 -1.02052e-09 0
1.03201e-08 -7.6086e-10 0
1.03244e-08 -5.55211e-10 0
1.03213e-08 -3.97817e-10 0
1.0315e-08 -2.8062e-10 0
1.0308e-08 -1.95291e-10 0
1.03014e-08 -1.34308e-10 0
1.02958e-08 -9.13912e-11 0
1.02912e-08 -6.15741e-11 0
1.02876e-08 -4.10731e-11 0
1.02849e-08 -2.70875e-11 0
1.02829e-08 -1.75883e-11 0
1.02815e-08 -1.11316e-11 0
1.02805e-08 -6.71368e-12 0
1.028e-08 -3.66665e-12 0
1.028e-08 -1.57978e-12 0
1.02806e-08 -2.51831e-13 0
1.02813e-08 4.52067e-13 0
0.00955942 9.38746e-09 0
0 -7.84264e-07 0
-2.10171e-13 -5.30149e-10 0
-5.76724e-10 -1.41379e-09 0
-6.46602e-10 -1.89058e-09 0
-1.29862e-09 -2.15409e-09 0
-1.67914e-09 -1.95091e-09 0
-7.18052e-10 -8.037e-10 0
-9.90908e-12 1.0157e-11 0
-1.51001e-13 1.51001e-13 0
1.16286e-11 -8.38209e-12 0
-2.23719e-09 -3.88222e-09 0
-7.78809e-09 -1.11593e-08 0
-1.26414e-08 -1.49658e-08 0
-1.61441e-08 -1.32764e-08 0
-1.81852e-08 -7.46908e-09 0
-1.85415e-08 1.80132e-10 0
-1.72574e-08 7.02809e-09 0
-1.46911e-08 1.10451e-08 0
-1.12491e-08 1.15516e-08 0
-7.26722e-09 9.28055e-09 0
-3.10271e-09 5.6925e-09 0
8.12901e-10 2.11757e-09 0
4.07163e-09 -6.91389e-10 0
6.4332e-09 -2.5272e-09 0
7.88089e-09 -3.4926e-09 0
8.56826e-09 -3.79834e-09 0
8.72068e-09 -3.65988e-09 0
8.55453e-09 -3.26059e-09 0
8.23662e-09 -2.74212e-09 0
7.87653e-09 -2.20389e-09 0
7.53616e-09 -1.70722e-09 0
7.24404e-09 -1.28282e-09 0
7.00824e-09 -9.39811e-10 0
6.82587e-09 -6.74086e-10 0
6.6892e-09 -4.74973e-10 0
6.58921e-09 -3.2969e-10 0
6.51742e-09 -2.25938e-10 0
6.46663e-09 -1.53129e-10 0
6.43113e-09 -1.02765e-10 0
6.40656e-09 -6.83361e-11 0
6.38969e-09 -4.50282e-11 0
6.3782e-09 -2.93727e-11 0
6.37043e-09 -1.89201e-11 0
6.36524e-09 -1.19716e-11 0
6.36184e-09 -7.37309e-12 0
6.35974e-09 -4.36201e-12 0
6.35858e-09 -2.45738e-12 0
6.35819e-09 -1.38482e-12 0
6.35846e-09 -1.07008e-12 0
6.35896e-09 -1.44928e-12 0
0.00943619 2.90641e-08 0
0 -5.49092e-07 0
1.51619e-13 -2.55877e-10 0
-2.23038e-10 -7.5534e-10 0
-2.44714e-10 -1.32418e-09 0
-6.47841e-10 -1.62969e-09 0
-1.65309e-09 -1.24546e-09 0
-2.01093e-09 -3.95192e-10 0
-1.31421e-09 4.53245e-11 0
-1.03827e-11 9.93113e-12 0
1.19571e-11 8.56101e-12 0
1.72148e-12 -2.27758e-09 0
-3.89696e-09 -7.92267e-09 0
-1.06857e-08 -1.12954e-08 0
-1.72111e-08 -8.71489e-09 0
-2.12572e-08 -2.71314e-09 0
-2.14923e-08 3.53938e-09 0
-1.82475e-08 7.81787e-09 0
-1.30434e-08 9.12438e-09 0
-7.51246e-09 7.66632e-09 0
-2.72755e-09 4.57513e-09 0
8.51907e-10 1.22389e-09 0
3.15303e-09 -1.43062e-09 0
4.29176e-09 -3.0571e-09 0
4.47892e-09 -3.76567e-09 0
3.97577e-09 -3.83154e-09 0
3.05285e-09 -3.51941e-09 0
1.94848e-09 -3.02476e-09 0
8.40819e-10 -2.47547e-09 0
-1.59368e-10 -1.94858e-09 0
-9.99591e-10 -1.48521e-09 0
-1.66887e-09 -1.1018e-09 0
-2.18075e-09 -7.98973e-10 0
-2.56009e-09 -5.68388e-10 0
-2.83431e-09 -3.97884e-10 0
-3.02871e-09 -2.74742e-10 0
-3.16439e-09 -1.87486e-10 0
-3.25794e-09 -1.26608e-10 0
-3.32182e-09 -8.46736e-11 0
-3.36507e-09 -5.60965e-11 0
-3.39417e-09 -3.6801e-11 0
-3.41362e-09 -2.38779e-11 0
-3.42654e-09 -1.52873e-11 0
-3.43505e-09 -9.62105e-12 0
-3.44059e-09 -5.92313e-12 0
-3.44411e-09 -3.55737e-12 0
-3.44627e-09 -2.1137e-12 0
-3.44749e-09 -1.34681e-12 0
-3.44804e-09 -1.14506e-12 0
-3.44815e-09 -1.54664e-12 0
-3.44824e-09 -2.55375e-12 0
0.0089745 3.57143e-08 0
0 -4.6518e-07 0
2.04829e-13 -1.16092e-10 0
8.35211e-11 -3.99102e-10 0
6.52738e-11 -7.43427e-10 0
-5.43508e-10 -9.44332e-10 0
-1.90893e-09 -4.18187e-10 0
-3.025e-09 6.59156e-10 0
-3.13582e-09 6.15229e-11 0
-2.08442e-09 -5.31941e-10 0
-1.47885e-09 1.36141e-14 0
-2.67968e-10 -2.76308e-09 0
-2.69874e-09 -6.48014e-09 0
-1.00683e-08 -6.4482e-09 0
-1.81156e-08 -3.16078e-09 0
-2.23996e-08 1.39643e-09 0
-2.10305e-08 4.94086e-09 0
-1.53605e-08 6.29008e-09 0
-8.42173e-09 5.39673e-09 0
-2.81226e-09 3.0219e-09 0
3.48088e-10 3.16882e-10 0
1.21487e-09 -1.75957e-09 0
5.14816e-10 -2.82962e-09 0
-1.01389e-09 -3.03888e-09 0
-2.85103e-09 -2.74585e-09 0
-4.69655e-09 -2.26548e-09 0
-6.39643e-09 -1.78036e-09 0
-7.87833e-09 -1.36341e-09 0
-9.1159e-09 -1.0285e-09 0
-1.01117e-08 -7.67201e-10 0
-1.0887e-08 -5.6623e-10 0
-1.14734e-08 -4.13318e-10 0
-1.19061e-08 -2.98267e-10 0
-1.22188e-08 -2.12749e-10 0
-1.2441e-08 -1.49984e-10 0
-1.25965e-08 -1.045e-10 0
-1.27041e-08 -7.19467e-11 0
-1.27779e-08 -4.89302e-11 0
-1.28279e-08 -3.28497e-11 0
-1.28617e-08 -2.17468e-11 0
-1.28842e-08 -1.41706e-11 0
-1.28992e-08 -9.06368e-12 0
-1.2909e-08 -5.66762e-12 0
-1.29154e-08 -3.44841e-12 0
-1.29195e-08 -2.03765e-12 0
-1.29221e-08 -1.18925e-12 0
-1.29237e-08 -7.50187e-13 0
-1.29247e-08 -6.40925e-13 0
-1.29253e-08 -8.39686e-13 0
-1.29258e-08 -1.3769e-12 0
-1.29265e-08 -2.25176e-12 0
0.00786605 2.6182e-08 0
0 -4.79199e-07 0
2.789e-13 1.82971e-12 0
2.1613e-10 -2.72205e-11 0
1.67261e-10 -7.68383e-11 0
-6.06657e-10 -9.002e-11 0
-2.27069e-09 -4.71084e-11 0
-3.78616e-09 4.8143e-10 0
-3.95087e-09 5.38768e-10 0
-4.5688e-09 -1.9921e-10 0
-4.23714e-09 -1.00298e-09 0
-3.34302e-09 -1.87592e-09 0
-5.48632e-09 -1.60516e-09 0
-9.51671e-09 -2.02417e-10 0
-1.34495e-08 1.15851e-09 0
-1.46208e-08 2.07036e-09 0
-1.20535e-08 2.28611e-09 0
-7.19096e-09 1.74817e-09 0
-2.53409e-09 7.33255e-10 0
1.34556e-10 -2.93761e-10 0
4.65227e-10 -9.71283e-10 0
-8.75939e-10 -1.20306e-09 0
-2.96604e-09 -1.10786e-09 0
-5.11626e-09 -8.70084e-10 0
-6.98716e-09 -6.27164e-10 0
-8.49291e-09 -4.39414e-10 0
-9.66787e-09 -3.12741e-10 0
-1.05775e-08 -2.31033e-10 0
-1.12806e-08 -1.76609e-10 0
-1.18219e-08 -1.37408e-10 0
-1.22348e-08 -1.06981e-10 0
-1.25456e-08 -8.23929e-11 0
-1.27761e-08 -6.2386e-11 0
-1.29444e-08 -4.63159e-11 0
-1.30655e-08 -3.36841e-11 0
-1.31513e-08 -2.39926e-11 0
-1.32115e-08 -1.6735e-11 0
-1.32531e-08 -1.14248e-11 0
-1.32815e-08 -7.6247e-12 0
-1.33007e-08 -4.96265e-12 0
-1.33135e-08 -3.13704e-12 0
-1.33219e-08 -1.91266e-12 0
-1.33274e-08 -1.11258e-12 0
-1.33309e-08 -6.08357e-13 0
-1.33331e-08 -3.10606e-13 0
-1.33345e-08 -1.61269e-13 0
-1.33354e-08 -1.27389e-13 0
-1.3336e-08 -1.91735e-13 0
-1.33365e-08 -3.40712e-13 0
-1.33371e-08 -5.5085e-13 0
-1.3338e-08 -8.43671e-13 0
0.00543348 8.79722e-09 0
0 0 0
2.31795e-13 0 0
1.24741e-10 0 0
9.61957e-11 0 0
-2.74604e-10 0 0
-1.11191e-09 0 0
-2.05409e-09 0 0
-2.12937e-09 0 0
-2.48462e-09 0 0
-2.75795e-09 0 0
-3.07334e-09 0 0
-3.59421e-09 0 0
-3.84948e-09 0 0
-3.92949e-09 0 0
-3.50742e-09 0 0
-2.40519e-09 0 0
-1.01675e-09 0 0
9.61324e-12 0 0
2.81216e-10 0 0
-1.5528e-10 0 0
-9.86672e-10 0 0
-1.89065e-09 0 0
-2.67483e-09 0 0
-3.2805e-09 0 0
-3.72594e-09 0 0
-4.0529e-09 0 0
-4.2985e-09 0 0
-4.48769e-09 0 0
-4.63537e-09 0 0
-4.75055e-09 0 0
-4.83938e-09 0 0
-4.90677e-09 0 0
-4.95694e-09 0 0
-4.9936e-09 0 0
-5.0199e-09 0 0
-5.03845e-09 0 0
-5.05133e-09 0 0
-5.06013e-09 0 0
-5.06605e-09 0 0
-5.06997e-09 0 0
-5.07252e-09 0 0
-5.07414e-09 0 0
-5.07516e-09 0 0
-5.07578e-09 0 0
-5.07615e-09 0 0
-5.07639e-09 0 0
-5.07658e-09 0 0
-5.07677e-09 0 0
-5.07703e-09 0 0
-5.07744e-09 0 0
0.00188544 0 0
0 0 5.36684e-07
9.22571e-14 0 1.80861e-10
-5.2572e-10 0 5.73257e-10
-8.49871e-10 0 1.0916e-09
-4.04158e-09 0 -4.04015e-10
1.08614e-09 0 -1.7632e-09
2.66611e-09 0 -1.20881e-09
3.11536e-09 0 -8.88929e-10
3.63802e-09 0 -4.45261e-10
4.61172e-09 0 1.09967e-10
6.00984e-09 0 8.23485e-10
7.85755e-09 0 1.56666e-09
1.00819e-08 0 2.01627e-09
1.22654e-08 0 1.92079e-09
1.36476e-08 0 1.41203e-09
1.3603e-08 0 8.5315e-10
1.20419e-08 0 4.82093e-10
9.4151e-09 0 3.16729e-10
6.34488e-09 0 2.87554e-10
3.26048e-09 0 3.37681e-10
3.13081e-10 0 4.27675e-10
-2.49213e-09 0 5.18695e-10
-5.14721e-09 0 5.75201e-10
-7.58661e-09 0 5.77537e-10
-9.71511e-09 0 5.2726e-10
-1.14586e-08 0 4.41399e-10
-1.27944e-08 0 3.41804e-10
-1.37509e-08 0 2.46566e-10
-1.43901e-08 0 1.66377e-10
-1.47856e-08 0 1.04965e-10
-1.50075e-08 0 6.14038e-11
-1.5114e-08 0 3.25071e-11
-1.51491e-08 0 1.4537e-11
-1.51436e-08 0 4.13461e-12
-1.51181e-08 0 -1.34286e-12
-1.50852e-08 0 -3.80314e-12
-1.50519e-08 0 -4.53626e-12
-1.5022e-08 0 -4.36676e-12
-1.49969e-08 0 -3.79288e-12
-1.49768e-08 0 -3.09678e-12
-1.49613e-08 0 -2.42466e-12
-1.49496e-08 0 -1.84152e-12
-1.49411e-08 0 -1.36664e-12
-1.49349e-08 0 -9.95968e-13
-1.49306e-08 0 -7.15664e-13
-1.49276e-08 0 -5.10411e-13
-1.49257e-08 0 -3.69676e-13
-1.49246e-08 0 -2.98009e-13
-1.49241e-08 0 -3.00372e-13
-1.49244e-08 0 -2.38722e-13
0.00535847 0 -8.26834e-10
0.0036 -3.06777e-07 -6.21867e-08
0.0035998 -0.00138896 -2.07058e-05
0.00669639 -0.00393834 0.000117021
0.0136095 -0.00587289 -0.000483358
0.0234994 -0.0145054 -0.00426252
0.0464253 -0.0134908 -0.00489186
0.0499705 -0.00196027 -0.00164812
0.0497163 0.00261542 -0.000165611
0.0447446 0.00493587 0.000571451
0.0391585 0.00509324 0.000569868
0.0340793 0.00441511 0.000318189
0.029824 0.00352454 6.04141e-05
0.0264565 0.0026567 -0.000125577
0.0238986 0.00191458 -0.000226682
0.0219893 0.00134093 -0.000254928
0.0205556 0.000931058 -0.00023182
0.0194583 0.000652508 -0.000180578
0.0186032 0.00046725 -0.000121185
0.0179323 0.000343083 -6.77027e-05
0.0174098 0.000256755 -2.74015e-05
0.0170104 0.000193358 -1.69692e-06
0.0167131 0.000144398 1.16781e-05
0.0164985 0.000105569 1.64166e-05
0.0163488 7.48268e-05 1.6083e-05
0.0162486 5.10469e-05 1.339e-05
0.0161843 3.33034e-05 1.00639e-05
0.0161454 2.06115e-05 7.01396e-06
0.0161234 1.19341e-05 4.59437e-06
0.0161122 6.27817e-06 2.84498e-06
0.0161076 2.78072e-06 1.66396e-06
0.0161068 7.51385e-07 9.10262e-07
0.0161078 -3.26267e-07 4.53338e-07
0.0161097 -8.17545e-07 1.90728e-07
0.0161117 -9.68633e-07 4.92806e-08
0.0161135 -9.38059e-07 -2.00399e-08
0.0161152 -8.23105e-07 -4.85383e-08
0.0161165 -6.80142e-07 -5.53644e-08
0.0161175 -5.39359e-07 -5.17449e-08
0.0161183 -4.14936e-07 -4.39494e-08
0.0161189 -3.11799e-07 -3.52602e-08
0.0161193 -2.29911e-07 -2.72292e-08
0.0161196 -1.66892e-07 -2.04526e-08
0.0161198 -1.19536e-07 -1.50361e-08
0.01612 -8.46149e-08 -1.08619e-08
0.0161201 -5.92653e-08 -7.73057e-09
0.0161201 -4.11176e-08 -5.40652e-09
0.0161202 -2.82967e-08 -3.59478e-09
0.0161202 -1.94123e-08 -1.61188e-09
0.0161203 -1.42655e-08 1.27632e-09
0.0161203 -2.10007e-08 6.7849e-11
0.0161203 -2.92831e-08 -2.86558e-09
0.01 -1.36126e-07 -1.45878e-06
0.0100007 -0.00298266 -0.000597406
0.014788 -0.00997156 -0.000791849
0.0242041 -0.017781 -0.00122382
0.0386631 -0.0326916 -0.00332938
0.0593951 -0.025008 -0.000807741
0.0566078 -0.00279076 0.00319921
0.0560399 0.00504262 0.00339564
0.050274 0.00999378 0.00300381
0.0448386 0.0101114 0.00212651
0.0403782 0.00899385 0.00121262
0.0367124 0.00754435 0.000499315
0.0337834 0.00607248 6.19696e-10
0.0315345 0.00475919 -0.000301696
0.0298103 0.00368808 -0.000429515
0.0284605 0.00285176 -0.00042999
0.0273815 0.00220118 -0.00035654
0.0265128 0.00168812 -0.00025486
0.0258218 0.00127899 -0.000156623
0.0252873 0.000953001 -7.865e-05
0.0248887 0.000696276 -2.57025e-05
0.0246036 0.000497585 4.92523e-06
0.0244085 0.00034677 1.90743e-05
0.0242818 0.000234682 2.28124e-05
0.0242046 0.000153354 2.10161e-05
0.0241616 9.59875e-05 1.69888e-05
0.0241411 5.68399e-05 1.26368e-05
0.0241344 3.11307e-05 8.85703e-06
0.0241355 1.49896e-05 5.93074e-06
0.0241404 5.40041e-06 3.8257e-06
0.0241467 1.13533e-07 2.38821e-06
0.024153 -2.47608e-06 1.44478e-06
0.0241587 -3.46448e-06 8.45645e-07
0.0241634 -3.5682e-06 4.76325e-07
0.0241672 -3.23447e-06 2.55325e-07
0.0241701 -2.72789e-06 1.27312e-07
0.0241723 -2.19452e-06 5.60095e-08
0.0241739 -1.7069e-06 1.83093e-08
0.0241751 -1.29425e-06 -1.23387e-10
0.024176 -9.61933e-07 -7.94789e-09
0.0241766 -7.03501e-07 -1.02448e-08
0.024177 -5.07694e-07 -9.89139e-09
0.0241773 -3.62311e-07 -8.45145e-09
0.0241775 -2.56114e-07 -6.73211e-09
0.0241776 -1.79607e-07 -5.11358e-09
0.0241777 -1.25221e-07 -3.69116e-09
0.0241778 -8.72161e-08 -2.2575e-09
0.0241779 -6.29085e-08 -2.65583e-10
0.0241779 -5.25254e-08 2.60618e-09
0.0241779 -6.2737e-08 -2.2059e-09
0.024178 -7.45453e-08 -8.66504e-09
0.0148 -9.59296e-07 -1.75289e-06
0.0148024 -0.00530206 -0.00112339
0.0204163 -0.0164714 -0.00244973
0.0276405 -0.0289684 -0.00394537
0.0323251 -0.0464273 -0.00578412
0.0307692 -0.0286479 -0.00142405
0.026946 -1.24046e-05 0.00331619
0.0263789 0.00703843 0.0035302
0.0298567 0.0143247 0.00343377
0.0302109 0.0136764 0.00247566
0.0294451 0.0118304 0.00153832
0.0286482 0.00993661 0.000732232
0.028059 0.00805764 0.000150343
0.0277707 0.00636883 -0.000203755
0.0276546 0.00499935 -0.000353975
0.0276044 0.00391744 -0.000363574
0.0275722 0.00304803 -0.000297557
0.0275479 0.00233429 -0.000204774
0.0275365 0.00174642 -0.000115664
0.0275435 0.00127074 -4.52733e-05
0.0275696 0.000897347 2.20644e-06
0.0276109 0.000613921 2.89262e-05
0.0276618 0.000405458 3.98459e-05
0.0277166 0.000256563 4.04464e-05
0.0277709 0.000153366 3.54605e-05
0.0278215 8.42772e-05 2.83329e-05
0.0278662 3.99757e-05 2.11804e-05
0.0279041 1.31271e-05 1.50472e-05
0.0279351 -1.89915e-06 1.02627e-05
0.0279596 -9.28634e-06 6.76447e-06
0.0279785 -1.20171e-05 4.3262e-06
0.0279927 -1.21209e-05 2.68956e-06
0.028003 -1.09093e-05 1.62518e-06
0.0280105 -9.18006e-06 9.52337e-07
0.0280158 -7.38352e-06 5.38484e-07
0.0280196 -5.74681e-06 2.91021e-07
0.0280221 -4.36227e-06 1.47598e-07
0.0280239 -3.24648e-06 6.74964e-08
0.0280251 -2.37781e-06 2.4851e-08
0.0280259 -1.71887e-06 3.66313e-09
0.0280265 -1.22906e-06 -5.69795e-09
0.0280269 -8.70807e-07 -8.85756e-09
0.0280271 -6.12228e-07 -8.99547e-09
0.0280273 -4.27665e-07 -7.84417e-09
0.0280274 -2.97249e-07 -6.27043e-09
0.0280275 -2.06302e-07 -4.63201e-09
0.0280275 -1.44497e-07 -2.78007e-09
0.0280276 -1.05954e-07 -7.75059e-10
0.0280276 -8.88101e-08 -3.56646e-10
0.0280276 -8.70506e-08 -9.30192e-09
0.0280276 -8.85719e-08 -1.77008e-08
0.018 -1.93642e-06 -1.69656e-06
0.018003 -0.00702467 -0.00187228
0.0208056 -0.0190917 -0.00492827
0.0207736 -0.0251497 -0.00635701
0.0161192 -0.0271602 -0.00764546
-1.61241e-06 -0.0140873 -0.00434545
9.71489e-05 2.59488e-05 9.32325e-07
-3.30323e-05 3.43754e-05 0.000655497
0.00654498 0.0040241 0.00144655
0.0133235 0.0090765 0.00142103
0.0167027 0.00977016 0.00102012
0.0185016 0.00872386 0.000500167
0.0202252 0.00717237 2.99394e-05
0.0219317 0.00564044 -0.000239012
0.0234502 0.00441648 -0.000323853
0.0247157 0.00345481 -0.000298338
0.0257412 0.00266528 -0.000224605
0.0265683 0.00199686 -0.000141477
0.0272385 0.00143534 -6.8775e-05
0.0277832 0.000981469 -1.39691e-05
0.0282237 0.000633444 2.21821e-05
0.0285757 0.000380707 4.20088e-05
0.0288529 0.000206344 4.91198e-05
0.0290677 9.19733e-05 4.75231e-05
0.0292317 2.12025e-05 4.09936e-05
0.029355 -1.91268e-05 3.25603e-05
0.0294464 -3.90369e-05 2.42509e-05
0.029513 -4.59406e-05 1.71392e-05
0.0295606 -4.51642e-05 1.15874e-05
0.0295942 -4.03788e-05 7.53326e-06
0.0296173 -3.39718e-05 4.7226e-06
0.029633 -2.73762e-05 2.85578e-06
0.0296435 -2.13571e-05 1.66165e-06
0.0296504 -1.62444e-05 9.24324e-07
0.0296549 -1.21072e-05 4.85001e-07
0.0296577 -8.87581e-06 2.33247e-07
0.0296596 -6.41894e-06 9.55468e-08
0.0296607 -4.59007e-06 2.47679e-08
0.0296614 -3.25156e-06 -8.27665e-09
0.0296618 -2.28532e-06 -2.10556e-08
0.0296621 -1.59563e-06 -2.36542e-08
0.0296623 -1.10791e-06 -2.16547e-08
0.0296624 -7.65711e-07 -1.79863e-08
0.0296624 -5.27272e-07 -1.4087e-08
0.0296625 -3.62332e-07 -1.05346e-08
0.0296625 -2.4948e-07 -7.53118e-09
0.0296625 -1.7402e-07 -4.98368e-09
0.0296625 -1.25165e-07 -3.17425e-09
0.0296625 -9.62411e-08 -6.05417e-09
0.0296625 -7.13634e-08 -1.64097e-08
0.0296625 -5.6422e-08 -2.32808e-08
0.0196 -2.82006e-06 -2.55812e-06
0.019601 -0.00594224 -0.00274344
0.0190498 -0.0132652 -0.00649011
0.015917 -0.0163286 -0.00670548
0.0108363 -0.0153241 -0.00670019
0.00168929 -0.00632127 -0.00504963
7.22664e-05 -6.63414e-05 -0.00130579
3.33091e-05 -3.33091e-05 -4.24981e-08
-3.24256e-05 3.36389e-05 0.000265368
0.00384332 0.00266047 0.000569537
0.00873695 0.0061522 0.000504292
0.0116145 0.00630751 0.00015824
0.0148476 0.00485901 -0.000225028
0.0179888 0.00355917 -0.000400152
0.0206768 0.00267002 -0.000407619
0.02285 0.00202668 -0.000332558
0.0245731 0.00149689 -0.000234411
0.0259345 0.00103227 -0.000144522
0.0270081 0.000635396 -7.42191e-05
0.0278477 0.000321845 -2.41534e-05
0.0284932 9.77297e-05 8.67009e-06
0.0289785 -4.52289e-05 2.75694e-05
0.0293343 -0.000124291 3.56111e-05
0.0295887 -0.000158433 3.58799e-05
0.0297664 -0.000163852 3.1443e-05
0.0298878 -0.000152615 2.49587e-05
0.0299689 -0.000133047 1.83237e-05
0.0300219 -0.000110591 1.25973e-05
0.0300555 -8.85875e-05 8.16854e-06
0.0300764 -6.88708e-05 5.00939e-06
0.0300888 -5.22378e-05 2.89812e-06
0.0300959 -3.8818e-05 1.56539e-06
0.0300998 -2.83577e-05 7.6889e-07
0.0301018 -2.04244e-05 3.19892e-07
0.0301027 -1.45386e-05 8.42295e-08
0.030103 -1.02489e-05 -2.72755e-08
0.030103 -7.16729e-06 -7.06866e-08
0.0301029 -4.97936e-06 -7.94805e-08
0.0301028 -3.44066e-06 -7.26135e-08
0.0301026 -2.36687e-06 -6.01791e-08
0.0301025 -1.62222e-06 -4.71249e-08
0.0301024 -1.10847e-06 -3.55605e-08
0.0301023 -7.55565e-07 -2.61277e-08
0.0301022 -5.14106e-07 -1.88039e-08
0.0301022 -3.4962e-07 -1.32921e-08
0.0301021 -2.38029e-07 -9.3111e-09
0.0301021 -1.62417e-07 -6.72342e-09
0.0301021 -1.09246e-07 -5.39252e-09
0.030102 -6.82592e-08 -9.99319e-09
0.030102 -2.2301e-08 -1.82841e-08
0.030102 5.28773e-09 -2.16035e-08
0.0196 -1.3601e-06 -3.57693e-06
0.0195999 -0.00370661 -0.00312894
0.0187447 -0.00815164 -0.00653194
0.0174851 -0.00820769 -0.00606181
0.0131379 -0.00439346 -0.00554678
0.00903425 0.00248676 -0.00534319
0.00612957 0.00311892 -0.00313464
7.24487e-05 -6.02341e-05 -0.000683158
2.78085e-05 -2.78085e-05 -1.27453e-07
-3.188e-05 3.29713e-05 9.84441e-05
0.00261026 0.00178313 0.000377483
0.00678333 0.00267139 0.000283247
0.0119732 0.00112514 -0.000162381
0.0165603 0.000255993 -0.000379495
0.020135 -4.11611e-06 -0.000402854
0.0228137 -7.15157e-05 -0.000331963
0.0248126 -0.000143661 -0.000237063
0.0263079 -0.00025394 -0.000153337
0.0274196 -0.000369152 -9.08406e-05
0.0282296 -0.000451601 -4.76271e-05
0.0287998 -0.000484157 -1.89992e-05
0.0291835 -0.000470558 -1.23776e-06
0.0294281 -0.000425349 8.25071e-06
0.0295742 -0.000364283 1.17108e-05
0.0296547 -0.000299415 1.13413e-05
0.0296938 -0.000238202 9.0838e-06
0.0297085 -0.000184453 6.34288e-06
0.0297101 -0.000139568 3.91274e-06
0.0297052 -0.000103508 2.09792e-06
0.0296981 -7.54425e-05 9.05215e-07
0.0296907 -5.41752e-05 2.09119e-07
0.029684 -3.84191e-05 -1.4372e-07
0.0296786 -2.69645e-05 -2.84919e-07
0.0296743 -1.8766e-05 -3.09644e-07
0.029671 -1.29721e-05 -2.79043e-07
0.0296686 -8.91885e-06 -2.2857e-07
0.0296668 -6.106e-06 -1.76592e-07
0.0296655 -4.16616e-06 -1.31189e-07
0.0296646 -2.83489e-06 -9.48119e-08
0.029664 -1.92473e-06 -6.71789e-08
0.0296635 -1.30434e-06 -4.69212e-08
0.0296632 -8.82475e-07 -3.24255e-08
0.029663 -5.96175e-07 -2.22215e-08
0.0296629 -4.02122e-07 -1.51442e-08
0.0296628 -2.70458e-07 -1.03473e-08
0.0296627 -1.80229e-07 -7.2561e-09
0.0296626 -1.16309e-07 -5.65347e-09
0.0296626 -6.65069e-08 -4.9505e-09
0.0296625 -2.01123e-08 -8.84223e-09
0.0296625 3.45075e-08 -1.33075e-08
0.0296625 6.556e-08 -1.36071e-08
0.018 -8.63964e-07 -3.57305e-06
0.0180009 -0.00202031 -0.00305245
0.0183087 -0.00391674 -0.00617038
0.0183535 -0.00274127 -0.00529318
0.0173254 0.000537558 -0.00418922
0.0170344 0.0069975 -0.00396609
0.0177647 0.0125382 -0.00302491
0.0109019 0.00692218 -0.00152096
7.39065e-05 -4.65618e-05 -0.000444361
-2.49291e-05 -5.42927e-05 5.57685e-07
7.92465e-06 -0.000784883 0.000762636
0.00816982 -0.00307924 0.0011128
0.0153397 -0.00467202 0.000457948
0.0202024 -0.00422584 0.000106937
0.0233026 -0.00319011 -4.17826e-05
0.0252937 -0.00230554 -9.22318e-05
0.0266033 -0.00172434 -9.93353e-05
0.0274672 -0.00137371 -9.03031e-05
0.0280162 -0.00114625 -7.66141e-05
0.0283336 -0.000966989 -6.19386e-05
0.0284839 -0.000802453 -4.74677e-05
0.0285214 -0.000647078 -3.42627e-05
0.028491 -0.000506364 -2.33704e-05
0.028427 -0.000386004 -1.52971e-05
0.0283522 -0.000288067 -9.85366e-06
0.0282804 -0.000211344 -6.42484e-06
0.0282181 -0.000152891 -4.32669e-06
0.0281676 -0.00010929 -3.02026e-06
0.0281285 -7.73203e-05 -2.16112e-06
0.0280992 -5.42194e-05 -1.55914e-06
0.0280778 -3.77381e-05 -1.11845e-06
0.0280624 -2.61069e-05 -7.90836e-07
0.0280516 -1.79726e-05 -5.48903e-07
0.0280441 -1.23252e-05 -3.73542e-07
0.0280389 -8.42653e-06 -2.49373e-07
0.0280353 -5.74687e-06 -1.63544e-07
0.0280329 -3.91116e-06 -1.05554e-07
0.0280312 -2.65684e-06 -6.71769e-08
0.02803 -1.80158e-06 -4.22401e-08
0.0280293 -1.21947e-06 -2.62912e-08
0.0280287 -8.23935e-07 -1.62263e-08
0.0280284 -5.55555e-07 -9.9421e-09
0.0280281 -3.73565e-07 -6.05846e-09
0.028028 -2.49879e-07 -3.70874e-09
0.0280278 -1.64931e-07 -2.37252e-09
0.0280278 -1.04758e-07 -1.7088e-09
0.0280277 -5.89774e-08 -1.60151e-09
0.0280277 -1.9392e-08 -1.47994e-09
0.0280276 2.21656e-08 -3.17728e-09
0.0280276 6.93486e-08 -4.54401e-09
0.0280276 9.41475e-08 -3.99935e-09
0.0148 -4.83447e-07 -3.16545e-06
0.0148015 -0.00104396 -0.00283391
0.0162274 -0.00167392 -0.00543531
0.0177784 -8.30125e-05 -0.00429472
0.0190757 0.00310421 -0.00305726
0.0207846 0.00729624 -0.00282978
0.0245874 0.0129657 -0.00240865
0.0278777 0.019494 -0.00153187
0.0229347 0.0112678 -0.000359385
0.023399 1.61448e-11 0.000617502
0.0265567 -0.0067603 0.00156392
0.0299087 -0.0132145 0.00213022
0.0305824 -0.0111243 0.00165515
0.0298765 -0.0077229 0.00113444
0.0288383 -0.00500237 0.000656428
0.0279069 -0.0032258 0.000294808
0.0271722 -0.00215244 7.1106e-05
0.0265971 -0.00150441 -4.14265e-05
0.0261285 -0.00108814 -8.33234e-05
0.0257326 -0.000795762 -8.72955e-05
0.025395 -0.000577185 -7.42042e-05
0.0251111 -0.000411759 -5.59838e-05
0.0248788 -0.00028927 -3.87878e-05
0.0246942 -0.000201388 -2.51284e-05
0.0245518 -0.000139905 -1.54012e-05
0.0244447 -9.74404e-05 -8.99932e-06
0.024366 -6.81514e-05 -5.03129e-06
0.0243091 -4.78376e-05 -2.68527e-06
0.0242687 -3.36419e-05 -1.35187e-06
0.0242403 -2.36595e-05 -6.21538e-07
0.0242207 -1.66147e-05 -2.37745e-07
0.0242071 -1.16381e-05 -4.71838e-08
0.0241978 -8.12611e-06 3.88664e-08
0.0241914 -5.65347e-06 7.0504e-08
0.0241871 -3.91815e-06 7.53845e-08
0.0241842 -2.70477e-06 6.83747e-08
0.0241822 -1.85969e-06 5.71743e-08
0.0241808 -1.27354e-06 4.55411e-08
0.0241799 -8.68657e-07 3.51201e-08
0.0241793 -5.90117e-07 2.64654e-08
0.0241788 -3.9921e-07 1.96013e-08
0.0241785 -2.68718e-07 1.43256e-08
0.0241783 -1.79502e-07 1.03598e-08
0.0241782 -1.18041e-07 7.42368e-09
0.0241781 -7.46614e-08 5.27802e-09
0.0241781 -4.22974e-08 3.7621e-09
0.024178 -1.55489e-08 2.77824e-09
0.024178 9.47315e-09 2.51239e-09
0.024178 3.61755e-08 2.43629e-09
0.024178 6.34191e-08 1.67149e-09
0.024178 7.64187e-08 1.08591e-09
0.01 -9.26967e-07 -2.86888e-06
0.0100008 -0.000639539 -0.00230813
0.011316 -0.000727681 -0.00414888
0.0131614 0.000527203 -0.00290482
0.0155626 0.00248896 -0.0017918
0.01942 0.00553382 -0.00179342
0.0253133 0.00835504 -0.00235096
0.0344356 0.0101193 -0.00209223
0.0460395 0.00480894 -0.000517804