# vtk DataFile Version 2.0
Tobias Weinzierl: CPU, Manycore and Cluster Computing
ASCII

DATASET STRUCTURED_POINTS
DIMENSIONS  51 11 6

ORIGIN 0 0 0 

SPACING 0.1 0.1 0.1 

POINT_DATA 3366

VECTORS velocity float
0 0 0
1.84189e-11 0 0
-3.48761e-08 0 0
-1.35786e-07 0 0
-2.3779e-07 0 0
-9.46963e-08 0 0
-3.93489e-08 0 0
-4.25078e-09 0 0
1.00043e-08 0 0
-1.44702e-08 0 0
-5.9205e-08 0 0
-9.62347e-08 0 0
-1.132e-07 0 0
-1.14416e-07 0 0
-1.09627e-07 0 0
-1.05559e-07 0 0
-1.04168e-07 0 0
-1.04795e-07 0 0
-1.06282e-07 0 0
-1.07835e-07 0 0
-1.09101e-07 0 0
-1.1e-07 0 0
-1.10578e-07 0 0
-1.10918e-07 0 0
-1.11099e-07 0 0
-1.11183e-07 0 0
-1.1121e-07 0 0
-1.11208e-07 0 0
-1.11193e-07 0 0
-1.11174e-07 0 0
-1.11155e-07 0 0
-1.11139e-07 0 0
-1.11127e-07 0 0
-1.11117e-07 0 0
-1.1111e-07 0 0
-1.11105e-07 0 0
-1.11102e-07 0 0
-1.11101e-07 0 0
-1.111e-07 0 0
-1.11099e-07 0 0
-1.111e-07 0 0
-1.11101e-07 0 0
-1.11102e-07 0 0
-1.11103e-07 0 0
-1.11104e-07 0 0
-1.11106e-07 0 0
-1.11108e-07 0 0
-1.11112e-07 0 0
-1.11117e-07 0 0
-1.1113e-07 0 0
0.00237092 0 0
0 4.27891e-07 0
5.82813e-11 7.84911e-09 0
-5.52846e-08 3.24159e-08 0
-2.40661e-07 5.53138e-08 0
-3.92132e-07 3.52e-08 0
-1.63595e-07 5.4142e-08 0
-1.05613e-07 1.04119e-07 0
-7.15248e-08 8.59701e-08 0
-2.96016e-08 6.20993e-08 0
-4.06308e-08 6.41139e-08 0
-9.8966e-08 6.21781e-08 0
-1.59338e-07 4.52151e-08 0
-1.91969e-07 2.18167e-08 0
-1.98905e-07 4.53708e-09 0
-1.97124e-07 -2.26253e-09 0
-1.98239e-07 -2.12409e-09 0
-2.04076e-07 -1.94158e-11 0
-2.1211e-07 1.49457e-09 0
-2.19848e-07 1.98518e-09 0
-2.26061e-07 1.81403e-09 0
-2.30512e-07 1.38245e-09 0
-2.33448e-07 9.31674e-10 0
-2.35255e-07 5.63742e-10 0
-2.36295e-07 3.01175e-10 0
-2.36849e-07 1.31356e-10 0
-2.37112e-07 3.11536e-11 0
-2.37212e-07 -2.18244e-11 0
-2.37228e-07 -4.52786e-11 0
-2.37205e-07 -5.17133e-11 0
-2.37167e-07 -4.92754e-11 0
-2.37129e-07 -4.29097e-11 0
-2.37095e-07 -3.54035e-11 0
-2.37067e-07 -2.81862e-11 0
-2.37046e-07 -2.18845e-11 0
-2.37031e-07 -1.66825e-11 0
-2.3702e-07 -1.25415e-11 0
-2.37013e-07 -9.32645e-12 0
-2.37009e-07 -6.87434e-12 0
-2.37007e-07 -5.02702e-12 0
-2.37006e-07 -3.64453e-12 0
-2.37007e-07 -2.6074e-12 0
-2.37008e-07 -1.81264e-12 0
-2.3701e-07 -1.16546e-12 0
-2.37013e-07 -5.66343e-13 0
-2.37016e-07 1.14723e-13 0
-2.37019e-07 1.09e-12 0
-2.37024e-07 2.73952e-12 0
-2.3703e-07 5.8974e-12 0
-2.37042e-07 1.28212e-11 0
-2.37066e-07 2.7677e-11 0
0.0065606 -1.51558e-07 0
0 -2.74079e-09 0
8.78158e-11 8.8461e-09 0
1.46833e-09 -8.98597e-09 0
-1.2698e-07 -9.55108e-08 0
-1.79881e-07 -1.59222e-07 0
-1.22829e-08 -3.00534e-08 0
-9.11945e-08 1.34835e-07 0
-1.28685e-07 1.1783e-07 0
-1.01788e-07 4.60159e-08 0
-7.46846e-08 1.35965e-08 0
-1.01003e-07 5.1869e-09 0
-1.43445e-07 1.62287e-08 0
-1.694e-07 3.47163e-08 0
-1.72584e-07 4.49702e-08 0
-1.67897e-07 4.42354e-08 0
-1.67966e-07 3.77267e-08 0
-1.74516e-07 2.96449e-08 0
-1.84015e-07 2.19289e-08 0
-1.93119e-07 1.53851e-08 0
-2.00254e-07 1.0276e-08 0
-2.05186e-07 6.54333e-09 0
-2.083e-07 3.96422e-09 0
-2.10117e-07 2.26816e-09 0
-2.11094e-07 1.20416e-09 0
-2.11567e-07 5.68595e-10 0
-2.11757e-07 2.09773e-10 0
-2.118e-07 2.16612e-11 0
-2.11774e-07 -6.60983e-11 0
-2.11723e-07 -9.80649e-11 0
-2.11668e-07 -1.0122e-10 0
-2.11619e-07 -9.11515e-11 0
-2.11578e-07 -7.63828e-11 0
-2.11547e-07 -6.12393e-11 0
-2.11523e-07 -4.7666e-11 0
-2.11507e-07 -3.63297e-11 0
-2.11496e-07 -2.72609e-11 0
-2.11489e-07 -2.02101e-11 0
-2.11484e-07 -1.4836e-11 0
-2.11482e-07 -1.07957e-11 0
-2.11482e-07 -7.78228e-12 0
-2.11483e-07 -5.53316e-12 0
-2.11484e-07 -3.82321e-12 0
-2.11486e-07 -2.44636e-12 0
-2.11488e-07 -1.18657e-12 0
-2.11491e-07 2.26679e-13 0
-2.11494e-07 2.2231e-12 0
-2.11497e-07 5.61218e-12 0
-2.11502e-07 1.17269e-11 0
-2.11508e-07 2.19597e-11 0
-2.11524e-07 3.82252e-11 0
0.00891436 -2.53351e-07 0
0 -6.27255e-07 0
8.87132e-11 -1.56203e-08 0
4.98573e-08 -8.63291e-08 0
-4.90688e-08 -2.21619e-07 0
-1.14629e-07 -2.96312e-07 0
5.66162e-08 -1.45535e-07 0
-2.48411e-08 -1.2146e-10 0
-6.14107e-08 -3.18157e-08 0
-1.29409e-07 -9.48105e-08 0
-1.35953e-07 -1.20399e-07 0
-1.62094e-07 -8.93964e-08 0
-2.00162e-07 -2.53311e-08 0
-2.18255e-07 3.77901e-08 0
-2.08376e-07 6.70756e-08 0
-1.84065e-07 6.73971e-08 0
-1.62588e-07 5.62075e-08 0
-1.5086e-07 4.30414e-08 0
-1.4713e-07 3.10054e-08 0
-1.47346e-07 2.10762e-08 0
-1.48638e-07 1.35249e-08 0
-1.49741e-07 8.18303e-09 0
-1.50356e-07 4.63711e-09 0
-1.50563e-07 2.41542e-09 0
-1.50525e-07 1.10059e-09 0
-1.50373e-07 3.70421e-10 0
-1.5019e-07 -2.66826e-12 0
-1.50017e-07 -1.69193e-10 0
-1.49872e-07 -2.23398e-10 0
-1.49758e-07 -2.21407e-10 0
-1.49673e-07 -1.94964e-10 0
-1.4961e-07 -1.60963e-10 0
-1.49566e-07 -1.27667e-10 0
-1.49535e-07 -9.85644e-11 0
-1.49514e-07 -7.46548e-11 0
-1.495e-07 -5.5752e-11 0
-1.49491e-07 -4.11865e-11 0
-1.49487e-07 -3.01636e-11 0
-1.49484e-07 -2.19305e-11 0
-1.49484e-07 -1.58393e-11 0
-1.49484e-07 -1.13588e-11 0
-1.49486e-07 -8.06232e-12 0
-1.49488e-07 -5.60399e-12 0
-1.4949e-07 -3.68974e-12 0
-1.49492e-07 -2.03527e-12 0
-1.49495e-07 -3.12958e-13 0
-1.49497e-07 1.85977e-12 0
-1.49498e-07 4.88603e-12 0
-1.49498e-07 9.34862e-12 0
-1.49498e-07 1.63992e-11 0
-1.49505e-07 2.78014e-11 0
0.00957012 -2.21344e-07 0
0 -1.20308e-06 0
2.19012e-11 -5.02007e-08 0
2.38131e-08 -1.42044e-07 0
-8.66923e-08 -1.94345e-07 0
-1.96396e-07 -1.58124e-07 0
-6.40873e-11 -5.57219e-08 0
1.41966e-09 1.08631e-09 0
-1.17038e-09 1.15659e-09 0
-6.72266e-08 -7.39324e-08 0
-1.82466e-07 -1.54417e-07 0
-2.17389e-07 -1.20438e-07 0
-2.42259e-07 -3.25059e-08 0
-2.59113e-07 3.96618e-08 0
-2.52508e-07 6.46398e-08 0
-2.23704e-07 5.7512e-08 0
-1.88669e-07 4.35343e-08 0
-1.61308e-07 3.16177e-08 0
-1.44681e-07 2.20134e-08 0
-1.35695e-07 1.42487e-08 0
-1.30809e-07 8.36831e-09 0
-1.27891e-07 4.32511e-09 0
-1.25961e-07 1.80773e-09 0
-1.2461e-07 3.92464e-10 0
-1.23652e-07 -3.09276e-10 0
-1.22981e-07 -5.90236e-10 0
-1.2252e-07 -6.45459e-10 0
-1.2221e-07 -5.93581e-10 0
-1.22004e-07 -5.01169e-10 0
-1.2187e-07 -4.02429e-10 0
-1.21783e-07 -3.12873e-10 0
-1.21728e-07 -2.37968e-10 0
-1.21693e-07 -1.78214e-10 0
-1.21672e-07 -1.3197e-10 0
-1.2166e-07 -9.69033e-11 0
-1.21653e-07 -7.06882e-11 0
-1.2165e-07 -5.12907e-11 0
-1.21649e-07 -3.70477e-11 0
-1.2165e-07 -2.66522e-11 0
-1.21651e-07 -1.91018e-11 0
-1.21654e-07 -1.36381e-11 0
-1.21657e-07 -9.69048e-12 0
-1.21659e-07 -6.82553e-12 0
-1.21662e-07 -4.70782e-12 0
-1.21665e-07 -3.07993e-12 0
-1.21667e-07 -1.7486e-12 0
-1.21668e-07 -5.26519e-13 0
-1.21669e-07 9.0574e-13 0
-1.21668e-07 3.14419e-12 0
-1.21665e-07 7.07402e-12 0
-1.2167e-07 1.34946e-11 0
0.00971217 -1.20292e-07 0
0 -1.07353e-06 0
-1.9382e-11 -5.30393e-08 0
-9.30921e-09 -1.16959e-07 0
-1.16228e-07 -1.56762e-07 0
-2.43113e-07 -1.79044e-07 0
-1.09937e-07 -8.62222e-08 0
1.32895e-09 -1.33129e-09 0
1.60955e-10 -1.60955e-10 0
-1.19453e-09 1.14624e-09 0
-9.50369e-08 -7.3525e-08 0
-1.98145e-07 -1.20552e-07 0
-2.04974e-07 -3.21971e-08 0
-2.36192e-07 5.6949e-08 0
-2.64929e-07 7.6214e-08 0
-2.58097e-07 5.28857e-08 0
-2.2128e-07 2.78361e-08 0
-1.81867e-07 1.32241e-08 0
-1.54086e-07 5.53735e-09 0
-1.37735e-07 1.08794e-09 0
-1.28567e-07 -1.47774e-09 0
-1.23312e-07 -2.68154e-09 0
-1.20184e-07 -2.96759e-09 0
-1.1828e-07 -2.74295e-09 0
-1.17115e-07 -2.30456e-09 0
-1.1641e-07 -1.82803e-09 0
-1.1599e-07 -1.39795e-09 0
-1.15745e-07 -1.04392e-09 0
-1.15605e-07 -7.67536e-10 0
-1.15528e-07 -5.58662e-10 0
-1.15487e-07 -4.0401e-10 0
-1.15467e-07 -2.90978e-10 0
-1.15459e-07 -2.09032e-10 0
-1.15458e-07 -1.49914e-10 0
-1.1546e-07 -1.07388e-10 0
-1.15464e-07 -7.68476e-11 0
-1.15468e-07 -5.4935e-11 0
-1.15473e-07 -3.92248e-11 0
-1.15477e-07 -2.79723e-11 0
-1.15482e-07 -1.99258e-11 0
-1.15486e-07 -1.4188e-11 0
-1.15491e-07 -1.01164e-11 0
-1.15494e-07 -7.25471e-12 0
-1.15498e-07 -5.28448e-12 0
-1.15501e-07 -3.98096e-12 0
-1.15504e-07 -3.17243e-12 0
-1.15505e-07 -2.72009e-12 0
-1.15506e-07 -2.51389e-12 0
-1.15506e-07 -2.36809e-12 0
-1.15504e-07 -1.8166e-12 0
-1.15508e-07 -4.39745e-13 0
0.00973347 1.54196e-09 0
0 -7.54219e-07 0
-3.17172e-12 -4.5394e-08 0
-1.36799e-08 -1.08425e-07 0
-1.16918e-07 -1.20916e-07 0
-2.64452e-07 -1.01135e-07 0
-2.46973e-07 -5.85565e-08 0
-7.19234e-08 -1.5295e-08 0
1.34251e-09 -1.32007e-09 0
1.25588e-10 -1.25588e-10 0
-1.24782e-09 1.14125e-09 0
-8.16078e-08 -4.79019e-08 0
-9.20071e-08 -1.014e-08 0
-1.40944e-07 1.08748e-07 0
-2.2654e-07 1.17942e-07 0
-2.69748e-07 6.15273e-08 0
-2.46874e-07 1.2611e-08 0
-2.00128e-07 -9.11457e-09 0
-1.63032e-07 -1.47696e-08 0
-1.41571e-07 -1.44898e-08 0
-1.30758e-07 -1.23762e-08 0
-1.25588e-07 -9.81761e-09 0
-1.23162e-07 -7.39433e-09 0
-1.22051e-07 -5.36615e-09 0
-1.21569e-07 -3.79828e-09 0
-1.21387e-07 -2.64792e-09 0
-1.21344e-07 -1.83146e-09 0
-1.2136e-07 -1.26333e-09 0
-1.21398e-07 -8.72071e-10 0
-1.2144e-07 -6.03673e-10 0
-1.2148e-07 -4.19497e-10 0
-1.21514e-07 -2.92744e-10 0
-1.21542e-07 -2.0513e-10 0
-1.21565e-07 -1.44266e-10 0
-1.21584e-07 -1.01771e-10 0
-1.21599e-07 -7.19604e-11 0
-1.21612e-07 -5.0963e-11 0
-1.21622e-07 -3.61263e-11 0
-1.2163e-07 -2.56233e-11 0
-1.21638e-07 -1.81889e-11 0
-1.21644e-07 -1.29433e-11 0
-1.2165e-07 -9.27503e-12 0
-1.21655e-07 -6.75945e-12 0
-1.21659e-07 -5.10627e-12 0
-1.21663e-07 -4.12937e-12 0
-1.21666e-07 -3.73713e-12 0
-1.21668e-07 -3.94371e-12 0
-1.2167e-07 -4.91939e-12 0
-1.21671e-07 -6.96731e-12 0
-1.21669e-07 -1.01858e-11 0
-1.21674e-07 -1.43912e-11 0
0.00971215 1.22312e-07 0
0 -5.32939e-07 0
5.41805e-12 -3.92416e-08 0
-2.26156e-08 -9.08751e-08 0
-1.29799e-07 -9.3631e-08 0
-2.57597e-07 -5.50137e-08 0
-2.68391e-07 -1.65629e-08 0
-1.72774e-07 -2.66751e-08 0
-8.16927e-08 -2.3135e-08 0
1.32264e-09 -1.31751e-09 0
-1.23146e-09 -1.37095e-09 0
2.10115e-11 -2.61039e-08 0
-4.41047e-08 4.10046e-08 0
-4.32998e-08 1.73243e-07 0
-1.05103e-07 1.70204e-07 0
-1.92247e-07 7.63509e-08 0
-2.21456e-07 7.51083e-10 0
-2.0074e-07 -2.78144e-08 0
-1.72631e-07 -3.03871e-08 0
-1.55288e-07 -2.492e-08 0
-1.47892e-07 -1.8422e-08 0
-1.458e-07 -1.28938e-08 0
-1.45848e-07 -8.72715e-09 0
-1.46531e-07 -5.79407e-09 0
-1.47264e-07 -3.81449e-09 0
-1.4787e-07 -2.51e-09 0
-1.48325e-07 -1.65948e-09 0
-1.48652e-07 -1.10571e-09 0
-1.48884e-07 -7.43493e-10 0
-1.49047e-07 -5.0464e-10 0
-1.49163e-07 -3.4558e-10 0
-1.49246e-07 -2.3856e-10 0
-1.49305e-07 -1.65828e-10 0
-1.49349e-07 -1.15938e-10 0
-1.49381e-07 -8.14294e-11 0
-1.49405e-07 -5.73892e-11 0
-1.49423e-07 -4.05424e-11 0
-1.49438e-07 -2.86845e-11 0
-1.49449e-07 -2.03167e-11 0
-1.49459e-07 -1.44121e-11 0
-1.49467e-07 -1.02628e-11 0
-1.49473e-07 -7.37994e-12 0
-1.49479e-07 -5.43095e-12 0
-1.49484e-07 -4.2019e-12 0
-1.49488e-07 -3.58287e-12 0
-1.49492e-07 -3.57518e-12 0
-1.49495e-07 -4.3225e-12 0
-1.49498e-07 -6.21427e-12 0
-1.495e-07 -1.00947e-11 0
-1.49502e-07 -1.71605e-11 0
-1.49509e-07 -2.83186e-11 0
0.00957007 2.18931e-07 0
0 -4.68308e-07 0
2.04673e-11 -2.90581e-08 0
-4.14913e-08 -7.03205e-08 0
-1.59833e-07 -7.30143e-08 0
-2.7389e-07 -3.93315e-08 0
-2.8716e-07 3.42643e-09 0
-2.15899e-07 -2.52044e-09 0
-1.67674e-07 -7.45675e-08 0
-8.62272e-08 -6.10408e-08 0
-9.01412e-08 -4.29643e-13 0
-1.90229e-07 3.16972e-08 0
-2.67307e-07 8.92977e-08 0
-1.428e-07 1.34903e-07 0
-4.71063e-08 1.3037e-07 0
-1.05481e-07 6.9169e-08 0
-1.87153e-07 1.03505e-08 0
-2.12052e-07 -1.75917e-08 0
-2.0727e-07 -2.23561e-08 0
-2.01568e-07 -1.8083e-08 0
-2.00664e-07 -1.26044e-08 0
-2.02396e-07 -8.29806e-09 0
-2.04698e-07 -5.36014e-09 0
-2.0669e-07 -3.45972e-09 0
-2.08177e-07 -2.2517e-09 0
-2.09217e-07 -1.48337e-09 0
-2.09923e-07 -9.89889e-10 0
-2.10399e-07 -6.68589e-10 0
-2.10721e-07 -4.56395e-10 0
-2.10939e-07 -3.14384e-10 0
-2.11089e-07 -2.18218e-10 0
-2.11194e-07 -1.5243e-10 0
-2.11268e-07 -1.07024e-10 0
-2.11321e-07 -7.54489e-11 0
-2.1136e-07 -5.3349e-11 0
-2.11389e-07 -3.77976e-11 0
-2.1141e-07 -2.6808e-11 0
-2.11427e-07 -1.90194e-11 0
-2.1144e-07 -1.34933e-11 0
-2.11451e-07 -9.57855e-12 0
-2.11459e-07 -6.82215e-12 0
-2.11466e-07 -4.91126e-12 0
-2.11473e-07 -3.63651e-12 0
-2.11478e-07 -2.87302e-12 0
-2.11483e-07 -2.57843e-12 0
-2.11487e-07 -2.81579e-12 0
-2.11491e-07 -3.80269e-12 0
-2.11495e-07 -6.02156e-12 0
-2.115e-07 -1.06402e-11 0
-2.11505e-07 -2.01775e-11 0
-2.1152e-07 -3.786e-11 0
0.0089143 2.41916e-07 0
0 -4.93744e-07 0
3.16332e-11 -1.43358e-08 0
-5.88496e-08 -3.66755e-08 0
-1.74571e-07 -3.77162e-08 0
-2.66875e-07 -2.09023e-08 0
-2.89973e-07 -1.28095e-08 0
-2.44428e-07 -2.59208e-08 0
-2.11849e-07 -6.87708e-08 0
-2.34582e-07 -5.52515e-08 0
-2.17418e-07 5.75158e-08 0
-2.52998e-07 1.47021e-07 0
-2.38275e-07 1.11073e-07 0
-1.31124e-07 -1.81315e-09 0
-6.64699e-08 -7.07721e-08 0
-1.32239e-07 -6.70438e-08 0
-2.1742e-07 -2.83205e-08 0
-2.46564e-07 1.87683e-09 0
-2.42739e-07 1.08954e-08 0
-2.35184e-07 8.63091e-09 0
-2.31714e-07 4.49777e-09 0
-2.31326e-07 1.67981e-09 0
-2.322e-07 2.76723e-10 0
-2.33326e-07 -2.70805e-10 0
-2.34315e-07 -4.09468e-10 0
-2.35077e-07 -3.86032e-10 0
-2.35631e-07 -3.14421e-10 0
-2.36024e-07 -2.40002e-10 0
-2.363e-07 -1.77387e-10 0
-2.36494e-07 -1.28951e-10 0
-2.36631e-07 -9.2943e-11 0
-2.36728e-07 -6.66976e-11 0
-2.36798e-07 -4.77542e-11 0
-2.36849e-07 -3.41431e-11 0
-2.36886e-07 -2.43815e-11 0
-2.36914e-07 -1.73847e-11 0
-2.36935e-07 -1.23705e-11 0
-2.36952e-07 -8.77938e-12 0
-2.36965e-07 -6.21201e-12 0
-2.36975e-07 -4.38447e-12 0
-2.36983e-07 -3.09598e-12 0
-2.36991e-07 -2.20708e-12 0
-2.36997e-07 -1.62583e-12 0
-2.37002e-07 -1.30239e-12 0
-2.37007e-07 -1.23374e-12 0
-2.37012e-07 -1.48232e-12 0
-2.37016e-07 -2.22332e-12 0
-2.37021e-07 -3.83642e-12 0
-2.37028e-07 -7.19238e-12 0
-2.37039e-07 -1.42939e-11 0
-2.37062e-07 -2.84338e-11 0
0.00656061 1.35633e-07 0
0 0 0
1.92323e-11 0 0
-3.14358e-08 0 0
-8.4118e-08 0 0
-1.21937e-07 0 0
-1.34103e-07 0 0
-1.2938e-07 0 0
-1.2588e-07 0 0
-1.48352e-07 0 0
-1.27261e-07 0 0
-6.27485e-08 0 0
-5.60023e-09 0 0
4.61784e-09 0 0
-3.06291e-08 0 0
-8.73156e-08 0 0
-1.24761e-07 0 0
-1.31935e-07 0 0
-1.24903e-07 0 0
-1.17166e-07 0 0
-1.12552e-07 0 0
-1.10529e-07 0 0
-1.09916e-07 0 0
-1.0991e-07 0 0
-1.10104e-07 0 0
-1.10328e-07 0 0
-1.10521e-07 0 0
-1.10672e-07 0 0
-1.10785e-07 0 0
-1.10867e-07 0 0
-1.10927e-07 0 0
-1.10971e-07 0 0
-1.11002e-07 0 0
-1.11026e-07 0 0
-1.11043e-07 0 0
-1.11056e-07 0 0
-1.11066e-07 0 0
-1.11074e-07 0 0
-1.1108e-07 0 0
-1.11085e-07 0 0
-1.11089e-07 0 0
-1.11092e-07 0 0
-1.11095e-07 0 0
-1.11098e-07 0 0
-1.111e-07 0 0
-1.11102e-07 0 0
-1.11105e-07 0 0
-1.11108e-07 0 0
-1.11111e-07 0 0
-1.11118e-07 0 0
-1.11132e-07 0 0
0.00237096 0 0
0 0 5.51956e-07
8.04399e-11 0 2.70226e-08
-4.58745e-08 0 1.03384e-07
-2.55202e-07 0 1.47596e-07
-6.39623e-07 0 -7.6294e-08
-2.42542e-07 0 -2.52587e-07
-5.6961e-08 0 -1.94569e-07
6.54244e-08 0 -1.35327e-07
1.27784e-07 0 -5.18836e-08
1.08505e-07 0 5.09166e-09
3.1821e-08 0 1.95825e-08
-5.62273e-08 0 8.77567e-09
-1.23008e-07 0 -3.63954e-09
-1.61822e-07 0 -8.1141e-09
-1.8174e-07 0 -6.59889e-09
-1.94133e-07 0 -3.3403e-09
-2.04858e-07 0 -7.50783e-10
-2.14857e-07 0 6.13268e-10
-2.23423e-07 0 1.04943e-09
-2.30045e-07 0 9.98812e-10
-2.34739e-07 0 7.74698e-10
-2.3784e-07 0 5.37659e-10
-2.39766e-07 0 3.47307e-10
-2.40891e-07 0 2.13092e-10
-2.41502e-07 0 1.25579e-10
-2.41804e-07 0 7.14907e-11
-2.41928e-07 0 3.93803e-11
-2.41958e-07 0 2.09388e-11
-2.41943e-07 0 1.06597e-11
-2.4191e-07 0 5.09942e-12
-2.41873e-07 0 2.1912e-12
-2.41839e-07 0 7.33318e-13
-2.41812e-07 0 4.58617e-14
-2.4179e-07 0 -2.46098e-13
-2.41774e-07 0 -3.43917e-13
-2.41763e-07 0 -3.52506e-13
-2.41755e-07 0 -3.2443e-13
-2.41751e-07 0 -2.84508e-13
-2.41748e-07 0 -2.43183e-13
-2.41748e-07 0 -2.03579e-13
-2.41748e-07 0 -1.65012e-13
-2.41749e-07 0 -1.24363e-13
-2.41751e-07 0 -7.62422e-14
-2.41753e-07 0 -1.28302e-14
-2.41756e-07 0 8.13363e-14
-2.4176e-07 0 2.44185e-13
-2.41764e-07 0 5.5875e-13
-2.41772e-07 0 1.41282e-12
-2.41784e-07 0 4.62323e-12
-2.41809e-07 0 1.44482e-11
0.00654227 0 -7.0529e-08
0.0036 -1.73878e-07 2.89317e-08
0.0035998 -0.00129035 -1.7579e-05
0.00687437 -0.00405403 -0.000334638
0.014065 -0.00728932 -0.00191826
0.0251505 -0.0140887 -0.00513406
0.0462099 -0.0112556 -0.00469729
0.0492081 -0.0010323 -0.0013948
0.0487328 0.00315331 0.000173766
0.0435044 0.00532244 0.000821116
0.0378351 0.00531698 0.000586385
0.0327952 0.00441255 9.35913e-05
0.0286126 0.00328063 -0.000275182
0.0253592 0.00224738 -0.000397767
0.0230022 0.00145968 -0.000335696
0.0213886 0.000930907 -0.000212037
0.0203223 0.000596198 -0.000107888
0.0196351 0.000383196 -4.47351e-05
0.0192025 0.000244421 -1.38037e-05
0.0189366 0.000153285 -1.31064e-06
0.018777 9.4073e-05 2.50182e-06
0.0186836 5.63846e-05 2.89234e-06
0.0186304 3.29573e-05 2.24944e-06
0.018601 1.87418e-05 1.49499e-06
0.0185854 1.03223e-05 9.04762e-07
0.0185775 5.45997e-06 5.09621e-07
0.0185737 2.72881e-06 2.67789e-07
0.0185722 1.24443e-06 1.29157e-07
0.0185718 4.71359e-07 5.42154e-08
0.0185719 9.28061e-08 1.62498e-08
0.0185722 -7.42801e-08 -1.33065e-09
0.0185725 -1.33054e-07 -8.2484e-09
0.0185728 -1.39997e-07 -9.94308e-09
0.0185731 -1.24953e-07 -9.32451e-09
0.0185733 -1.02936e-07 -7.8711e-09
0.0185734 -8.09499e-08 -6.28304e-09
0.0185735 -6.18311e-08 -4.85523e-09
0.0185736 -4.63619e-08 -3.68266e-09
0.0185737 -3.43992e-08 -2.76998e-09
0.0185737 -2.5454e-08 -2.08801e-09
0.0185737 -1.89753e-08 -1.60256e-09
0.0185738 -1.44816e-08 -1.28987e-09
0.0185738 -1.16199e-08 -1.14598e-09
0.0185738 -1.02044e-08 -1.19594e-09
0.0185738 -1.02663e-08 -1.49888e-09
0.0185738 -1.21288e-08 -2.1093e-09
0.0185738 -1.66911e-08 -3.07363e-09
0.0185739 -2.5763e-08 -3.93637e-09
0.0185739 -4.26397e-08 -1.90258e-09
0.0185741 -9.73189e-08 -1.40064e-08
0.0185743 -2.86933e-07 -1.24414e-07
0.0185747 -4.32841e-07 -2.20432e-07
0.01 -9.99311e-08 -1.30327e-06
0.0100009 -0.0030917 -0.000497259
0.0149787 -0.010188 -0.00104552
0.0240353 -0.0181956 -0.00246265
0.0374277 -0.0306398 -0.00409307
0.0571321 -0.0218668 -0.00111612
0.0550086 -0.00167452 0.00228103
0.0549781 0.00573308 0.00256527
0.0494315 0.010629 0.00237539
0.0439563 0.0106194 0.00147213
0.0393407 0.00939714 0.000406945
0.0353529 0.00774389 -0.000323066
0.0321315 0.00590397 -0.000597394
0.029809 0.00417554 -0.000536478
0.0282476 0.00279276 -0.000349136
0.027238 0.00180291 -0.000181681
0.0266042 0.00113549 -7.73663e-05
0.0262182 0.000700043 -2.51043e-05
0.0259907 0.000422608 -3.33746e-06
0.0258615 0.000249648 3.75037e-06
0.0257909 0.000144094 4.85319e-06
0.0257541 8.10348e-05 4.00546e-06
0.0257362 4.41765e-05 2.82248e-06
0.0257283 2.3132e-05 1.83092e-06
0.0257255 1.14322e-05 1.12785e-06
0.0257252 5.1349e-06 6.70149e-07
0.0257259 1.88794e-06 3.87434e-07
0.0257268 3.16724e-07 2.19007e-07
0.0257278 -3.64618e-07 1.21344e-07
0.0257287 -5.94727e-07 6.59323e-08
0.0257293 -6.11635e-07 3.5077e-08
0.0257299 -5.39964e-07 1.81915e-08
0.0257303 -4.41769e-07 9.1109e-09
0.0257306 -3.4559e-07 4.32038e-09
0.0257308 -2.62679e-07 1.85093e-09
0.0257309 -1.95857e-07 6.16467e-10
0.025731 -1.44197e-07 2.63614e-11
0.0257311 -1.05399e-07 -2.36682e-10
0.0257312 -7.69369e-08 -3.42233e-10
0.0257312 -5.65598e-08 -3.83302e-10
0.0257312 -4.24815e-08 -4.17699e-10
0.0257312 -3.34427e-08 -4.91784e-10
0.0257313 -2.87512e-08 -6.54321e-10
0.0257313 -2.84166e-08 -9.68451e-10
0.0257313 -3.34355e-08 -1.4185e-09
0.0257313 -4.64058e-08 -1.70085e-09
0.0257314 -7.57136e-08 -1.4117e-09
0.0257314 -1.43782e-07 1.05978e-09
0.0257316 -2.8134e-07 -2.33763e-08
0.0257318 -5.31792e-07 -2.01417e-07
0.025732 -6.92428e-07 -3.52922e-07
0.0148 -9.74693e-07 -1.62595e-06
0.0148024 -0.00531498 -0.00104444
0.0200202 -0.0161994 -0.00256307
0.0263679 -0.0277031 -0.00454476
0.0307823 -0.0435274 -0.00535838
0.0292924 -0.0267278 -0.000889051
0.0262588 -1.14501e-05 0.00261221
0.0261808 0.00741413 0.00264424
0.0305061 0.0153783 0.00255475
0.03087 0.0150853 0.00163402
0.029741 0.0132354 0.00062238
0.0285968 0.0109475 -0.000116396
0.0277894 0.00823899 -0.000414367
0.0274857 0.00566322 -0.000400066
0.0274475 0.00368281 -0.000255606
0.0274917 0.00232219 -0.000117927
0.0275457 0.00143183 -3.27342e-05
0.0275938 0.000862892 6.25191e-06
0.0276353 0.000506899 1.81125e-05
0.0276706 0.000289445 1.78661e-05
0.0276996 0.000160059 1.37974e-05
0.0277224 8.51497e-05 9.4914e-06
0.0277396 4.30177e-05 6.09783e-06
0.027752 2.00797e-05 3.74321e-06
0.0277609 8.08277e-06 2.22338e-06
0.027767 2.14716e-06 1.2874e-06
0.0277712 -5.39258e-07 7.29875e-07
0.0277741 -1.55561e-06 4.06079e-07
0.027776 -1.76403e-06 2.21837e-07
0.0277774 -1.61968e-06 1.18842e-07
0.0277782 -1.35232e-06 6.22067e-08
0.0277788 -1.07042e-06 3.158e-08
0.0277793 -8.19349e-07 1.53236e-08
0.0277795 -6.13256e-07 6.88974e-09
0.0277797 -4.51931e-07 2.64704e-09
0.0277798 -3.29481e-07 6.0892e-10
0.0277799 -2.38539e-07 -2.96472e-10
0.02778 -1.7213e-07 -6.39063e-10
0.02778 -1.24388e-07 -7.17597e-10
0.0277801 -9.07088e-08 -6.8803e-10
0.0277801 -6.76914e-08 -6.35487e-10
0.0277801 -5.30356e-08 -6.14673e-10
0.0277801 -4.54949e-08 -6.64991e-10
0.0277801 -4.49749e-08 -8.01369e-10
0.0277801 -5.32877e-08 -1.01197e-09
0.0277802 -7.58294e-08 -1.3828e-09
0.0277802 -1.20804e-07 -2.88405e-09
0.0277802 -1.97315e-07 -7.54503e-09
0.0277803 -3.16193e-07 -5.10746e-08
0.0277803 -4.89578e-07 -2.61447e-07
0.0277802 -5.91449e-07 -4.31753e-07
0.018 -2.00613e-06 -1.74491e-06
0.0180026 -0.00667919 -0.0018783
0.0203592 -0.0178734 -0.00500109
0.0201354 -0.0233975 -0.00659561
0.0158628 -0.0255471 -0.00716548
-1.38027e-06 -0.0133529 -0.00369384
0.000101036 3.10301e-05 7.69411e-07
-3.72777e-05 3.91005e-05 0.000498864
0.00713683 0.00481177 0.00104381
0.0149157 0.0109591 0.000930655
0.0183438 0.0117592 0.000505244
0.0199651 0.010026 1.60901e-05
0.0216778 0.00736026 -0.000272673
0.0234572 0.00476882 -0.000298651
0.024988 0.00292515 -0.000193114
0.0261281 0.00175964 -7.66049e-05
0.0269004 0.00104278 -1.17437e-06
0.0273985 0.000601561 3.07633e-05
0.0277136 0.000332993 3.57761e-05
0.0279115 0.000174367 2.95029e-05
0.0280349 8.45307e-05 2.08944e-05
0.0281113 3.61143e-05 1.35584e-05
0.0281581 1.15471e-05 8.31109e-06
0.0281866 9.15566e-08 4.89269e-06
0.0282037 -4.50847e-06 2.79231e-06
0.028214 -5.74129e-06 1.55282e-06
0.0282202 -5.46883e-06 8.43067e-07
0.0282239 -4.63704e-06 4.46432e-07
0.0282261 -3.6958e-06 2.29516e-07
0.0282274 -2.83693e-06 1.13394e-07
0.0282282 -2.12466e-06 5.26941e-08
0.0282286 -1.56451e-06 2.19027e-08
0.0282289 -1.1383e-06 6.93327e-09
0.0282291 -8.211e-07 1.37752e-10
0.0282292 -5.8866e-07 -2.56634e-09
0.0282293 -4.20279e-07 -3.31645e-09
0.0282293 -2.99412e-07 -3.20486e-09
0.0282294 -2.13364e-07 -2.77168e-09
0.0282294 -1.52676e-07 -2.27223e-09
0.0282294 -1.10472e-07 -1.82124e-09
0.0282294 -8.19055e-08 -1.47068e-09
0.0282294 -6.37488e-08 -1.25234e-09
0.0282294 -5.4194e-08 -1.21521e-09
0.0282294 -5.28665e-08 -1.47755e-09
0.0282294 -6.05126e-08 -2.3046e-09
0.0282294 -7.8161e-08 -4.49868e-09
0.0282294 -1.06634e-07 -9.8438e-09
0.0282293 -1.46155e-07 -2.02092e-08
0.0282293 -2.00313e-07 -7.3324e-08
0.0282292 -2.75657e-07 -2.9285e-07
0.0282291 -3.1935e-07 -4.65931e-07
0.0196 -2.659e-06 -2.6838e-06
0.0196008 -0.00539959 -0.00272271
0.0191092 -0.0121642 -0.00649802
0.016171 -0.0148194 -0.00695115
0.0113049 -0.0135656 -0.00667118
0.00213754 -0.00551349 -0.00450846
7.624e-05 -7.01443e-05 -0.00101053
3.28665e-05 -3.28665e-05 -4.42407e-08
-3.63632e-05 3.81922e-05 0.000155898
0.00475812 0.00361969 0.000320824
0.0108767 0.00815108 0.000257222
0.0136771 0.00775025 -1.74927e-05
0.0169432 0.00496125 -0.000295844
0.0202142 0.00253992 -0.000354618
0.0229833 0.00112416 -0.00027109
0.0250113 0.000452291 -0.000139148
0.026338 0.000161101 -3.41613e-05
0.0271503 3.2108e-05 1.8557e-05
0.0276332 -2.57034e-05 3.25673e-05
0.0279166 -4.75377e-05 2.87618e-05
0.0280814 -5.05302e-05 2.03888e-05
0.0281763 -4.48217e-05 1.29113e-05
0.0282303 -3.62644e-05 7.62872e-06
0.0282607 -2.77982e-05 4.29517e-06
0.0282776 -2.06033e-05 2.32783e-06
0.0282869 -1.49461e-05 1.21824e-06
0.0282919 -1.06937e-05 6.13694e-07
0.0282946 -7.58383e-06 2.94117e-07
0.028296 -5.34846e-06 1.30327e-07
0.0282967 -3.75896e-06 4.94749e-08
0.0282971 -2.63638e-06 1.16544e-08
0.0282972 -1.84688e-06 -4.4861e-09
0.0282973 -1.29307e-06 -1.01246e-08
0.0282973 -9.05208e-07 -1.09764e-08
0.0282973 -6.33856e-07 -9.87775e-09
0.0282973 -4.44193e-07 -8.17758e-09
0.0282973 -3.11788e-07 -6.47391e-09
0.0282972 -2.19556e-07 -4.99876e-09
0.0282972 -1.55586e-07 -3.8163e-09
0.0282972 -1.11617e-07 -2.92507e-09
0.0282972 -8.19807e-08 -2.31438e-09
0.0282972 -6.28694e-08 -2.00223e-09
0.0282972 -5.17439e-08 -2.08044e-09
0.0282972 -4.6746e-08 -2.79545e-09
0.0282972 -4.62082e-08 -4.56579e-09
0.0282972 -4.82026e-08 -8.13776e-09
0.0282971 -5.00347e-08 -1.50673e-08
0.0282971 -4.69145e-08 -2.65001e-08
0.028297 -3.39843e-08 -8.06127e-08
0.0282969 -1.19967e-08 -3.00566e-07
0.0282967 6.56374e-10 -4.73328e-07
0.0196 -1.29769e-06 -3.60508e-06
0.0196001 -0.00332794 -0.00306928
0.0189941 -0.00707283 -0.00655568
0.0177136 -0.00674798 -0.0064712
0.0138157 -0.00302533 -0.00573377
0.0099153 0.00329265 -0.00466394
0.00642272 0.00331619 -0.00235358
7.63055e-05 -6.39831e-05 -0.000442376
2.76198e-05 -2.76198e-05 -1.32459e-07
-3.53571e-05 3.73693e-05 4.52203e-05
0.00360667 0.00280603 0.000338464
0.00824001 0.00404182 0.000373745
0.0136397 0.00103539 -2.41932e-05
0.0184557 -0.00103764 -0.000306921
0.0222376 -0.0016959 -0.000382709
0.0248433 -0.00150252 -0.000280284
0.0264174 -0.00106906 -0.000134243
0.0272868 -0.000699906 -3.76106e-05
0.0277473 -0.000449306 2.75466e-06
0.0279873 -0.000288538 1.21868e-05
0.0281112 -0.000185535 1.05777e-05
0.0281741 -0.000119213 6.91863e-06
0.0282055 -7.65411e-05 3.96327e-06
0.0282206 -4.91926e-05 2.08233e-06
0.0282275 -3.17197e-05 1.01429e-06
0.0282304 -2.0562e-05 4.50809e-07
0.0282314 -1.34193e-05 1.71266e-07
0.0282315 -8.82383e-06 4.17419e-08
0.0282312 -5.84715e-06 -1.24689e-08
0.0282309 -3.90385e-06 -3.08321e-08
0.0282306 -2.62472e-06 -3.33147e-08
0.0282303 -1.77593e-06 -2.95966e-08
0.0282301 -1.2084e-06 -2.41266e-08
0.0282299 -8.2632e-07 -1.87847e-08
0.0282298 -5.67563e-07 -1.42407e-08
0.0282297 -3.9147e-07 -1.06273e-08
0.0282296 -2.71201e-07 -7.86416e-09
0.0282295 -1.88894e-07 -5.80706e-09
0.0282295 -1.32576e-07 -4.3145e-09
0.0282295 -9.41655e-08 -3.27728e-09
0.0282294 -6.81359e-08 -2.63615e-09
0.0282294 -5.05875e-08 -2.39989e-09
0.0282294 -3.85567e-08 -2.66577e-09
0.0282294 -2.94517e-08 -3.64393e-09
0.0282294 -2.04839e-08 -5.65005e-09
0.0282293 -8.00952e-09 -9.29264e-09
0.0282293 1.33416e-08 -1.60939e-08
0.0282293 5.32416e-08 -2.66564e-08
0.0282292 1.2825e-07 -7.6756e-08
0.0282292 2.48566e-07 -2.90566e-07
0.028229 3.20085e-07 -4.60431e-07
0.018 -8.2083e-07 -3.54108e-06
0.018001 -0.00168431 -0.00300589
0.0184673 -0.0029577 -0.00621914
0.0187771 -0.00140714 -0.00570926
0.0181183 0.00173495 -0.00460811
0.0180441 0.00760283 -0.00371029
0.0186357 0.0126848 -0.00230061
0.0114973 0.0069499 -0.00103363
7.80486e-05 -4.99175e-05 -0.000327428
-2.83411e-05 -5.74619e-05 5.60758e-07
7.88437e-06 -0.000231509 0.000824391
0.00929765 -0.00240401 0.0013288
0.0170494 -0.00513808 0.000721056
0.0219294 -0.00578345 0.00016266
0.0247993 -0.00497329 -0.000229856
0.0264343 -0.00352577 -0.000325604
0.0272805 -0.00218456 -0.000231885
0.0276593 -0.00126693 -0.000118315
0.0278015 -0.000724232 -4.93549e-05
0.0278405 -0.000417116 -1.82306e-05
0.0278407 -0.000242898 -6.36033e-06
0.0278293 -0.000142846 -2.27226e-06
0.0278169 -8.48068e-05 -9.36549e-07
0.0278065 -5.08728e-05 -4.91639e-07
0.0277987 -3.08728e-05 -3.18429e-07
0.0277931 -1.89735e-05 -2.27958e-07
0.0277891 -1.18151e-05 -1.6711e-07
0.0277864 -7.45518e-06 -1.21753e-07
0.0277845 -4.76465e-06 -8.75705e-08
0.0277832 -3.08194e-06 -6.22676e-08
0.0277823 -2.01563e-06 -4.39313e-08
0.0277816 -1.3314e-06 -3.08684e-08
0.0277812 -8.87214e-07 -2.1671e-08
0.0277809 -5.95816e-07 -1.52411e-08
0.0277806 -4.02885e-07 -1.07618e-08
0.0277805 -2.74148e-07 -7.64567e-09
0.0277804 -1.87703e-07 -5.48031e-09
0.0277803 -1.29378e-07 -3.98238e-09
0.0277803 -8.9879e-08 -2.96384e-09
0.0277802 -6.30004e-08 -2.31036e-09
0.0277802 -4.44679e-08 -1.97012e-09
0.0277802 -3.11469e-08 -1.95026e-09
0.0277801 -2.04408e-08 -2.32523e-09
0.0277801 -9.75134e-09 -3.26087e-09
0.0277801 4.13146e-09 -4.99669e-09
0.0277801 2.58522e-08 -7.99721e-09
0.0277801 6.25362e-08 -1.36737e-08
0.0277801 1.27226e-07 -2.20653e-08
0.0277801 2.50326e-07 -6.26755e-08
0.0277801 4.60919e-07 -2.58451e-07
0.02778 5.89978e-07 -4.18286e-07
0.0148 -4.79639e-07 -3.08856e-06
0.0148015 -0.000772996 -0.0027925
0.0164521 -0.000877943 -0.0055498
0.0184908 0.00102915 -0.0047619
0.0204067 0.00406343 -0.00356315
0.0224953 0.00761926 -0.00290297
0.0261406 0.0127657 -0.00208459
0.0292765 0.0197812 -0.00115096
0.0238765 0.0117058 -0.000153474
0.0242582 -1.04855e-09 0.000608021
0.0277205 -0.00691021 0.00150189
0.0321981 -0.013652 0.00226322
0.0334644 -0.0118555 0.00201501
0.0323499 -0.00870592 0.00126961
0.0303684 -0.00593238 0.000288876
0.0286128 -0.00371566 -0.000292163
0.0274269 -0.0021213 -0.000370059
0.0267145 -0.00113726 -0.00024376
0.0263025 -0.000597591 -0.000124132
0.0260656 -0.000316706 -5.58803e-05
0.0259289 -0.000171256 -2.37319e-05
0.0258495 -9.47314e-05 -9.84245e-06
0.025803 -5.35765e-05 -4.06934e-06
0.0257754 -3.09389e-05 -1.70116e-06
0.0257588 -1.82151e-05 -7.26278e-07
0.0257488 -1.09174e-05 -3.18296e-07
0.0257425 -6.65241e-06 -1.42975e-07
0.0257386 -4.11598e-06 -6.51836e-08
0.0257361 -2.58282e-06 -2.95896e-08
0.0257345 -1.64189e-06 -1.29507e-08
0.0257334 -1.05614e-06 -5.1428e-09
0.0257328 -6.8665e-07 -1.56465e-09
0.0257323 -4.5071e-07 -3.63572e-11
0.025732 -2.98379e-07 5.0865e-10
0.0257318 -1.99061e-07 6.00846e-10
0.0257316 -1.33755e-07 5.02697e-10
0.0257315 -9.05023e-08 3.39232e-10
0.0257314 -6.16633e-08 1.63598e-10
0.0257314 -4.2273e-08 -1.0015e-11
0.0257314 -2.90103e-08 -1.91185e-10
0.0257313 -1.9528e-08 -4.09096e-10
0.0257313 -1.19778e-08 -7.15481e-10
0.0257313 -4.61649e-09 -1.19421e-09
0.0257313 4.59222e-09 -1.98161e-09
0.0257313 1.84824e-08 -3.24963e-09
0.0257313 4.15695e-08 -5.27575e-09
0.0257313 8.13181e-08 -9.03118e-09
0.0257313 1.50632e-07 -1.45225e-08
0.0257314 2.85763e-07 -4.30011e-08
0.0257315 5.31813e-07 -2.03917e-07
0.0257317 6.86902e-07 -3.39387e-07
0.01 -9.31462e-07 -2.75698e-06
0.0100007 -0.000479739 -0.00231617
0.0116661 -0.000293184 -0.00434042
0.01421 0.00107203 -0.00335805