# vtk DataFile Version 2.0
Tobias Weinzierl: CPU, Manycore and Cluster Computing
ASCII

DATASET STRUCTURED_POINTS
DIMENSIONS  51 11 6

ORIGIN 0 0 0 

SPACING 0.1 0.1 0.1 

POINT_DATA 3366

VECTORS velocity float
0 0 0
-1.216e-10 0 0
-1.08834e-07 0 0
-2.59954e-07 0 0
-3.30043e-07 0 0
-1.05717e-07 0 0
-1.76132e-08 0 0
8.44582e-09 0 0
-1.83445e-08 0 0
-8.66159e-08 0 0
-1.47153e-07 0 0
-1.76069e-07 0 0
-1.7991e-07 0 0
-1.73686e-07 0 0
-1.67392e-07 0 0
-1.64491e-07 0 0
-1.64548e-07 0 0
-1.66088e-07 0 0
-1.67973e-07 0 0
-1.69637e-07 0 0
-1.70904e-07 0 0
-1.71794e-07 0 0
-1.72391e-07 0 0
-1.72785e-07 0 0
-1.73049e-07 0 0
-1.73236e-07 0 0
-1.73379e-07 0 0
-1.735e-07 0 0
-1.73611e-07 0 0
-1.73717e-07 0 0
-1.73821e-07 0 0
-1.73924e-07 0 0
-1.74027e-07 0 0
-1.74128e-07 0 0
-1.74228e-07 0 0
-1.74324e-07 0 0
-1.74417e-07 0 0
-1.74506e-07 0 0
-1.74591e-07 0 0
-1.7467e-07 0 0
-1.74745e-07 0 0
-1.74813e-07 0 0
-1.74875e-07 0 0
-1.74932e-07 0 0
-1.74982e-07 0 0
-1.75026e-07 0 0
-1.75065e-07 0 0
-1.751e-07 0 0
-1.75133e-07 0 0
-1.75173e-07 0 0
0.00258102 0 0
0 4.56363e-07 0
-1.93114e-10 4.90954e-08 0
-1.94623e-07 1.00912e-07 0
-4.90495e-07 9.44973e-08 0
-5.83015e-07 6.4156e-08 0
-2.16279e-07 8.01314e-08 0
-9.71896e-08 1.21819e-07 0
-5.35837e-08 1.10473e-07 0
-4.74573e-08 9.93574e-08 0
-1.28056e-07 9.65092e-08 0
-2.24726e-07 7.07541e-08 0
-2.80588e-07 3.59663e-08 0
-2.96872e-07 1.01669e-08 0
-2.97211e-07 -1.47552e-09 0
-2.98477e-07 -3.08997e-09 0
-3.0519e-07 -8.75624e-10 0
-3.15058e-07 1.24367e-09 0
-3.24966e-07 2.1741e-09 0
-3.33183e-07 2.18124e-09 0
-3.39268e-07 1.75873e-09 0
-3.43453e-07 1.24325e-09 0
-3.46194e-07 7.94025e-10 0
-3.47935e-07 4.59263e-10 0
-3.49028e-07 2.34107e-10 0
-3.49725e-07 9.49556e-11 0
-3.50189e-07 1.61039e-11 0
-3.50525e-07 -2.37995e-11 0
-3.50793e-07 -4.03086e-11 0
-3.51028e-07 -4.38212e-11 0
-3.51247e-07 -4.08292e-11 0
-3.51459e-07 -3.51342e-11 0
-3.51668e-07 -2.88082e-11 0
-3.51875e-07 -2.28743e-11 0
-3.52078e-07 -1.77553e-11 0
-3.52277e-07 -1.35528e-11 0
-3.5247e-07 -1.02117e-11 0
-3.52657e-07 -7.61264e-12 0
-3.52835e-07 -5.61975e-12 0
-3.53004e-07 -4.10298e-12 0
-3.53163e-07 -2.94545e-12 0
-3.53311e-07 -2.04185e-12 0
-3.53447e-07 -1.29018e-12 0
-3.53572e-07 -5.76258e-13 0
-3.53684e-07 2.54137e-13 0
-3.53784e-07 1.44969e-12 0
-3.53872e-07 3.44742e-12 0
-3.53948e-07 7.01854e-12 0
-3.54015e-07 1.36086e-11 0
-3.54078e-07 2.62085e-11 0
-3.54149e-07 5.00402e-11 0
0.00699674 -2.27601e-07 0
0 2.14985e-08 0
-1.08783e-10 5.56778e-08 0
-1.01044e-07 5.47706e-08 0
-3.45762e-07 -7.22251e-08 0
-3.26274e-07 -9.31622e-08 0
-7.12353e-08 6.65315e-08 0
-1.31264e-07 1.82695e-07 0
-1.4925e-07 1.0951e-07 0
-1.19276e-07 1.63164e-08 0
-1.30619e-07 5.48331e-09 0
-1.89212e-07 2.07768e-08 0
-2.2751e-07 4.69349e-08 0
-2.39143e-07 6.49832e-08 0
-2.37837e-07 6.47043e-08 0
-2.39117e-07 5.39119e-08 0
-2.47764e-07 4.13273e-08 0
-2.60382e-07 3.01469e-08 0
-2.72719e-07 2.1073e-08 0
-2.82591e-07 1.41375e-08 0
-2.89608e-07 9.11075e-09 0
-2.94226e-07 5.63724e-09 0
-2.97116e-07 3.33887e-09 0
-2.98869e-07 1.87901e-09 0
-2.99924e-07 9.88687e-10 0
-3.00573e-07 4.68721e-10 0
-3.00997e-07 1.8002e-10 0
-3.01303e-07 3.00708e-11 0
-3.01553e-07 -4.00884e-11 0
-3.01776e-07 -6.65921e-11 0
-3.01989e-07 -7.07466e-11 0
-3.02199e-07 -6.46094e-11 0
-3.02407e-07 -5.46782e-11 0
-3.02614e-07 -4.42284e-11 0
-3.02818e-07 -3.47409e-11 0
-3.03017e-07 -2.67444e-11 0
-3.03211e-07 -2.02943e-11 0
-3.03398e-07 -1.5236e-11 0
-3.03577e-07 -1.13419e-11 0
-3.03746e-07 -8.37609e-12 0
-3.03905e-07 -6.12151e-12 0
-3.04053e-07 -4.38335e-12 0
-3.0419e-07 -2.97878e-12 0
-3.04314e-07 -1.71334e-12 0
-3.04426e-07 -3.42224e-13 0
-3.04525e-07 1.49818e-12 0
-3.0461e-07 4.44148e-12 0
-3.04684e-07 9.64267e-12 0
-3.04745e-07 1.89338e-11 0
-3.04797e-07 3.43767e-11 0
-3.0485e-07 5.97414e-11 0
0.00929589 -3.45893e-07 0
0 -6.07597e-07 0
-6.07392e-11 1.02619e-08 0
-1.46984e-08 -7.70806e-08 0
-2.32841e-07 -2.81327e-07 0
-2.21873e-07 -3.33754e-07 0
3.93417e-08 -1.39429e-07 0
-5.23165e-08 1.13687e-10 0
-8.72344e-08 -6.56977e-08 0
-2.06198e-07 -1.65418e-07 0
-2.35198e-07 -1.68361e-07 0
-2.73375e-07 -8.56299e-08 0
-2.97195e-07 1.6045e-08 0
-2.93435e-07 8.40157e-08 0
-2.67833e-07 9.71336e-08 0
-2.40303e-07 8.25805e-08 0
-2.2393e-07 6.28175e-08 0
-2.1852e-07 4.49852e-08 0
-2.18916e-07 3.05871e-08 0
-2.21057e-07 1.97908e-08 0
-2.23063e-07 1.22073e-08 0
-2.24438e-07 7.17406e-09 0
-2.25246e-07 3.9946e-09 0
-2.25687e-07 2.07604e-09 0
-2.25933e-07 9.70677e-10 0
-2.26095e-07 3.66352e-10 0
-2.26235e-07 5.78227e-11 0
-2.2638e-07 -8.35924e-11 0
-2.26542e-07 -1.35291e-10 0
-2.26719e-07 -1.42019e-10 0
-2.2691e-07 -1.2859e-10 0
-2.2711e-07 -1.08089e-10 0
-2.27316e-07 -8.69558e-11 0
-2.27522e-07 -6.8006e-11 0
-2.27728e-07 -5.21772e-11 0
-2.27929e-07 -3.95001e-11 0
-2.28125e-07 -2.96191e-11 0
-2.28314e-07 -2.20578e-11 0
-2.28493e-07 -1.63443e-11 0
-2.28664e-07 -1.20621e-11 0
-2.28824e-07 -8.86159e-12 0
-2.28972e-07 -6.45389e-12 0
-2.29109e-07 -4.5925e-12 0
-2.29233e-07 -3.04559e-12 0
-2.29345e-07 -1.55139e-12 0
-2.29443e-07 2.30131e-13 0
-2.29527e-07 2.73293e-12 0
-2.29598e-07 6.54164e-12 0
-2.29654e-07 1.27127e-11 0
-2.29698e-07 2.33732e-11 0
-2.29741e-07 4.14119e-11 0
0.00984772 -2.87104e-07 0
0 -1.1692e-06 0
-1.13868e-10 -5.10164e-08 0
-2.93743e-08 -1.68118e-07 0
-2.57492e-07 -2.57756e-07 0
-3.36705e-07 -2.11789e-07 0
4.72797e-11 -7.1016e-08 0
-1.02487e-08 -8.86416e-09 0
8.76474e-09 -9.06142e-09 0
-1.16049e-07 -1.14579e-07 0
-2.86234e-07 -2.10921e-07 0
-3.20334e-07 -1.23276e-07 0
-3.4278e-07 4.05215e-09 0
-3.51684e-07 7.64911e-08 0
-3.27923e-07 8.33365e-08 0
-2.86083e-07 6.5829e-08 0
-2.49568e-07 4.86315e-08 0
-2.26641e-07 3.46509e-08 0
-2.14354e-07 2.32006e-08 0
-2.07964e-07 1.43786e-08 0
-2.04431e-07 8.19647e-09 0
-2.02307e-07 4.23785e-09 0
-2.0097e-07 1.89872e-09 0
-2.00136e-07 6.21377e-10 0
-1.9965e-07 -1.3621e-11 0
-1.99407e-07 -2.8616e-10 0
-1.99333e-07 -3.68312e-10 0
-1.99371e-07 -3.59249e-10 0
-1.99484e-07 -3.12814e-10 0
-1.99644e-07 -2.56355e-10 0
-1.99832e-07 -2.02527e-10 0
-2.00035e-07 -1.56249e-10 0
-2.00246e-07 -1.18633e-10 0
-2.00459e-07 -8.90816e-11 0
-2.00669e-07 -6.63754e-11 0
-2.00875e-07 -4.919e-11 0
-2.01074e-07 -3.632e-11 0
-2.01266e-07 -2.67554e-11 0
-2.01448e-07 -1.9688e-11 0
-2.01619e-07 -1.4489e-11 0
-2.0178e-07 -1.06771e-11 0
-2.0193e-07 -7.88552e-12 0
-2.02067e-07 -5.83165e-12 0
-2.02192e-07 -4.29288e-12 0
-2.02304e-07 -3.09008e-12 0
-2.02402e-07 -2.04781e-12 0
-2.02485e-07 -8.91228e-13 0
-2.02555e-07 9.16574e-13 0
-2.0261e-07 4.28522e-12 0
-2.02652e-07 1.04087e-11 0
-2.02693e-07 2.02092e-11 0
0.00994785 -1.53057e-07 0
0 -1.04461e-06 0
-1.55665e-10 -6.63178e-08 0
-5.88631e-08 -1.54208e-07 0
-2.76684e-07 -2.09058e-07 0
-4.09545e-07 -2.29253e-07 0
-1.53135e-07 -1.08047e-07 0
-9.44372e-09 9.76789e-09 0
-1.00271e-09 1.00271e-09 0
8.48109e-09 -9.04687e-09 0
-1.4023e-07 -9.42719e-08 0
-2.60456e-07 -1.22525e-07 0
-2.90299e-07 1.7943e-08 0
-3.52135e-07 1.00493e-07 0
-3.73134e-07 8.68185e-08 0
-3.37293e-07 4.99184e-08 0
-2.85424e-07 2.64269e-08 0
-2.46223e-07 1.41509e-08 0
-2.22888e-07 6.83211e-09 0
-2.09983e-07 2.22844e-09 0
-2.02805e-07 -3.62285e-10 0
-1.98723e-07 -1.5295e-09 0
-1.96392e-07 -1.84323e-09 0
-1.95098e-07 -1.73161e-09 0
-1.9443e-07 -1.45651e-09 0
-1.94141e-07 -1.15376e-09 0
-1.9408e-07 -8.82243e-10 0
-1.94152e-07 -6.60343e-10 0
-1.94302e-07 -4.87869e-10 0
-1.94495e-07 -3.57657e-10 0
-1.9471e-07 -2.61037e-10 0
-1.94934e-07 -1.90074e-10 0
-1.95161e-07 -1.38263e-10 0
-1.95386e-07 -1.00557e-10 0
-1.95606e-07 -7.31598e-11 0
-1.95818e-07 -5.3267e-11 0
-1.96022e-07 -3.88259e-11 0
-1.96217e-07 -2.83444e-11 0
-1.96401e-07 -2.07414e-11 0
-1.96575e-07 -1.52359e-11 0
-1.96737e-07 -1.12657e-11 0
-1.96888e-07 -8.43015e-12 0
-1.97026e-07 -6.44902e-12 0
-1.97151e-07 -5.12967e-12 0
-1.97263e-07 -4.33209e-12 0
-1.97362e-07 -3.93763e-12 0
-1.97446e-07 -3.82426e-12 0
-1.97516e-07 -3.82325e-12 0
-1.97571e-07 -3.59726e-12 0
-1.97613e-07 -2.63635e-12 0
-1.97653e-07 -8.04946e-13 0
0.00996058 9.44665e-10 0
0 -7.3768e-07 0
-1.3514e-10 -6.42539e-08 0
-6.20126e-08 -1.50414e-07 0
-2.7206e-07 -1.56726e-07 0
-4.29854e-07 -1.23511e-07 0
-3.40661e-07 -8.3727e-08 0
-1.01056e-07 -3.0841e-08 0
-9.64403e-09 9.89174e-09 0
-1.40946e-09 1.40946e-09 0
8.00251e-09 -8.95775e-09 0
-1.01875e-07 -1.3131e-08 0
-1.45924e-07 8.32696e-08 0
-2.83137e-07 1.83092e-07 0
-3.9357e-07 1.21145e-07 0
-3.86279e-07 3.71408e-08 0
-3.20047e-07 -2.9603e-09 0
-2.62445e-07 -1.35789e-08 0
-2.28964e-07 -1.42534e-08 0
-2.12299e-07 -1.23406e-08 0
-2.04416e-07 -9.81309e-09 0
-2.00759e-07 -7.35726e-09 0
-1.99129e-07 -5.28865e-09 0
-1.98487e-07 -3.69837e-09 0
-1.98331e-07 -2.54598e-09 0
-1.98411e-07 -1.74077e-09 0
-1.98604e-07 -1.18953e-09 0
-1.98848e-07 -8.15683e-10 0
-1.99111e-07 -5.62617e-10 0
-1.99379e-07 -3.90795e-10 0
-1.99644e-07 -2.7344e-10 0
-1.99902e-07 -1.92686e-10 0
-2.00151e-07 -1.36672e-10 0
-2.00391e-07 -9.7512e-11 0
-2.00621e-07 -6.9935e-11 0
-2.0084e-07 -5.03897e-11 0
-2.01049e-07 -3.6462e-11 0
-2.01248e-07 -2.64961e-11 0
-2.01435e-07 -1.93477e-11 0
-2.0161e-07 -1.42215e-11 0
-2.01774e-07 -1.05648e-11 0
-2.01925e-07 -7.99622e-12 0
-2.02064e-07 -6.25879e-12 0
-2.0219e-07 -5.19226e-12 0
-2.02303e-07 -4.72201e-12 0
-2.02402e-07 -4.86389e-12 0
-2.02487e-07 -5.74865e-12 0
-2.02558e-07 -7.66051e-12 0
-2.02614e-07 -1.09377e-11 0
-2.02658e-07 -1.56481e-11 0
-2.02698e-07 -2.20584e-11 0
0.00994783 1.54287e-07 0
0 -5.25318e-07 0
-1.31383e-10 -6.20967e-08 0
-7.54559e-08 -1.35575e-07 0
-2.76913e-07 -1.23664e-07 0
-4.13891e-07 -6.41815e-08 0
-3.6658e-07 -2.86965e-08 0
-2.36097e-07 -6.38679e-08 0
-1.22153e-07 -4.9148e-08 0
-1.06921e-08 9.09029e-09 0
7.59049e-09 9.7628e-09 0
-8.22465e-10 1.56477e-08 0
-3.30804e-08 1.75395e-07 0
-1.22832e-07 2.97272e-07 0
-2.80801e-07 1.7494e-07 0
-3.50532e-07 2.50568e-08 0
-3.21224e-07 -3.48084e-08 0
-2.72242e-07 -3.9867e-08 0
-2.41111e-07 -3.11447e-08 0
-2.27305e-07 -2.20247e-08 0
-2.22704e-07 -1.48827e-08 0
-2.21903e-07 -9.76643e-09 0
-2.22385e-07 -6.2981e-09 0
-2.23164e-07 -4.03451e-09 0
-2.23915e-07 -2.58966e-09 0
-2.24557e-07 -1.67564e-09 0
-2.25093e-07 -1.09694e-09 0
-2.25545e-07 -7.27783e-10 0
-2.25935e-07 -4.8956e-10 0
-2.26281e-07 -3.33716e-10 0
-2.26594e-07 -2.30287e-10 0
-2.26882e-07 -1.60666e-10 0
-2.27151e-07 -1.13173e-10 0
-2.27404e-07 -8.03829e-11 0
-2.27642e-07 -5.75012e-11 0
-2.27867e-07 -4.13882e-11 0
-2.2808e-07 -2.99566e-11 0
-2.28281e-07 -2.18e-11 0
-2.2847e-07 -1.59599e-11 0
-2.28647e-07 -1.17777e-11 0
-2.28811e-07 -8.79986e-12 0
-2.28964e-07 -6.71849e-12 0
-2.29103e-07 -5.33583e-12 0
-2.2923e-07 -4.54968e-12 0
-2.29343e-07 -4.35993e-12 0
-2.29443e-07 -4.902e-12 0
-2.29529e-07 -6.51919e-12 0
-2.29602e-07 -9.91356e-12 0
-2.29661e-07 -1.62726e-11 0
-2.29707e-07 -2.68591e-11 0
-2.29751e-07 -4.33452e-11 0
0.00984768 2.85325e-07 0
0 -4.69504e-07 0
-1.29732e-10 -5.2741e-08 0
-1.07868e-07 -1.14965e-07 0
-3.0679e-07 -1.00008e-07 0
-4.25923e-07 -4.54968e-08 0
-3.93909e-07 -2.77561e-09 0
-2.88014e-07 -2.62833e-08 0
-2.34407e-07 -1.26932e-07 0
-1.31211e-07 -9.57499e-08 0
-1.93478e-07 -3.13401e-11 0
-3.43251e-07 5.42489e-08 0
-3.12736e-07 1.90659e-07 0
-1.23684e-07 2.68026e-07 0
-1.3364e-07 1.8023e-07 0
-2.57401e-07 4.16436e-08 0
-3.08538e-07 -2.75303e-08 0
-3.02558e-07 -3.75733e-08 0
-2.91815e-07 -2.80708e-08 0
-2.88759e-07 -1.77946e-08 0
-2.90176e-07 -1.07455e-08 0
-2.92751e-07 -6.46057e-09 0
-2.95104e-07 -3.93994e-09 0
-2.96912e-07 -2.4554e-09 0
-2.98229e-07 -1.56632e-09 0
-2.99186e-07 -1.02134e-09 0
-2.99901e-07 -6.79045e-10 0
-3.00456e-07 -4.59107e-10 0
-3.00908e-07 -3.14906e-10 0
-3.01291e-07 -2.18682e-10 0
-3.01627e-07 -1.53478e-10 0
-3.0193e-07 -1.08698e-10 0
-3.02208e-07 -7.75819e-11 0
-3.02467e-07 -5.57424e-11 0
-3.0271e-07 -4.02813e-11 0
-3.02938e-07 -2.92568e-11 0
-3.03153e-07 -2.13502e-11 0
-3.03356e-07 -1.56556e-11 0
-3.03546e-07 -1.15444e-11 0
-3.03724e-07 -8.57879e-12 0
-3.03889e-07 -6.4543e-12 0
-3.04042e-07 -4.96484e-12 0
-3.04181e-07 -3.98358e-12 0
-3.04308e-07 -3.45995e-12 0
-3.04422e-07 -3.43787e-12 0
-3.04523e-07 -4.10704e-12 0
-3.0461e-07 -5.90255e-12 0
-3.04685e-07 -9.72691e-12 0
-3.04747e-07 -1.74874e-11 0
-3.048e-07 -3.25723e-11 0
-3.04852e-07 -6.02262e-11 0
0.00929582 3.36923e-07 0
0 -4.99971e-07 0
-1.35466e-10 -2.96996e-08 0
-1.3596e-07 -6.53756e-08 0
-3.16364e-07 -5.49522e-08 0
-4.13031e-07 -2.78586e-08 0
-4.16324e-07 -2.82658e-08 0
-3.53402e-07 -6.10764e-08 0
-3.13816e-07 -1.13874e-07 0
-3.48734e-07 -3.86644e-08 0
-3.48152e-07 1.641e-07 0
-3.96355e-07 2.17722e-07 0
-3.13072e-07 5.87843e-08 0
-1.61605e-07 -9.94754e-08 0
-1.8049e-07 -1.16205e-07 0
-3.06286e-07 -5.21047e-08 0
-3.66043e-07 4.24162e-09 0
-3.63849e-07 2.19156e-08 0
-3.51304e-07 1.73622e-08 0
-3.4483e-07 9.25097e-09 0
-3.43402e-07 3.83981e-09 0
-3.44135e-07 1.15677e-09 0
-3.4543e-07 5.75324e-11 0
-3.46672e-07 -3.00601e-10 0
-3.47699e-07 -3.59544e-10 0
-3.48515e-07 -3.16978e-10 0
-3.49165e-07 -2.51612e-10 0
-3.49693e-07 -1.90775e-10 0
-3.50136e-07 -1.41594e-10 0
-3.50519e-07 -1.04072e-10 0
-3.50858e-07 -7.61936e-11 0
-3.51165e-07 -5.57287e-11 0
-3.51448e-07 -4.07836e-11 0
-3.5171e-07 -2.98887e-11 0
-3.51956e-07 -2.19467e-11 0
-3.52187e-07 -1.61529e-11 0
-3.52404e-07 -1.19221e-11 0
-3.52608e-07 -8.83061e-12 0
-3.52799e-07 -6.57233e-12 0
-3.52978e-07 -4.92684e-12 0
-3.53144e-07 -3.73791e-12 0
-3.53297e-07 -2.89924e-12 0
-3.53438e-07 -2.34787e-12 0
-3.53565e-07 -2.06662e-12 0
-3.53679e-07 -2.0998e-12 0
-3.53781e-07 -2.59484e-12 0
-3.53869e-07 -3.89016e-12 0
-3.53946e-07 -6.7012e-12 0
-3.54013e-07 -1.26869e-11 0
-3.54074e-07 -2.56832e-11 0
-3.54142e-07 -5.11924e-11 0
0.00699675 2.13189e-07 0
0 0 0
-6.72446e-11 0 0
-7.04671e-08 0 0
-1.5124e-07 0 0
-1.92555e-07 0 0
-2.01501e-07 0 0
-2.00254e-07 0 0
-2.017e-07 0 0
-2.18309e-07 0 0
-1.55102e-07 0 0
-5.39095e-08 0 0
-9.21503e-09 0 0
-4.93203e-08 0 0
-1.32813e-07 0 0
-1.96619e-07 0 0
-2.11402e-07 0 0
-1.99319e-07 0 0
-1.85246e-07 0 0
-1.76771e-07 0 0
-1.72975e-07 0 0
-1.71704e-07 0 0
-1.71534e-07 0 0
-1.7176e-07 0 0
-1.72086e-07 0 0
-1.72407e-07 0 0
-1.72691e-07 0 0
-1.72938e-07 0 0
-1.73152e-07 0 0
-1.73341e-07 0 0
-1.73511e-07 0 0
-1.73665e-07 0 0
-1.73807e-07 0 0
-1.7394e-07 0 0
-1.74064e-07 0 0
-1.7418e-07 0 0
-1.74289e-07 0 0
-1.74391e-07 0 0
-1.74487e-07 0 0
-1.74577e-07 0 0
-1.7466e-07 0 0
-1.74737e-07 0 0
-1.74807e-07 0 0
-1.74871e-07 0 0
-1.74929e-07 0 0
-1.7498e-07 0 0
-1.75024e-07 0 0
-1.75063e-07 0 0
-1.75098e-07 0 0
-1.75131e-07 0 0
-1.75169e-07 0 0
0.00258105 0 0
0 0 5.51847e-07
-1.52052e-10 0 5.95141e-08
-1.93966e-07 0 1.58695e-07
-5.50499e-07 0 1.26485e-07
-9.07556e-07 0 -2.18619e-07
-2.55446e-07 0 -3.92787e-07
3.81e-08 0 -2.36205e-07
1.61156e-07 0 -1.09961e-07
1.53736e-07 0 -4.51314e-09
4.485e-08 0 3.20804e-08
-8.26059e-08 0 1.84762e-08
-1.78161e-07 0 -3.43774e-09
-2.35732e-07 0 -1.27852e-08
-2.67797e-07 0 -1.1284e-08
-2.87297e-07 0 -6.35223e-09
-3.02459e-07 0 -2.21967e-09
-3.15839e-07 0 9.91424e-11
-3.27224e-07 0 9.94318e-10
-3.36144e-07 0 1.10866e-09
-3.42628e-07 0 9.11431e-10
-3.47075e-07 0 6.5147e-10
-3.49999e-07 0 4.28672e-10
-3.51871e-07 0 2.66916e-10
-3.53057e-07 0 1.5974e-10
-3.53816e-07 0 9.27816e-11
-3.54322e-07 0 5.26498e-11
-3.54685e-07 0 2.93387e-11
-3.54969e-07 0 1.61334e-11
-3.55213e-07 0 8.80846e-12
-3.55438e-07 0 4.81882e-12
-3.55653e-07 0 2.68043e-12
-3.55864e-07 0 1.54969e-12
-3.56071e-07 0 9.57266e-13
-3.56275e-07 0 6.47148e-13
-3.56474e-07 0 4.82294e-13
-3.56667e-07 0 3.90745e-13
-3.56854e-07 0 3.35493e-13
-3.57032e-07 0 2.97968e-13
-3.57201e-07 0 2.69157e-13
-3.57359e-07 0 2.44969e-13
-3.57507e-07 0 2.24036e-13
-3.57644e-07 0 2.07225e-13
-3.57769e-07 0 1.98986e-13
-3.57881e-07 0 2.13485e-13
-3.57981e-07 0 2.9671e-13
-3.58069e-07 0 5.75154e-13
-3.58146e-07 0 1.36307e-12
-3.58215e-07 0 3.58825e-12
-3.5828e-07 0 9.97658e-12
-3.58352e-07 0 2.55749e-11
0.00698528 0 -1.13112e-07
0.0036 -3.23811e-08 1.15859e-07
0.00359973 -0.00143052 -0.000150707
0.00716934 -0.00454232 -0.000851087
0.0148753 -0.00803334 -0.00261741
0.0264287 -0.0136437 -0.00508403
0.0464018 -0.0101012 -0.0040878
0.049018 -0.000584615 -0.000947008
0.0484358 0.00332551 0.000462862
0.0431582 0.00527936 0.000848717
0.0375212 0.00508585 0.000410754
0.0325166 0.00411304 -0.000104096
0.0283891 0.00302281 -0.000359888
0.0252577 0.0020746 -0.000364661
0.0230723 0.00135988 -0.000254629
0.0216315 0.000872684 -0.000140793
0.0207121 0.000555254 -6.45981e-05
0.0201392 0.000349698 -2.4339e-05
0.01979 0.000216866 -6.5208e-06
0.0195818 0.000132013 8.27059e-09
0.0194604 7.87988e-05 1.70339e-06
0.0193913 4.6109e-05 1.66898e-06
0.0193528 2.64368e-05 1.19725e-06
0.0193321 1.48325e-05 7.41262e-07
0.0193213 8.1212e-06 4.12971e-07
0.0193159 4.31791e-06 2.06801e-07
0.0193135 2.2096e-06 8.87239e-08
0.0193125 1.07026e-06 2.64996e-08
0.0193123 4.73682e-07 -3.14952e-09
0.0193124 1.74332e-07 -1.50804e-08
0.0193126 3.34363e-08 -1.80681e-08
0.0193128 -2.58406e-08 -1.69874e-08
0.019313 -4.5059e-08 -1.439e-08
0.0193131 -4.60652e-08 -1.15169e-08
0.0193133 -3.99166e-08 -8.90603e-09
0.0193134 -3.19098e-08 -6.73923e-09
0.0193134 -2.43596e-08 -5.03151e-09
0.0193135 -1.81048e-08 -3.73006e-09
0.0193135 -1.33028e-08 -2.76353e-09
0.0193136 -9.83953e-09 -2.06526e-09
0.0193136 -7.53424e-09 -1.58422e-09
0.0193136 -6.24486e-09 -1.29123e-09
0.0193136 -5.93301e-09 -1.18509e-09
0.0193136 -6.7317e-09 -1.30224e-09
0.0193136 -9.04954e-09 -1.72469e-09
0.0193137 -1.37717e-08 -2.58519e-09
0.0193137 -2.28039e-08 -4.18633e-09
0.0193137 -3.97552e-08 -6.66273e-09
0.0193138 -7.18154e-08 -9.53253e-09
0.019314 -1.60401e-07 -4.02329e-08
0.0193143 -4.24209e-07 -2.06285e-07
0.0193149 -6.20539e-07 -3.43123e-07
0.01 -2.01809e-08 -1.10253e-06
0.0100011 -0.00332051 -0.00060716
0.0150453 -0.0107076 -0.0016154
0.0240525 -0.0184794 -0.00328071
0.0370316 -0.0294619 -0.00437692
0.0563811 -0.0203771 -0.00123268
0.0546855 -0.00132383 0.00196216
0.0549387 0.00582698 0.00235694
0.0494056 0.0107243 0.00212598
0.0437295 0.0106612 0.00107834
0.0388583 0.00934393 3.38946e-05
0.0347011 0.00752054 -0.000492065
0.0315175 0.00552723 -0.00056018
0.0293673 0.00375675 -0.000409566
0.0280046 0.0024258 -0.000232344
0.0271678 0.00151891 -0.000108796
0.0266675 0.000929846 -4.20006e-05
0.0263769 0.000557759 -1.17606e-05
0.0262134 0.000327922 -2.86248e-07
0.0261244 0.00018887 2.95046e-06
0.026078 0.000106413 3.1074e-06
0.026055 5.84782e-05 2.3915e-06
0.0260446 3.11793e-05 1.61806e-06
0.0260405 1.59749e-05 1.01889e-06
0.0260394 7.72218e-06 6.12266e-07
0.0260398 3.38399e-06 3.55648e-07
0.0260406 1.2008e-06 2.01075e-07
0.0260414 1.72591e-07 1.11016e-07
0.0260422 -2.57512e-07 5.98873e-08
0.0260429 -3.92491e-07 3.14916e-08
0.0260434 -3.92631e-07 1.60405e-08
0.0260438 -3.39627e-07 7.80759e-09
0.0260441 -2.7292e-07 3.52466e-09
0.0260443 -2.09899e-07 1.36345e-09
0.0260444 -1.56905e-07 3.18955e-10
0.0260446 -1.15085e-07 -1.52322e-10
0.0260446 -8.34022e-08 -3.39788e-10
0.0260447 -6.01216e-08 -3.95772e-10
0.0260447 -4.35011e-08 -4.01114e-10
0.0260448 -3.20827e-08 -4.02563e-10
0.0260448 -2.48069e-08 -4.35454e-10
0.0260448 -2.10729e-08 -5.39044e-10
0.0260448 -2.08362e-08 -7.70557e-10
0.0260448 -2.4847e-08 -1.21668e-09
0.0260448 -3.50971e-08 -1.94043e-09
0.0260449 -5.59137e-08 -2.99423e-09
0.0260449 -9.91297e-08 -4.89418e-09
0.026045 -1.92696e-07 -9.24288e-09
0.0260452 -3.72615e-07 -5.9693e-08
0.0260454 -6.912e-07 -3.18956e-07
0.0260456 -8.94081e-07 -5.3091e-07
0.0148 -9.57765e-07 -1.42477e-06
0.0148026 -0.0054558 -0.00112861
0.0197743 -0.0163729 -0.0030275
0.0258542 -0.0272517 -0.00504565
0.0302265 -0.0420647 -0.00516786
0.0287413 -0.0257489 -0.000817796
0.0261495 -1.10463e-05 0.00218076
0.0262634 0.0075975 0.00227723
0.0308507 0.0158254 0.00220252
0.0310592 0.0155256 0.00126729
0.0297558 0.0134162 0.000316138
0.0285297 0.0107412 -0.000248441
0.0277359 0.00772163 -0.000385917
0.0274556 0.00507252 -0.000302549
0.0274119 0.00317571 -0.000166527
0.0274404 0.00193613 -6.53276e-05
0.0274851 0.00115465 -1.19591e-05
0.0275305 0.000672863 8.85693e-06
0.0275713 0.000382494 1.33869e-05
0.0276052 0.00021164 1.16692e-05
0.0276316 0.000113528 8.47415e-06
0.0276511 5.85775e-05 5.59909e-06
0.0276652 2.86224e-05 3.48958e-06
0.0276749 1.28045e-05 2.08947e-06
0.0276816 4.79093e-06 1.21453e-06
0.0276862 9.70985e-07 6.89481e-07
0.0276892 -6.68873e-07 3.83523e-07
0.0276912 -1.22526e-06 2.09268e-07
0.0276926 -1.27932e-06 1.11903e-07
0.0276935 -1.12844e-06 5.84367e-08
0.0276941 -9.17412e-07 2.95806e-08
0.0276946 -7.11257e-07 1.43014e-08
0.0276949 -5.34824e-07 6.39805e-09
0.027695 -3.93847e-07 2.43719e-09
0.0276952 -2.85807e-07 5.44133e-10
0.0276953 -2.05304e-07 -2.90483e-10
0.0276953 -1.46556e-07 -6.02085e-10
0.0276954 -1.04441e-07 -6.70308e-10
0.0276954 -7.48223e-08 -6.39762e-10
0.0276954 -5.45838e-08 -5.87154e-10
0.0276954 -4.15505e-08 -5.5987e-10
0.0276955 -3.44366e-08 -5.99525e-10
0.0276955 -3.28796e-08 -7.53938e-10
0.0276955 -3.76972e-08 -1.08449e-09
0.0276955 -5.18447e-08 -1.72806e-09
0.0276955 -8.20037e-08 -3.21397e-09
0.0276955 -1.37552e-07 -7.47071e-09
0.0276956 -2.29477e-07 -1.98778e-08
0.0276956 -3.73673e-07 -9.15224e-08
0.0276956 -5.91143e-07 -3.93466e-07
0.0276955 -7.21045e-07 -6.33057e-07
0.018 -2.03628e-06 -1.65952e-06
0.0180026 -0.00659587 -0.00195488
0.0201363 -0.017561 -0.00532489
0.0199153 -0.0228791 -0.00689561
0.015875 -0.0248164 -0.00674336
-1.23738e-06 -0.0129113 -0.00321894
0.000102738 3.31184e-05 6.64075e-07
-3.89018e-05 4.09547e-05 0.000434992
0.00738844 0.00513188 0.000887078
0.0154873 0.0115149 0.00075309
0.0188654 0.0119942 0.000363757
0.0204709 0.00979397 -4.39245e-05
0.0222042 0.00683349 -0.00024134
0.0239392 0.00423464 -0.000221059
0.0253371 0.00251768 -0.000119133
0.0263168 0.00147192 -3.22319e-05
0.0269552 0.00084142 1.31851e-05
0.0273582 0.000464756 2.70448e-05
0.027609 0.000245501 2.54406e-05
0.0277634 0.000122455 1.90406e-05
0.0278576 5.62197e-05 1.26975e-05
0.0279144 2.22262e-05 7.8936e-06
0.0279484 5.82028e-06 4.67949e-06
0.0279687 -1.37785e-06 2.67856e-06
0.0279806 -3.98226e-06 1.49045e-06
0.0279877 -4.44321e-06 8.08495e-07
0.0279919 -4.01177e-06 4.27287e-07
0.0279943 -3.29556e-06 2.19005e-07
0.0279958 -2.56817e-06 1.07704e-07
0.0279966 -1.93635e-06 4.96701e-08
0.0279972 -1.42796e-06 2.03344e-08
0.0279975 -1.03673e-06 6.14778e-09
0.0279977 -7.44204e-07 -2.34065e-10
0.0279978 -5.29753e-07 -2.72408e-09
0.0279979 -3.74787e-07 -3.36653e-09
0.0279979 -2.64047e-07 -3.20322e-09
0.0279979 -1.85662e-07 -2.74725e-09
0.027998 -1.30712e-07 -2.23911e-09
0.027998 -9.26754e-08 -1.78397e-09
0.027998 -6.69141e-08 -1.42559e-09
0.027998 -5.02699e-08 -1.18741e-09
0.027998 -4.07945e-08 -1.1003e-09
0.027998 -3.76635e-08 -1.23648e-09
0.027998 -4.12163e-08 -1.76275e-09
0.027998 -5.2679e-08 -3.07525e-09
0.027998 -7.36347e-08 -6.33678e-09
0.027998 -1.06182e-07 -1.40564e-08
0.0279979 -1.53104e-07 -3.13469e-08
0.0279979 -2.21583e-07 -1.11834e-07
0.0279978 -3.21208e-07 -4.27263e-07
0.0279976 -3.79809e-07 -6.742e-07
0.0196 -2.57786e-06 -2.65277e-06
0.0196008 -0.00523122 -0.0027689
0.0190941 -0.0118464 -0.00673898
0.0162538 -0.0142856 -0.0072654
0.0115602 -0.0128205 -0.00647573
0.00237546 -0.00515268 -0.00402726
7.78067e-05 -7.16692e-05 -0.000844278
3.27674e-05 -3.27674e-05 -4.86045e-08
-3.78311e-05 3.99726e-05 0.00012001
0.00509519 0.00386598 0.000249198
0.0114546 0.0084084 0.000198613
0.0142278 0.00750057 -3.86368e-05
0.0176146 0.00440199 -0.000271357
0.0209683 0.00205897 -0.000290629
0.0236278 0.000860111 -0.000188058
0.0254216 0.000334632 -7.26174e-05
0.0265229 0.00010668 -2.31906e-06
0.0271714 5.72869e-06 2.33042e-05
0.0275468 -3.50688e-05 2.5092e-05
0.027762 -4.60345e-05 1.90121e-05
0.0278841 -4.3403e-05 1.23992e-05
0.0279529 -3.58844e-05 7.43219e-06
0.0279911 -2.76888e-05 4.21518e-06
0.0280122 -2.05172e-05 2.29311e-06
0.0280238 -1.48285e-05 1.20243e-06
0.02803 -1.05495e-05 6.06313e-07
0.0280333 -7.43014e-06 2.90629e-07
0.0280351 -5.19929e-06 1.28646e-07
0.028036 -3.62292e-06 4.86208e-08
0.0280364 -2.51745e-06 1.11725e-08
0.0280366 -1.74596e-06 -4.7989e-09
0.0280367 -1.20927e-06 -1.0354e-08
0.0280368 -8.36723e-07 -1.11559e-08
0.0280368 -5.78542e-07 -1.00203e-08
0.0280368 -3.99879e-07 -8.28836e-09
0.0280367 -2.76448e-07 -6.55604e-09
0.0280367 -1.9137e-07 -5.05428e-09
0.0280367 -1.32954e-07 -3.84514e-09
0.0280367 -9.31313e-08 -2.9216e-09
0.0280367 -6.63722e-08 -2.25935e-09
0.0280367 -4.89384e-08 -1.84784e-09
0.0280367 -3.83578e-08 -1.71757e-09
0.0280367 -3.29861e-08 -1.9825e-09
0.0280367 -3.15827e-08 -2.90979e-09
0.0280367 -3.298e-08 -4.98125e-09
0.0280367 -3.57058e-08 -9.24163e-09
0.0280366 -3.74773e-08 -1.79777e-08
0.0280366 -3.43827e-08 -3.58244e-08
0.0280365 -2.36964e-08 -1.17289e-07
0.0280364 -7.98611e-09 -4.35058e-07
0.0280362 4.27909e-10 -6.83423e-07
0.0196 -1.2884e-06 -3.54982e-06
0.0196002 -0.00315717 -0.00310299
0.019035 -0.00663491 -0.00680072
0.0177772 -0.00621968 -0.00682936
0.0141821 -0.00257154 -0.00567699
0.0103739 0.0035477 -0.00415687
0.0065732 0.00337858 -0.00197254
7.78552e-05 -6.54832e-05 -0.000364738
2.76522e-05 -2.76522e-05 -1.33049e-07
-3.65756e-05 3.90867e-05 3.26785e-05
0.00385457 0.00282973 0.000336395
0.00847277 0.00369813 0.000370866
0.0140851 0.000262222 -7.77273e-05
0.0192057 -0.00160875 -0.000350059
0.0230135 -0.00182641 -0.00034446
0.0253646 -0.00137832 -0.000197403
0.0266472 -0.000902724 -7.12453e-05
0.027312 -0.000568483 -1.0505e-05
0.0276526 -0.000356425 7.83474e-06
0.0278269 -0.000223698 9.35016e-06
0.0279154 -0.000140388 6.65238e-06
0.0279599 -8.81152e-05 3.95692e-06
0.0279818 -5.54086e-05 2.12797e-06
0.0279922 -3.49844e-05 1.05721e-06
0.0279969 -2.22218e-05 4.80925e-07
0.0279988 -1.42189e-05 1.90027e-07
0.0279994 -9.17127e-06 5.25577e-08
0.0279995 -5.96373e-06 -6.67883e-09
0.0279993 -3.90833e-06 -2.80234e-08
0.027999 -2.57975e-06 -3.21777e-08
0.0279988 -1.71367e-06 -2.93374e-08
0.0279986 -1.14461e-06 -2.42851e-08
0.0279984 -7.68071e-07 -1.91067e-08
0.0279983 -5.17406e-07 -1.45937e-08
0.0279982 -3.49715e-07 -1.09479e-08
0.0279982 -2.37122e-07 -8.12608e-09
0.0279981 -1.61362e-07 -6.00153e-09
0.0279981 -1.1037e-07 -4.43717e-09
0.027998 -7.61237e-08 -3.31676e-09
0.027998 -5.32389e-08 -2.55929e-09
0.027998 -3.80304e-08 -2.13019e-09
0.027998 -2.7845e-08 -2.05695e-09
0.027998 -2.05438e-08 -2.45166e-09
0.027998 -1.4026e-08 -3.54242e-09
0.027998 -5.68471e-09 -5.73584e-09
0.027998 8.28965e-09 -9.99526e-09
0.0279979 3.39895e-08 -1.85248e-08
0.0279979 8.21323e-08 -3.52795e-08
0.0279978 1.68719e-07 -1.12926e-07
0.0279977 3.02084e-07 -4.24987e-07
0.0279976 3.80298e-07 -6.70534e-07
0.018 -7.99013e-07 -3.48089e-06
0.018001 -0.00150074 -0.00305009
0.0185246 -0.00249965 -0.00645795
0.0189814 -0.000902913 -0.00606622
0.0185325 0.00206422 -0.00468571
0.018512 0.0076977 -0.00340519
0.0189938 0.0127328 -0.00195683
0.0117094 0.00700247 -0.00087526
7.96726e-05 -5.12938e-05 -0.000292559
-2.94928e-05 -5.89295e-05 5.2706e-07
8.09475e-06 -0.000201521 0.000883802
0.00945163 -0.00283432 0.00137462
0.0171324 -0.00619739 0.000574804
0.0220793 -0.00661951 -8.17936e-05
0.0250406 -0.005083 -0.000348767
0.0266166 -0.00317813 -0.000290864
0.0273354 -0.00179458 -0.000154305
0.0276199 -0.000990007 -6.38583e-05
0.0277162 -0.000552247 -2.28326e-05
0.0277395 -0.000312937 -7.51872e-06
0.0277377 -0.000179547 -2.42338e-06
0.0277293 -0.000104088 -8.52076e-07
0.0277207 -6.09657e-05 -3.86994e-07
0.0277136 -3.61043e-05 -2.4088e-07
0.0277082 -2.1635e-05 -1.78912e-07
0.0277044 -1.31245e-05 -1.38565e-07
0.0277017 -8.06056e-06 -1.06117e-07
0.0276998 -5.01036e-06 -7.95059e-08
0.0276985 -3.15004e-06 -5.84299e-08
0.0276976 -2.00133e-06 -4.23481e-08
0.0276969 -1.28353e-06 -3.04229e-08
0.0276965 -8.29985e-07 -2.17526e-08
0.0276962 -5.40497e-07 -1.55281e-08
0.0276959 -3.54076e-07 -1.10932e-08
0.0276958 -2.33124e-07 -7.94663e-09
0.0276957 -1.5418e-07 -5.72005e-09
0.0276956 -1.02431e-07 -4.14973e-09
0.0276956 -6.84083e-08 -3.05211e-09
0.0276955 -4.59743e-08 -2.30538e-09
0.0276955 -3.10556e-08 -1.83865e-09
0.0276955 -2.08175e-08 -1.62834e-09
0.0276955 -1.30761e-08 -1.70242e-09
0.0276955 -5.80976e-09 -2.15789e-09
0.0276955 3.34449e-09 -3.1905e-09
0.0276955 1.77461e-08 -5.14016e-09
0.0276955 4.27007e-08 -8.84506e-09
0.0276954 8.6944e-08 -1.63512e-08
0.0276954 1.6686e-07 -3.06404e-08
0.0276954 3.16208e-07 -9.82772e-08
0.0276954 5.66967e-07 -3.89732e-07
0.0276954 7.20034e-07 -6.22864e-07
0.0148 -4.87393e-07 -3.01467e-06
0.0148016 -0.000597907 -0.00285462
0.0165881 -0.000446206 -0.00579893
0.0188932 0.00146922 -0.00508672
0.0210459 0.00428862 -0.00368009
0.0231681 0.00759638 -0.00275378
0.0266608 0.01269 -0.00186861
0.0297254 0.0199431 -0.00101561
0.0241469 0.0118789 -0.000135352
0.0245877 1.08918e-09 0.000527263
0.028418 -0.00702944 0.00155827
0.0333061 -0.0140121 0.00245827
0.0341684 -0.0124981 0.00191412
0.032336 -0.00934119 0.000781821
0.0300168 -0.00610594 -0.000144855
0.0283247 -0.0034846 -0.000407905
0.027321 -0.00180935 -0.000298038
0.026763 -0.000909922 -0.000152416
0.0264544 -0.000462427 -6.66223e-05
0.0262819 -0.000241105 -2.7144e-05
0.026184 -0.000129086 -1.07444e-05
0.0261278 -7.07456e-05 -4.22331e-06
0.026095 -3.95531e-05 -1.67079e-06
0.0260757 -2.24953e-05 -6.70797e-07
0.026064 -1.29863e-05 -2.73859e-07
0.0260569 -7.59686e-06 -1.1275e-07
0.0260526 -4.49745e-06 -4.56183e-08
0.0260498 -2.69144e-06 -1.70464e-08
0.0260481 -1.62632e-06 -4.85563e-09
0.026047 -9.911e-07 1.51032e-10
0.0260462 -6.08353e-07 1.95208e-09
0.0260457 -3.75578e-07 2.33891e-09
0.0260454 -2.32853e-07 2.14078e-09
0.0260452 -1.44747e-07 1.74331e-09
0.0260451 -9.0077e-08 1.31968e-09
0.026045 -5.60405e-08 9.39512e-10
0.0260449 -3.4814e-08 6.22034e-10
0.0260449 -2.15533e-08 3.61841e-10
0.0260449 -1.31959e-08 1.40427e-10
0.0260449 -7.72201e-09 -7.06835e-11
0.0260448 -3.66596e-09 -3.13061e-10
0.0260448 2.49461e-10 -6.50004e-10
0.0260448 5.45544e-09 -1.18359e-09
0.0260448 1.3945e-08 -2.0817e-09
0.0260448 2.88871e-08 -3.61084e-09
0.0260448 5.57157e-08 -6.39705e-09
0.0260448 1.03829e-07 -1.20634e-08
0.0260449 1.91021e-07 -2.29148e-08
0.026045 3.63901e-07 -7.50092e-08
0.0260451 6.85143e-07 -3.19149e-07
0.0260453 8.89913e-07 -5.18277e-07
0.01 -9.41929e-07 -2.68832e-06
0.0100008 -0.000364953 -0.00239611
0.0119264 -3.88283e-05 -0.00456555