# vtk DataFile Version 2.0
Tobias Weinzierl: CPU, Manycore and Cluster Computing
ASCII

DATASET STRUCTURED_POINTS
DIMENSIONS  51 11 6

ORIGIN 0 0 0 

SPACING 0.1 0.1 0.1 

POINT_DATA 3366

VECTORS velocity float
0 0 0
-4.18852e-13 0 0
-1.33963e-10 0 0
-3.84985e-11 0 0
-2.09159e-09 0 0
1.98803e-09 0 0
2.91775e-09 0 0
3.00697e-09 0 0
3.25863e-09 0 0
3.79124e-09 0 0
4.29516e-09 0 0
4.44375e-09 0 0
4.13125e-09 0 0
3.3769e-09 0 0
2.17133e-09 0 0
6.71647e-10 0 0
-7.47229e-10 0 0
-1.78317e-09 0 0
-2.4465e-09 0 0
-2.96939e-09 0 0
-3.56965e-09 0 0
-4.31927e-09 0 0
-5.16098e-09 0 0
-5.98824e-09 0 0
-6.71147e-09 0 0
-7.28498e-09 0 0
-7.70358e-09 0 0
-7.98716e-09 0 0
-8.16557e-09 0 0
-8.26861e-09 0 0
-8.32135e-09 0 0
-8.34272e-09 0 0
-8.34601e-09 0 0
-8.33997e-09 0 0
-8.32999e-09 0 0
-8.31921e-09 0 0
-8.30921e-09 0 0
-8.30071e-09 0 0
-8.29387e-09 0 0
-8.28857e-09 0 0
-8.2846e-09 0 0
-8.2817e-09 0 0
-8.27963e-09 0 0
-8.27818e-09 0 0
-8.2772e-09 0 0
-8.27657e-09 0 0
-8.2762e-09 0 0
-8.27603e-09 0 0
-8.27603e-09 0 0
-8.27634e-09 0 0
0.00190655 0 0
0 3.86776e-07 0
-9.58788e-13 -1.48462e-10 0
-2.23875e-10 -8.41301e-10 0
6.29969e-10 -2.54761e-10 0
-7.98695e-10 -1.6582e-09 0
6.16824e-09 -1.87594e-09 0
7.22643e-09 8.82226e-10 0
7.2563e-09 6.08155e-10 0
8.72289e-09 -9.13781e-10 0
1.10096e-08 -2.22917e-09 0
1.28602e-08 -2.92471e-09 0
1.35762e-08 -2.87638e-09 0
1.28433e-08 -1.87014e-09 0
1.07314e-08 -7.01342e-11 0
7.67998e-09 1.66871e-09 0
4.39211e-09 2.48086e-09 0
1.51083e-09 2.25944e-09 0
-7.51234e-10 1.55966e-09 0
-2.67324e-09 9.80029e-10 0
-4.69798e-09 7.55711e-10 0
-7.0793e-09 7.93298e-10 0
-9.77105e-09 8.98001e-10 0
-1.25266e-08 9.36221e-10 0
-1.50633e-08 8.72045e-10 0
-1.71813e-08 7.3246e-10 0
-1.8802e-08 5.62666e-10 0
-1.99481e-08 3.99257e-10 0
-2.06989e-08 2.62381e-10 0
-2.1152e-08 1.58358e-10 0
-2.13985e-08 8.52022e-11 0
-2.15113e-08 3.72822e-11 0
-2.15442e-08 8.21274e-12 0
-2.15337e-08 -7.72784e-12 0
-2.15028e-08 -1.50984e-11 0
-2.14655e-08 -1.72581e-11 0
-2.14291e-08 -1.65291e-11 0
-2.13972e-08 -1.44219e-11 0
-2.1371e-08 -1.18543e-11 0
-2.13503e-08 -9.33699e-12 0
-2.13346e-08 -7.11668e-12 0
-2.1323e-08 -5.28063e-12 0
-2.13145e-08 -3.82697e-12 0
-2.13085e-08 -2.71031e-12 0
-2.13043e-08 -1.86891e-12 0
-2.13015e-08 -1.23875e-12 0
-2.12996e-08 -7.60279e-13 0
-2.12985e-08 -3.75047e-13 0
-2.1298e-08 -1.07982e-14 0
-2.12982e-08 5.05893e-13 0
-2.12991e-08 1.61502e-12 0
0.00548834 -1.57263e-08 0
0 -1.93588e-08 0
-5.22757e-13 -2.61073e-10 0
6.11661e-10 -2.22491e-09 0
3.43728e-09 -4.76496e-09 0
6.22093e-09 -8.41541e-09 0
1.11576e-08 -6.09004e-09 0
8.62417e-09 -2.95607e-12 0
7.46263e-09 -5.44215e-10 0
9.25641e-09 -3.62682e-09 0
1.33719e-08 -6.54593e-09 0
1.63305e-08 -9.05934e-09 0
1.68233e-08 -1.05664e-08 0
1.52756e-08 -9.64267e-09 0
1.21086e-08 -6.10206e-09 0
8.2127e-09 -1.48855e-09 0
4.43492e-09 2.57735e-09 0
1.24927e-09 5.38077e-09 0
-1.31633e-09 6.88091e-09 0
-3.5386e-09 7.32907e-09 0
-5.75237e-09 7.0683e-09 0
-8.1622e-09 6.40032e-09 0
-1.07645e-08 5.52016e-09 0
-1.33794e-08 4.54189e-09 0
-1.57619e-08 3.55111e-09 0
-1.7719e-08 2.62593e-09 0
-1.91693e-08 1.82779e-09 0
-2.01367e-08 1.18927e-09 0
-2.07091e-08 7.13162e-10 0
-2.09943e-08 3.81118e-10 0
-2.10917e-08 1.64689e-10 0
-2.10792e-08 3.40266e-11 0
-2.10112e-08 -3.71671e-11 0
-2.09225e-08 -6.97292e-11 0
-2.0833e-08 -7.89415e-11 0
-2.07528e-08 -7.53072e-11 0
-2.06858e-08 -6.56106e-11 0
-2.06325e-08 -5.39435e-11 0
-2.05914e-08 -4.25632e-11 0
-2.05607e-08 -3.255e-11 0
-2.05381e-08 -2.42783e-11 0
-2.05219e-08 -1.77335e-11 0
-2.05104e-08 -1.27133e-11 0
-2.05024e-08 -8.94713e-12 0
-2.04969e-08 -6.16081e-12 0
-2.04932e-08 -4.10445e-12 0
-2.04908e-08 -2.55709e-12 0
-2.04894e-08 -1.30017e-12 0
-2.04889e-08 -3.8445e-14 0
-2.0489e-08 1.58795e-12 0
-2.049e-08 3.94297e-12 0
0.00791903 -3.85326e-08 0
0 -6.39722e-07 0
3.22374e-13 -1.30114e-09 0
1.53233e-09 -4.76321e-09 0
5.2575e-09 -9.18589e-09 0
7.18867e-09 -1.26604e-08 0
6.97744e-09 -6.93887e-09 0
4.31439e-09 -4.16255e-12 0
3.21327e-09 -1.24001e-09 0
2.56916e-09 -5.01078e-09 0
4.31106e-09 -1.03019e-08 0
6.81096e-09 -1.54345e-08 0
7.25539e-09 -1.86813e-08 0
6.2067e-09 -1.80065e-08 0
3.42055e-09 -1.32357e-08 0
-5.13422e-10 -5.93928e-09 0
-4.76908e-09 2.13074e-09 0
-8.49715e-09 9.03082e-09 0
-1.10127e-08 1.31781e-08 0
-1.20388e-08 1.422e-08 0
-1.18265e-08 1.29954e-08 0
-1.09872e-08 1.07064e-08 0
-1.012e-08 8.23451e-09 0
-9.5365e-09 6.00202e-09 0
-9.24622e-09 4.14092e-09 0
-9.10931e-09 2.66561e-09 0
-8.98677e-09 1.5528e-09 0
-8.80696e-09 7.61628e-10 0
-8.56215e-09 2.38401e-10 0
-8.27863e-09 -7.68875e-11 0
-7.9899e-09 -2.42338e-10 0
-7.72227e-09 -3.07895e-10 0
-7.4909e-09 -3.12528e-10 0
-7.30112e-09 -2.84216e-10 0
-7.15169e-09 -2.41533e-10 0
-7.03775e-09 -1.95808e-10 0
-6.9531e-09 -1.53242e-10 0
-6.89153e-09 -1.16661e-10 0
-6.84753e-09 -8.68454e-11 0
-6.81654e-09 -6.34572e-11 0
-6.79498e-09 -4.56355e-11 0
-6.78015e-09 -3.23589e-11 0
-6.77006e-09 -2.26398e-11 0
-6.76327e-09 -1.56142e-11 0
-6.75876e-09 -1.0568e-11 0
-6.75584e-09 -6.92562e-12 0
-6.75404e-09 -4.21185e-12 0
-6.75304e-09 -2.01099e-12 0
-6.75256e-09 5.73601e-14 0
-6.75235e-09 2.25875e-12 0
-6.7525e-09 4.56722e-12 0
0.00899034 -4.28605e-08 0
0 -1.25554e-06 0
-6.27002e-13 -2.52165e-09 0
4.02614e-10 -7.10638e-09 0
1.79229e-09 -9.438e-09 0
1.72991e-09 -7.6361e-09 0
-4.6026e-13 -2.78438e-09 0
-3.03148e-11 -3.05086e-11 0
2.89004e-11 -2.96438e-11 0
-1.22303e-09 -2.99127e-09 0
-5.65482e-09 -1.06385e-08 0
-7.98637e-09 -1.90284e-08 0
-7.2697e-09 -2.45846e-08 0
-7.58809e-09 -2.4599e-08 0
-9.69327e-09 -1.82345e-08 0
-1.28753e-08 -7.67043e-09 0
-1.62444e-08 3.9977e-09 0
-1.89299e-08 1.3267e-08 0
-2.0082e-08 1.78107e-08 0
-1.91136e-08 1.7629e-08 0
-1.61271e-08 1.44803e-08 0
-1.19529e-08 1.0387e-08 0
-7.65016e-09 6.64154e-09 0
-3.9637e-09 3.72065e-09 0
-1.14793e-09 1.63595e-09 0
8.85497e-10 2.45278e-10 0
2.34424e-09 -6.07381e-10 0
3.41506e-09 -1.05941e-09 0
4.22241e-09 -1.22906e-09 0
4.83923e-09 -1.21567e-09 0
5.30896e-09 -1.0978e-09 0
5.66154e-09 -9.32508e-10 0
5.92094e-09 -7.5732e-10 0
6.10775e-09 -5.94055e-10 0
6.23957e-09 -4.53228e-10 0
6.33085e-09 -3.38025e-10 0
6.39302e-09 -2.47395e-10 0
6.43476e-09 -1.78215e-10 0
6.46242e-09 -1.26659e-10 0
6.48056e-09 -8.89744e-11 0
6.49232e-09 -6.18609e-11 0
6.49988e-09 -4.25999e-11 0
6.50468e-09 -2.90511e-11 0
6.50769e-09 -1.95808e-11 0
6.50954e-09 -1.29661e-11 0
6.51065e-09 -8.29668e-12 0
6.51129e-09 -4.89743e-12 0
6.51171e-09 -2.28597e-12 0
6.51218e-09 -1.65403e-13 0
6.51295e-09 1.59929e-12 0
6.51365e-09 3.01849e-12 0
0.00941489 -2.38864e-08 0
0 -1.138e-06 0
-2.10212e-12 -2.50389e-09 0
-1.25999e-09 -5.7602e-09 0
-1.49937e-09 -7.26415e-09 0
-2.44044e-09 -7.39291e-09 0
-1.74406e-09 -3.38564e-09 0
-2.95361e-11 2.88103e-11 0
8.81582e-14 -8.81582e-14 0
2.90374e-11 -2.87645e-11 0
-3.8124e-09 -5.27394e-09 0
-1.29947e-08 -1.76516e-08 0
-1.63099e-08 -2.69483e-08 0
-1.86039e-08 -2.68084e-08 0
-2.07309e-08 -1.90845e-08 0
-2.21518e-08 -6.97254e-09 0
-2.26767e-08 5.65639e-09 0
-2.23757e-08 1.48874e-08 0
-2.10987e-08 1.84793e-08 0
-1.83587e-08 1.68455e-08 0
-1.39639e-08 1.22488e-08 0
-8.48783e-09 7.08557e-09 0
-2.96516e-09 2.79028e-09 0
1.74049e-09 -2.0423e-10 0
5.267e-09 -2.0149e-09 0
7.67858e-09 -2.92362e-09 0
9.23316e-09 -3.20527e-09 0
1.02025e-08 -3.08577e-09 0
1.07967e-08 -2.74059e-09 0
1.11566e-08 -2.29823e-09 0
1.13711e-08 -1.8446e-09 0
1.14954e-08 -1.42999e-09 0
1.15643e-08 -1.07788e-09 0
1.15997e-08 -7.94034e-10 0
1.16156e-08 -5.73973e-10 0
1.16206e-08 -4.08447e-10 0
1.16201e-08 -2.86886e-10 0
1.1617e-08 -1.9931e-10 0
1.16132e-08 -1.37188e-10 0
1.16094e-08 -9.36716e-11 0
1.16061e-08 -6.34948e-11 0
1.16033e-08 -4.27343e-11 0
1.16011e-08 -2.85333e-11 0
1.15995e-08 -1.88465e-11 0
1.15982e-08 -1.22278e-11 0
1.15973e-08 -7.67059e-12 0
1.15968e-08 -4.49968e-12 0
1.15966e-08 -2.29303e-12 0
1.1597e-08 -8.09986e-13 0
1.15979e-08 3.54205e-14 0
1.15988e-08 3.53881e-13 0
0.00952357 7.69304e-09 0
0 -7.83926e-07 0
-1.50728e-12 -1.46473e-09 0
-1.24875e-09 -3.75002e-09 0
-1.22466e-09 -4.9308e-09 0
-3.03847e-09 -5.31863e-09 0
-4.07571e-09 -4.16637e-09 0
-1.86933e-09 -1.49311e-09 0
-2.88068e-11 2.88143e-11 0
2.20807e-13 -2.20807e-13 0
2.97966e-11 -2.82791e-11 0
-5.96288e-09 -9.79653e-09 0
-1.54184e-08 -2.31756e-08 0
-2.19995e-08 -2.43042e-08 0
-2.54301e-08 -1.62669e-08 0
-2.60541e-08 -4.35853e-09 0
-2.41339e-08 6.92292e-09 0
-2.05811e-08 1.41563e-08 0
-1.64295e-08 1.59033e-08 0
-1.203e-08 1.30388e-08 0
-7.31672e-09 7.89655e-09 0
-2.49631e-09 2.73995e-09 0
1.85253e-09 -1.17904e-09 0
5.18657e-09 -3.58723e-09 0
7.31481e-09 -4.72257e-09 0
8.38921e-09 -4.95703e-09 0
8.72254e-09 -4.63084e-09 0
8.62502e-09 -4.01012e-09 0
8.32793e-09 -3.28502e-09 0
7.97444e-09 -2.57762e-09 0
7.63968e-09 -1.95448e-09 0
7.35528e-09 -1.44181e-09 0
7.12863e-09 -1.04035e-09 0
6.95542e-09 -7.37433e-10 0
6.82688e-09 -5.15281e-10 0
6.7335e-09 -3.55913e-10 0
6.66673e-09 -2.43534e-10 0
6.61954e-09 -1.65349e-10 0
6.5865e-09 -1.11525e-10 0
6.56352e-09 -7.47783e-11 0
6.54763e-09 -4.98538e-11 0
6.53668e-09 -3.30316e-11 0
6.52918e-09 -2.17172e-11 0
6.52407e-09 -1.41226e-11 0
6.52063e-09 -9.03376e-12 0
6.51841e-09 -5.64382e-12 0
6.51708e-09 -3.43211e-12 0
6.51646e-09 -2.08098e-12 0
6.51647e-09 -1.42669e-12 0
6.51699e-09 -1.49724e-12 0
6.51748e-09 -2.2733e-12 0
0.00941488 3.64887e-08 0
0 -5.49135e-07 0
-4.87925e-13 -8.62654e-10 0
-4.65841e-10 -2.39326e-09 0
-5.78426e-10 -3.69231e-09 0
-2.07753e-09 -3.98408e-09 0
-4.74583e-09 -2.49946e-09 0
-5.3964e-09 -4.93726e-10 0
-3.36558e-09 1.83318e-10 0
-3.03225e-11 2.73072e-11 0
2.98967e-11 2.49223e-11 0
2.38481e-12 -5.45627e-09 0
-8.90378e-09 -1.49379e-08 0
-2.0004e-08 -1.65632e-08 0
-2.75761e-08 -8.79069e-09 0
-2.93935e-08 1.43839e-09 0
-2.54514e-08 9.01526e-09 0
-1.81858e-08 1.2014e-08 0
-1.07859e-08 1.06948e-08 0
-5.13125e-09 6.66989e-09 0
-1.43392e-09 2.02454e-09 0
7.88385e-10 -1.70234e-09 0
1.91442e-09 -3.95754e-09 0
2.12228e-09 -4.90506e-09 0
1.57942e-09 -4.96099e-09 0
5.31122e-10 -4.51038e-09 0
-7.48444e-10 -3.82776e-09 0
-2.03269e-09 -3.08849e-09 0
-3.17942e-09 -2.39525e-09 0
-4.126e-09 -1.79942e-09 0
-4.86509e-09 -1.31758e-09 0
-5.41935e-09 -9.45163e-10 0
-5.82285e-09 -6.67048e-10 0
-6.11025e-09 -4.64726e-10 0
-6.31169e-09 -3.2045e-10 0
-6.45123e-09 -2.19122e-10 0
-6.54707e-09 -1.48783e-10 0
-6.61249e-09 -1.00397e-10 0
-6.65694e-09 -6.73528e-11 0
-6.68705e-09 -4.49201e-11 0
-6.70738e-09 -2.97681e-11 0
-6.72108e-09 -1.958e-11 0
-6.73027e-09 -1.27609e-11 0
-6.7364e-09 -8.22538e-12 0
-6.74044e-09 -5.24376e-12 0
-6.74305e-09 -3.33488e-12 0
-6.74467e-09 -2.194e-12 0
-6.74559e-09 -1.65248e-12 0
-6.74599e-09 -1.67032e-12 0
-6.74607e-09 -2.38729e-12 0
-6.74633e-09 -3.88088e-12 0
0.00899033 4.85352e-08 0
0 -4.65341e-07 0
-4.41053e-13 -4.46238e-10 0
9.86291e-11 -1.31697e-09 0
-3.04902e-10 -2.13315e-09 0
-2.47331e-09 -2.42163e-09 0
-6.08702e-09 -8.27621e-10 0
-8.13371e-09 1.4731e-09 0
-7.89084e-09 -6.02312e-10 0
-5.24053e-09 -1.74391e-09 0
-4.12736e-09 -7.53747e-14 0
-2.78961e-09 -4.02518e-09 0
-9.27562e-09 -8.61639e-09 0
-2.16905e-08 -6.66114e-09 0
-3.07642e-08 -4.52987e-10 0
-3.09917e-08 5.68029e-09 0
-2.32721e-08 8.50087e-09 0
-1.27885e-08 7.55963e-09 0
-4.71257e-09 4.15656e-09 0
-1.17629e-09 2.09194e-10 0
-1.37259e-09 -2.70028e-09 0
-3.47263e-09 -4.00022e-09 0
-6.10161e-09 -4.03136e-09 0
-8.64332e-09 -3.44157e-09 0
-1.09333e-08 -2.71827e-09 0
-1.29492e-08 -2.08265e-09 0
-1.46824e-08 -1.58267e-09 0
-1.61241e-08 -1.19978e-09 0
-1.72798e-08 -9.05366e-10 0
-1.81737e-08 -6.7753e-10 0
-1.88443e-08 -5.01507e-10 0
-1.93349e-08 -3.66756e-10 0
-1.96867e-08 -2.64962e-10 0
-1.99352e-08 -1.89179e-10 0
-2.01086e-08 -1.33565e-10 0
-2.02286e-08 -9.33018e-11 0
-2.0311e-08 -6.45137e-11 0
-2.03673e-08 -4.41667e-11 0
-2.04056e-08 -2.99387e-11 0
-2.04315e-08 -2.00887e-11 0
-2.0449e-08 -1.33347e-11 0
-2.04608e-08 -8.74863e-12 0
-2.04687e-08 -5.66962e-12 0
-2.04739e-08 -3.63476e-12 0
-2.04773e-08 -2.32678e-12 0
-2.04796e-08 -1.53789e-12 0
-2.04811e-08 -1.14635e-12 0
-2.04821e-08 -1.10357e-12 0
-2.04828e-08 -1.42809e-12 0
-2.04836e-08 -2.21798e-12 0
-2.04848e-08 -3.53899e-12 0
0.00791904 3.74828e-08 0
0 -4.79472e-07 0
-5.20168e-14 -4.29753e-11 0
3.7807e-10 -2.08106e-10 0
-2.51271e-10 -4.33741e-10 0
-2.88967e-09 -5.32132e-10 0
-7.1426e-09 -3.89891e-10 0
-9.86753e-09 6.43849e-10 0
-9.70092e-09 4.08738e-10 0
-1.13263e-08 -7.68275e-10 0
-1.05095e-08 -9.81123e-10 0
-8.89136e-09 -1.23447e-09 0
-1.22389e-08 -1.78874e-10 0
-1.7791e-08 1.88469e-09 0
-2.09891e-08 3.20089e-09 0
-1.8433e-08 3.40882e-09 0
-1.1382e-08 2.51259e-09 0
-4.19924e-09 8.57067e-10 0
-5.48836e-10 -8.4156e-10 0
-1.14681e-09 -1.89573e-09 0
-4.39345e-09 -2.09405e-09 0
-8.29219e-09 -1.70758e-09 0
-1.1651e-08 -1.14854e-09 0
-1.41529e-08 -6.87701e-10 0
-1.59333e-08 -4.02149e-10 0
-1.72229e-08 -2.57209e-10 0
-1.81956e-08 -1.92062e-10 0
-1.89518e-08 -1.60942e-10 0
-1.95447e-08 -1.39856e-10 0
-2.0006e-08 -1.19888e-10 0
-2.0359e-08 -9.9521e-11 0
-2.06242e-08 -7.97634e-11 0
-2.08199e-08 -6.18799e-11 0
-2.0962e-08 -4.66475e-11 0
-2.10638e-08 -3.42957e-11 0
-2.11358e-08 -2.46669e-11 0
-2.11861e-08 -1.73969e-11 0
-2.1221e-08 -1.2051e-11 0
-2.1245e-08 -8.20696e-12 0
-2.12614e-08 -5.4962e-12 0
-2.12725e-08 -3.61838e-12 0
-2.128e-08 -2.34024e-12 0
-2.1285e-08 -1.48763e-12 0
-2.12883e-08 -9.35296e-13 0
-2.12905e-08 -5.97264e-13 0
-2.1292e-08 -4.1989e-13 0
-2.1293e-08 -3.7525e-13 0
-2.12938e-08 -4.5549e-13 0
-2.12946e-08 -6.56794e-13 0
-2.12956e-08 -9.5799e-13 0
-2.12973e-08 -1.41467e-12 0
0.00548837 1.30978e-08 0
0 0 0
2.38472e-13 0 0
2.30502e-10 0 0
-1.03109e-10 0 0
-1.36513e-09 0 0
-3.46925e-09 0 0
-5.26121e-09 0 0
-5.17571e-09 0 0
-6.08719e-09 0 0
-6.38208e-09 0 0
-6.09932e-09 0 0
-5.92431e-09 0 0
-5.47762e-09 0 0
-4.74219e-09 0 0
-3.27452e-09 0 0
-1.34311e-09 0 0
5.04237e-11 0 0
1.26219e-10 0 0
-1.04386e-09 0 0
-2.77756e-09 0 0
-4.40439e-09 0 0
-5.60981e-09 0 0
-6.39235e-09 0 0
-6.87994e-09 0 0
-7.1989e-09 0 0
-7.42991e-09 0 0
-7.61258e-09 0 0
-7.76275e-09 0 0
-7.88608e-09 0 0
-7.98534e-09 0 0
-8.06315e-09 0 0
-8.12258e-09 0 0
-8.16691e-09 0 0
-8.19932e-09 0 0
-8.2226e-09 0 0
-8.23907e-09 0 0
-8.25058e-09 0 0
-8.25852e-09 0 0
-8.26395e-09 0 0
-8.26763e-09 0 0
-8.27011e-09 0 0
-8.27176e-09 0 0
-8.27285e-09 0 0
-8.27359e-09 0 0
-8.27409e-09 0 0
-8.27446e-09 0 0
-8.27479e-09 0 0
-8.27515e-09 0 0
-8.27563e-09 0 0
-8.27636e-09 0 0
0.00190656 0 0
0 0 5.36579e-07
-8.67765e-13 0 2.81829e-10
-7.31564e-10 0 8.78786e-10
-9.58305e-11 0 2.21179e-09
-7.31622e-09 0 -3.68923e-10
3.29618e-09 0 -3.13399e-09
6.53551e-09 0 -1.90175e-09
7.58056e-09 0 -9.49611e-10
8.32304e-09 0 1.28942e-10
9.18585e-09 0 1.19208e-09
1.05685e-08 0 2.27164e-09
1.28379e-08 0 3.03974e-09
1.54993e-08 0 2.93643e-09
1.73049e-08 0 2.02952e-09
1.69344e-08 0 1.03601e-09
1.41022e-08 0 4.3717e-10
9.75331e-09 0 1.94864e-10
5.15472e-09 0 1.39105e-10
9.67718e-10 0 2.05694e-10
-2.83237e-09 0 3.66953e-10
-6.48323e-09 0 5.56104e-10
-1.00625e-08 0 6.92867e-10
-1.34398e-08 0 7.32292e-10
-1.64107e-08 0 6.78005e-10
-1.88277e-08 0 5.63851e-10
-2.06509e-08 0 4.29023e-10
-2.19319e-08 0 3.02528e-10
-2.27721e-08 0 1.99218e-10
-2.32842e-08 0 1.22712e-10
-2.35694e-08 0 7.02195e-11
-2.37075e-08 0 3.64833e-11
-2.37567e-08 0 1.61181e-11
-2.37564e-08 0 4.65316e-12
-2.37318e-08 0 -1.22388e-12
-2.36981e-08 0 -3.78954e-12
-2.36637e-08 0 -4.51972e-12
-2.36328e-08 0 -4.32253e-12
-2.3607e-08 0 -3.72737e-12
-2.35864e-08 0 -3.02341e-12
-2.35706e-08 0 -2.35452e-12
-2.35588e-08 0 -1.7811e-12
-2.35502e-08 0 -1.31836e-12
-2.35441e-08 0 -9.59366e-13
-2.35398e-08 0 -6.88482e-13
-2.35368e-08 0 -4.88185e-13
-2.35349e-08 0 -3.44159e-13
-2.35337e-08 0 -2.4915e-13
-2.35332e-08 0 -2.15987e-13
-2.35332e-08 0 -2.40459e-13
-2.35341e-08 0 -3.3016e-14
0.00541951 0 -8.17142e-10
0.0036 -3.06998e-07 -6.21724e-08
0.0035998 -0.00138985 -2.2074e-05
0.00670163 -0.00393696 0.000112434
0.0136124 -0.00588005 -0.000495819
0.023505 -0.0144821 -0.00426871
0.0463926 -0.0134464 -0.00488769
0.0499271 -0.00194254 -0.00164601
0.0496695 0.00262814 -0.000163366
0.0446885 0.00495177 0.000573198
0.0390892 0.00511487 0.000567645
0.0339965 0.00444317 0.000307389
0.0297248 0.00355778 3.85338e-05
0.0263374 0.00268961 -0.000155962
0.0237612 0.00193768 -0.000258462
0.0218418 0.00134604 -0.000280655
0.0204082 0.000917362 -0.000247074
0.0193214 0.000626573 -0.000184889
0.0184869 0.000437654 -0.000117383
0.0178455 0.000315441 -6.02647e-05
0.0173588 0.000232697 -2.03968e-05
0.0169978 0.000172328 2.5396e-06
0.016738 0.000125613 1.26667e-05
0.0165575 8.8841e-05 1.48793e-05
0.016437 6.04338e-05 1.31606e-05
0.0163599 3.93086e-05 1.00975e-05
0.0163131 2.42964e-05 7.06159e-06
0.0162864 1.41197e-05 4.60545e-06
0.0162724 7.54395e-06 2.83121e-06
0.0162661 3.50594e-06 1.64434e-06
0.0162642 1.16962e-06 8.96107e-07
0.0162645 -7.82116e-08 4.48152e-07
0.0162659 -6.62967e-07 1.93516e-07
0.0162676 -8.66119e-07 5.74043e-08
0.0162692 -8.65916e-07 -9.25438e-09
0.0162706 -7.70125e-07 -3.71451e-08
0.0162718 -6.40412e-07 -4.46765e-08
0.0162727 -5.09504e-07 -4.24487e-08
0.0162734 -3.92759e-07 -3.62854e-08
0.0162739 -2.95665e-07 -2.91927e-08
0.0162743 -2.18499e-07 -2.25774e-08
0.0162746 -1.59113e-07 -1.69787e-08
0.0162748 -1.145e-07 -1.24963e-08
0.0162749 -8.16212e-08 -9.03544e-09
0.016275 -5.77883e-08 -6.43235e-09
0.0162751 -4.08011e-08 -4.51373e-09
0.0162752 -2.89423e-08 -3.08196e-09
0.0162752 -2.09373e-08 -1.83655e-09
0.0162752 -1.59836e-08 7.62219e-11
0.0162752 -1.5103e-08 3.4059e-09
0.0162753 -3.11839e-08 6.99098e-10
0.0162753 -4.63654e-08 -4.0478e-09
0.01 -1.37053e-07 -1.45807e-06
0.0100007 -0.00298533 -0.000598829
0.0147863 -0.00996791 -0.000794029
0.0241902 -0.0177602 -0.00123174
0.0386199 -0.0326292 -0.00333679
0.0593338 -0.0249448 -0.000814433
0.056558 -0.00276858 0.00318676
0.055993 0.00506295 0.003389
0.0502176 0.0100277 0.0030071
0.0447615 0.0101598 0.0021308
0.0402785 0.00906015 0.00120329
0.0365882 0.00763043 0.000469199
0.033634 0.00616773 -4.75665e-05
0.0313662 0.00484046 -0.000355757
0.0296309 0.00373279 -0.000476243
0.028277 0.0028497 -0.00045839
0.0272039 0.00215609 -0.000362855
0.0263566 0.00161287 -0.00024338
0.0257031 0.00118911 -0.000136287
0.0252163 0.000861555 -5.81717e-05
0.0248678 0.000611618 -1.04908e-05
0.0246284 0.000423847 1.32013e-05
0.0244716 0.00028543 2.13341e-05
0.0243743 0.0001858 2.10878e-05
0.0243183 0.000116149 1.73457e-05
0.0242893 6.9078e-05 1.28694e-05
0.0242771 3.84554e-05 8.91996e-06
0.0242745 1.93697e-05 5.88564e-06
0.0242769 8.06018e-06 3.73746e-06
0.0242814 1.78076e-06 2.29774e-06
0.0242864 -1.38424e-06 1.37074e-06
0.0242911 -2.71513e-06 7.92754e-07
0.0242951 -3.03285e-06 4.42497e-07
0.0242983 -2.84145e-06 2.36106e-07
0.0243008 -2.43553e-06 1.18129e-07
0.0243027 -1.97674e-06 5.30933e-08
0.0243041 -1.5458e-06 1.8911e-08
0.0243052 -1.17656e-06 2.16687e-09
0.0243059 -8.77334e-07 -5.08571e-09
0.0243064 -6.43834e-07 -7.42727e-09
0.0243068 -4.66539e-07 -7.41254e-09
0.0243071 -3.34699e-07 -6.4077e-09
0.0243073 -2.38299e-07 -5.11359e-09
0.0243074 -1.68846e-07 -3.86264e-09
0.0243075 -1.19575e-07 -2.7839e-09
0.0243075 -8.53829e-08 -1.81628e-09
0.0243076 -6.27504e-08 -5.61212e-10
0.0243076 -5.172e-08 1.74405e-09
0.0243077 -5.6038e-08 4.93289e-09
0.0243077 -8.79497e-08 -3.61883e-09
0.0243078 -1.13288e-07 -1.38315e-08
0.0148 -9.60914e-07 -1.75221e-06
0.0148024 -0.00529978 -0.00112508
0.0204043 -0.0164548 -0.00244938
0.0276077 -0.028916 -0.0039426
0.0322812 -0.0463464 -0.00577748
0.030734 -0.0286051 -0.00142277
0.0269255 -1.23859e-05 0.0033068
0.0263623 0.00704954 0.00352496
0.0298488 0.0143631 0.00343807
0.0301969 0.0137477 0.00248359
0.0294095 0.0119389 0.00153454
0.02859 0.0100816 0.000708219
0.0279776 0.00821591 0.000109241
0.0276744 0.00650245 -0.000252047
0.0275526 0.00507506 -0.000395966
0.0275066 0.0039165 -0.000388296
0.0274909 0.00297127 -0.000301322
0.0274954 0.00220152 -0.000191553
0.0275192 0.00158756 -9.36308e-05
0.0275598 0.00111352 -2.26271e-05
0.0276112 0.000759469 1.98247e-05
0.0276676 0.000502446 3.91378e-05
0.0277243 0.000320463 4.29874e-05
0.027778 0.000194928 3.8427e-05
0.0278267 0.000111013 3.05957e-05
0.027869 5.70988e-05 2.25528e-05
0.0279044 2.41641e-05 1.57227e-05
0.027933 5.34648e-06 1.05044e-05
0.0279553 -4.39686e-06 6.78221e-06
0.0279723 -8.61436e-06 4.25303e-06
0.0279849 -9.68697e-06 2.59681e-06
0.027994 -9.13379e-06 1.54449e-06
0.0280006 -7.87156e-06 8.9342e-07
0.0280052 -6.41743e-06 5.00638e-07
0.0280084 -5.03686e-06 2.69699e-07
0.0280106 -3.84531e-06 1.37679e-07
0.0280121 -2.87456e-06 6.46485e-08
0.0280132 -2.11393e-06 2.59048e-08
0.0280139 -1.53446e-06 6.52624e-09
0.0280144 -1.10229e-06 -2.2813e-09
0.0280147 -7.85264e-07 -5.56428e-09
0.0280149 -5.55802e-07 -6.12897e-09
0.0280151 -3.91599e-07 -5.49177e-09
0.0280152 -2.75381e-07 -4.43201e-09
0.0280152 -1.94205e-07 -3.27291e-09
0.0280153 -1.39067e-07 -2.05456e-09
0.0280153 -1.04418e-07 -3.59328e-10
0.0280153 -8.87846e-08 1.71481e-09
0.0280154 -9.40897e-08 8.68948e-10
0.0280154 -1.16478e-07 -1.45632e-08
0.0280154 -1.30646e-07 -2.81409e-08
0.018 -1.93748e-06 -1.69824e-06
0.018003 -0.0070156 -0.00187401
0.0207964 -0.0190585 -0.00492638
0.0207606 -0.0250933 -0.00634892
0.0161128 -0.0271084 -0.0076372
-1.61055e-06 -0.0140676 -0.00434165
9.72734e-05 2.607e-05 9.29125e-07
-3.31441e-05 3.44903e-05 0.000655849
0.00655603 0.00404779 0.00144727
0.0133667 0.00915626 0.00142229
0.0167598 0.00990783 0.0010185
0.0185485 0.00890878 0.000488324
0.0202593 0.00737449 6.66762e-06
0.0219584 0.00580696 -0.000266252
0.0234779 0.00450178 -0.00034551
0.0247547 0.0034345 -0.000308678
0.0258004 0.00254541 -0.000223235
0.0266503 0.00181133 -0.000131295
0.0273369 0.00122985 -5.36235e-05
0.0278845 0.000794366 2.2894e-06
0.0283127 0.000485359 3.60211e-05
0.0286406 0.000275747 5.09421e-05
0.0288872 0.000139027 5.23692e-05
0.0290698 5.36609e-05 4.59595e-05
0.0292033 3.59112e-06 3.6392e-05
0.0292996 -2.28722e-05 2.67409e-05
0.029368 -3.42101e-05 1.85507e-05
0.0294159 -3.64819e-05 1.22878e-05
0.0294489 -3.38555e-05 7.82889e-06
0.0294712 -2.90343e-05 4.81808e-06
0.0294861 -2.36412e-05 2.86875e-06
0.0294959 -1.85515e-05 1.65087e-06
0.0295022 -1.41608e-05 9.14287e-07
0.0295062 -1.05814e-05 4.82786e-07
0.0295088 -7.7754e-06 2.38439e-07
0.0295105 -5.63773e-06 1.05414e-07
0.0295115 -4.04418e-06 3.65628e-08
0.0295121 -2.87607e-06 3.46124e-09
0.0295125 -2.03114e-06 -1.05205e-08
0.0295128 -1.42643e-06 -1.48139e-08
0.0295129 -9.97381e-07 -1.45807e-08
0.029513 -6.95198e-07 -1.25204e-08
0.0295131 -4.83796e-07 -9.96753e-09
0.0295131 -3.3703e-07 -7.52234e-09
0.0295131 -2.36397e-07 -5.34065e-09
0.0295131 -1.69294e-07 -3.47037e-09
0.0295132 -1.27522e-07 -1.77414e-09
0.0295132 -1.04774e-07 -8.09564e-10
0.0295132 -9.7057e-08 -6.81038e-09
0.0295131 -8.97706e-08 -2.52167e-08
0.0295131 -8.2809e-08 -3.75149e-08
0.0196 -2.81788e-06 -2.56082e-06
0.019601 -0.00593103 -0.00274392
0.0190532 -0.0132376 -0.00648611
0.0159282 -0.016286 -0.00669774
0.0108585 -0.0152737 -0.00669513
0.00170553 -0.00629716 -0.00504763
7.23832e-05 -6.64547e-05 -0.00130559
3.33106e-05 -3.33106e-05 -4.2211e-08
-3.254e-05 3.37481e-05 0.000264186
0.00387064 0.00270005 0.000566357
0.00882871 0.00628156 0.00049953
0.0117287 0.00650982 0.000150125
0.0149713 0.00507462 -0.000234714
0.0181199 0.00372697 -0.000404773
0.0208158 0.00274193 -0.000404564
0.0229984 0.00198149 -0.00032475
0.0247294 0.00134907 -0.000226233
0.0260911 0.000826019 -0.000137794
0.0271514 0.000424432 -6.78553e-05
0.0279613 0.000147453 -1.68153e-05
0.0285638 -2.17336e-05 1.64929e-05
0.0289994 -0.000111187 3.39656e-05
0.0293056 -0.000148434 3.89365e-05
0.0295158 -0.000154504 3.58153e-05
0.0296569 -0.000143502 2.88511e-05
0.0297497 -0.000124371 2.11434e-05
0.0298094 -0.000102643 1.4398e-05
0.0298469 -8.15918e-05 9.22689e-06
0.0298699 -6.29467e-05 5.60334e-06
0.0298836 -4.7402e-05 3.23045e-06
0.0298915 -3.50028e-05 1.76072e-06
0.0298959 -2.54404e-05 8.94968e-07
0.0298982 -1.82558e-05 4.10001e-07
0.0298993 -1.29673e-05 1.53394e-07
0.0298998 -9.13637e-06 2.74414e-08
0.0298999 -6.39611e-06 -2.73749e-08
0.0298999 -4.45525e-06 -4.56966e-08
0.0298999 -3.09117e-06 -4.67933e-08
0.0298998 -2.13825e-06 -4.08565e-08
0.0298997 -1.47573e-06 -3.29431e-08
0.0298996 -1.01691e-06 -2.53282e-08
0.0298996 -7.00255e-07 -1.88535e-08
0.0298995 -4.82506e-07 -1.36845e-08
0.0298995 -3.33526e-07 -9.7204e-09
0.0298995 -2.32487e-07 -6.76865e-09
0.0298994 -1.6476e-07 -4.77007e-09
0.0298994 -1.19665e-07 -3.78322e-09
0.0298994 -8.75833e-08 -3.98425e-09
0.0298994 -6.01051e-08 -1.23921e-08
0.0298993 -2.13084e-08 -2.87573e-08
0.0298993 4.06571e-09 -3.71574e-08
0.0196 -1.35875e-06 -3.57768e-06
0.0195999 -0.00370059 -0.00312821
0.018753 -0.00813258 -0.00652743
0.0174974 -0.00817875 -0.00605745
0.0131599 -0.00435682 -0.0055447
0.0090594 0.00252449 -0.0053387
0.00613754 0.00313591 -0.00312739
7.25613e-05 -6.03481e-05 -0.000678906
2.7808e-05 -2.7808e-05 -1.27287e-07
-3.20046e-05 3.30754e-05 9.7297e-05
0.00265293 0.00185101 0.00036886
0.00688916 0.00284003 0.000269413
0.0121226 0.00131892 -0.000167101
0.0167387 0.000403611 -0.000367872
0.0203322 4.85663e-05 -0.000379005
0.0230191 -0.000130328 -0.000306212
0.0250118 -0.000292632 -0.000218738
0.026483 -0.000444281 -0.000145434
0.0275521 -0.000547124 -9.00867e-05
0.0283053 -0.000580207 -4.88425e-05
0.0288133 -0.000551687 -1.91425e-05
0.0291388 -0.000485026 -1.67755e-07
0.0293358 -0.000403327 9.36509e-06
0.0294477 -0.000322177 1.19898e-05
0.0295061 -0.000249632 1.06932e-05
0.0295331 -0.000188729 7.91131e-06
0.0295425 -0.000139762 5.11329e-06
0.029543 -0.000101686 2.92496e-06
0.0295395 -7.28874e-05 1.45333e-06
0.0295347 -5.16048e-05 5.73966e-07
0.02953 -3.61774e-05 1.06156e-07
0.0295259 -2.5168e-05 -1.07954e-07
0.0295226 -1.74079e-05 -1.81209e-07
0.02952 -1.19897e-05 -1.84844e-07
0.0295181 -8.23312e-06 -1.5959e-07
0.0295167 -5.64186e-06 -1.26552e-07
0.0295156 -3.86078e-06 -9.53672e-08
0.0295149 -2.63958e-06 -6.95349e-08
0.0295144 -1.80365e-06 -4.95891e-08
0.029514 -1.23214e-06 -3.4834e-08
0.0295138 -8.41792e-07 -2.42114e-08
0.0295136 -5.75467e-07 -1.66903e-08
0.0295134 -3.94001e-07 -1.14342e-08
0.0295134 -2.70476e-07 -7.84593e-09
0.0295133 -1.86137e-07 -5.53973e-09
0.0295132 -1.27378e-07 -4.32351e-09
0.0295132 -8.3755e-08 -4.1836e-09
0.0295132 -4.59099e-08 -4.80812e-09
0.0295131 -3.71393e-09 -1.17953e-08
0.0295131 5.46821e-08 -2.30676e-08
0.029513 8.9555e-08 -2.77725e-08
0.018 -8.63857e-07 -3.57232e-06
0.0180009 -0.00201726 -0.00305134
0.0183121 -0.00390492 -0.00616634
0.0183616 -0.00271632 -0.00529006
0.0173371 0.000572 -0.00419121
0.0170515 0.00703144 -0.00396571
0.0177847 0.0125586 -0.00301554
0.010918 0.00692692 -0.00151044
7.40256e-05 -4.66705e-05 -0.000440641
-2.50556e-05 -5.43874e-05 5.5693e-07
7.90835e-06 -0.000752288 0.000752839
0.0082152 -0.00297675 0.00109344
0.0154533 -0.0045353 0.000447176
0.0203815 -0.00412707 0.000115313
0.023526 -0.00317416 -1.53064e-05
0.0255285 -0.00237813 -5.8576e-05
0.0268152 -0.00185588 -7.24112e-05
0.0276293 -0.00151642 -7.81852e-05
0.0281126 -0.00125697 -7.8098e-05
0.0283616 -0.00102385 -7.01897e-05
0.0284527 -0.000807007 -5.59371e-05
0.0284482 -0.000614784 -3.98015e-05
0.028395 -0.000455225 -2.58222e-05
0.0283244 -0.000329908 -1.57494e-05
0.0282544 -0.000235305 -9.37262e-06
0.0281937 -0.000165796 -5.64913e-06
0.0281449 -0.000115696 -3.5387e-06
0.0281076 -8.01133e-05 -2.31579e-06
0.0280802 -5.51431e-05 -1.56369e-06
0.0280604 -3.77906e-05 -1.06967e-06
0.0280465 -2.58232e-05 -7.30251e-07
0.0280367 -1.76151e-05 -4.93046e-07
0.02803 -1.2006e-05 -3.27865e-07
0.0280254 -8.18077e-06 -2.14507e-07
0.0280222 -5.57462e-06 -1.38172e-07
0.0280201 -3.79938e-06 -8.77573e-08
0.0280186 -2.58989e-06 -5.50626e-08
0.0280176 -1.76559e-06 -3.41995e-08
0.0280169 -1.20366e-06 -2.10694e-08
0.0280164 -8.20559e-07 -1.29001e-08
0.0280161 -5.59424e-07 -7.86328e-09
0.0280158 -3.81439e-07 -4.78205e-09
0.0280157 -2.59964e-07 -2.93763e-09
0.0280156 -1.76493e-07 -1.91492e-09
0.0280155 -1.17865e-07 -1.48048e-09
0.0280155 -7.43023e-08 -1.49106e-09
0.0280154 -3.79778e-08 -1.88221e-09
0.0280154 -1.88435e-09 -2.26262e-09
0.0280153 4.29721e-08 -5.51716e-09
0.0280153 1.01451e-07 -1.15584e-08
0.0280153 1.33928e-07 -1.44375e-08
0.0148 -4.84286e-07 -3.1648e-06
0.0148015 -0.0010415 -0.00283201
0.0162283 -0.00166438 -0.00543119
0.0177839 -6.32465e-05 -0.00429243
0.0190919 0.00313274 -0.00306109
0.0208136 0.00732249 -0.00283708
0.0246231 0.0129739 -0.00241032
0.0279156 0.0195027 -0.00152489
0.0229611 0.0112786 -0.000352507
0.0234192 4.37793e-11 0.000621105
0.0265683 -0.00673144 0.00156112
0.0299481 -0.01315 0.00211761
0.0306981 -0.0110655 0.00164213
0.0300712 -0.0077021 0.00113323
0.0290733 -0.00503335 0.000673697
0.028128 -0.00329854 0.000323276
0.0273392 -0.00223874 9.50915e-05
0.0266959 -0.00157232 -3.26215e-05
0.0261673 -0.00111769 -8.89654e-05
0.0257313 -0.000786072 -9.95856e-05
0.0253757 -0.000541239 -8.57447e-05
0.0250925 -0.0003657 -6.34025e-05
0.0248733 -0.000244788 -4.2137e-05
0.0247084 -0.00016398 -2.58661e-05
0.0245876 -0.00011066 -1.49496e-05
0.024501 -7.53883e-05 -8.24495e-06
0.0244401 -5.17898e-05 -4.37301e-06
0.0243979 -3.57897e-05 -2.23259e-06
0.0243689 -2.48192e-05 -1.08758e-06
0.0243492 -1.72384e-05 -4.92344e-07
0.0243358 -1.19757e-05 -1.92646e-07
0.0243267 -8.31391e-06 -4.85075e-08
0.0243206 -5.76437e-06 1.5495e-08
0.0243165 -3.98999e-06 3.94066e-08
0.0243137 -2.75649e-06 4.41986e-08
0.0243117 -1.90041e-06 4.06525e-08
0.0243105 -1.30744e-06 3.41492e-08
0.0243096 -8.97592e-07 2.72383e-08
0.024309 -6.14973e-07 2.10115e-08
0.0243086 -4.20521e-07 1.58327e-08
0.0243083 -2.86963e-07 1.17225e-08
0.0243081 -1.95222e-07 8.55749e-09
0.0243079 -1.31874e-07 6.16036e-09
0.0243079 -8.73458e-08 4.35887e-09
0.0243078 -5.46191e-08 3.01858e-09
0.0243078 -2.82852e-08 2.05873e-09
0.0243077 -3.78341e-09 1.50316e-09
0.0243077 2.26513e-08 1.50257e-09
0.0243077 5.52375e-08 1.21858e-09
0.0243077 9.34232e-08 -2.35171e-09
0.0243078 1.13131e-07 -5.47499e-09
0.01 -9.26765e-07 -2.86798e-06
0.0100008 -0.000637961 -0.00230636
0.0113181 -0.000722404 -0.00414627
0.0131708 0.000536818 -0.00290638
0.0155868 0.00250243 -0.0018007
0.0194645 0.0055494 -0.00180725
0.0253718 0.00836068 -0.00236119
0.0344906 0.01012 -0.00209518