# vtk DataFile Version 2.0
Tobias Weinzierl: CPU, Manycore and Cluster Computing
ASCII

DATASET STRUCTURED_POINTS
DIMENSIONS  51 11 6

ORIGIN 0 0 0 

SPACING 0.1 0.1 0.1 

POINT_DATA 3366

VECTORS velocity float
0 0 0
5.52911e-13 0 0
9.01182e-10 0 0
1.96383e-09 0 0
-4.01138e-09 0 0
4.43342e-09 0 0
6.01245e-09 0 0
5.2739e-09 0 0
4.94159e-09 0 0
4.57192e-09 0 0
3.68417e-09 0 0
2.71869e-09 0 0
1.78468e-09 0 0
2.30356e-10 0 0
-2.18038e-09 0 0
-4.63931e-09 0 0
-6.2652e-09 0 0
-6.99613e-09 0 0
-7.38249e-09 0 0
-7.93523e-09 0 0
-8.81141e-09 0 0
-9.89299e-09 0 0
-1.09817e-08 0 0
-1.19274e-08 0 0
-1.26633e-08 0 0
-1.31878e-08 0 0
-1.35345e-08 0 0
-1.37473e-08 0 0
-1.3867e-08 0 0
-1.39265e-08 0 0
-1.39494e-08 0 0
-1.3952e-08 0 0
-1.39444e-08 0 0
-1.39327e-08 0 0
-1.39204e-08 0 0
-1.39092e-08 0 0
-1.38998e-08 0 0
-1.38922e-08 0 0
-1.38863e-08 0 0
-1.38818e-08 0 0
-1.38785e-08 0 0
-1.38761e-08 0 0
-1.38744e-08 0 0
-1.38731e-08 0 0
-1.38723e-08 0 0
-1.38717e-08 0 0
-1.38714e-08 0 0
-1.38713e-08 0 0
-1.38714e-08 0 0
-1.38719e-08 0 0
0.00194079 0 0
0 3.86497e-07 0
3.31178e-13 -1.08354e-09 0
1.34604e-09 -3.21871e-09 0
4.71241e-09 -1.03431e-09 0
-1.54997e-09 -5.29714e-09 0
1.33805e-08 -7.16208e-09 0
1.57178e-08 3.68958e-11 0
1.42411e-08 9.97044e-10 0
1.41348e-08 9.61848e-11 0
1.41862e-08 -3.39252e-10 0
1.29537e-08 -7.72112e-10 0
1.07629e-08 -7.00538e-10 0
7.74913e-09 9.80892e-10 0
3.44411e-09 3.49775e-09 0
-1.78019e-09 4.78272e-09 0
-6.38629e-09 4.05998e-09 0
-9.37682e-09 2.39416e-09 0
-1.12568e-08 1.13106e-09 0
-1.32104e-08 7.3601e-10 0
-1.59615e-08 9.0722e-10 0
-1.94584e-08 1.18282e-09 0
-2.32016e-08 1.30025e-09 0
-2.66611e-08 1.21939e-09 0
-2.95051e-08 1.01103e-09 0
-3.16314e-08 7.60937e-10 0
-3.30978e-08 5.27936e-10 0
-3.40361e-08 3.39297e-10 0
-3.45913e-08 2.00461e-10 0
-3.48889e-08 1.05701e-10 0
-3.50248e-08 4.53863e-11 0
-3.50664e-08 9.84073e-12 0
-3.50577e-08 -9.04516e-12 0
-3.50261e-08 -1.742e-11 0
-3.49871e-08 -1.96269e-11 0
-3.49491e-08 -1.85519e-11 0
-3.49158e-08 -1.59994e-11 0
-3.48884e-08 -1.30208e-11 0
-3.48669e-08 -1.01726e-11 0
-3.48504e-08 -7.70557e-12 0
-3.4838e-08 -5.69396e-12 0
-3.4829e-08 -4.11906e-12 0
-3.48224e-08 -2.92039e-12 0
-3.48177e-08 -2.0248e-12 0
-3.48144e-08 -1.36075e-12 0
-3.48122e-08 -8.63876e-13 0
-3.48107e-08 -4.78264e-13 0
-3.48099e-08 -1.45266e-13 0
-3.48097e-08 2.09643e-13 0
-3.48102e-08 8.49193e-13 0
-3.48119e-08 2.53673e-12 0
0.00557532 -2.5291e-08 0
0 -2.06107e-08 0
5.07438e-13 -1.15492e-09 0
2.1192e-09 -5.78639e-09 0
9.34676e-09 -9.91576e-09 0
1.24242e-08 -1.82674e-08 0
2.36675e-08 -1.48649e-08 0
1.99122e-08 -1.39085e-09 0
1.94e-08 -6.70006e-10 0
1.94585e-08 -4.73475e-09 0
1.86269e-08 -9.42202e-09 0
1.42928e-08 -1.26043e-08 0
9.49934e-09 -1.16168e-08 0
5.78258e-09 -6.13508e-09 0
1.45211e-09 4.86506e-10 0
-3.64368e-09 5.26532e-09 0
-8.04313e-09 7.93507e-09 0
-1.08201e-08 9.33923e-09 0
-1.24712e-08 9.93416e-09 0
-1.41109e-08 9.83649e-09 0
-1.64859e-08 9.14282e-09 0
-1.96442e-08 7.998e-09 0
-2.31459e-08 6.5826e-09 0
-2.64443e-08 5.09394e-09 0
-2.9157e-08 3.70684e-09 0
-3.11444e-08 2.53608e-09 0
-3.24543e-08 1.62644e-09 0
-3.32275e-08 9.68216e-10 0
-3.36229e-08 5.2159e-10 0
-3.37776e-08 2.37169e-10 0
-3.37938e-08 6.84333e-11 0
-3.374e-08 -2.27513e-11 0
-3.36584e-08 -6.4999e-11 0
-3.35728e-08 -7.83919e-11 0
-3.34951e-08 -7.62233e-11 0
-3.34297e-08 -6.67954e-11 0
-3.33774e-08 -5.49619e-11 0
-3.33371e-08 -4.33228e-11 0
-3.33067e-08 -3.30868e-11 0
-3.32844e-08 -2.46579e-11 0
-3.32681e-08 -1.80135e-11 0
-3.32564e-08 -1.29343e-11 0
-3.32481e-08 -9.13492e-12 0
-3.32422e-08 -6.33147e-12 0
-3.32382e-08 -4.27104e-12 0
-3.32355e-08 -2.73542e-12 0
-3.32337e-08 -1.53242e-12 0
-3.32329e-08 -4.40207e-13 0
-3.32328e-08 8.96792e-13 0
-3.32335e-08 2.89877e-12 0
-3.32353e-08 5.96072e-12 0
0.00800236 -5.90645e-08 0
0 -6.40484e-07 0
2.9149e-12 -2.86694e-09 0
3.73629e-09 -1.01238e-08 0
1.25673e-08 -1.91706e-08 0
1.41595e-08 -2.65954e-08 0
1.47203e-08 -1.46877e-08 0
1.02084e-08 -7.64597e-12 0
1.04329e-08 -1.62e-09 0
6.65446e-09 -8.55737e-09 0
2.15336e-09 -1.76613e-08 0
-1.73217e-09 -2.33393e-08 0
-4.89083e-09 -2.45788e-08 0
-6.73296e-09 -2.01537e-08 0
-1.0788e-08 -1.07881e-08 0
-1.67381e-08 7.52539e-10 0
-2.20423e-08 1.12056e-08 0
-2.46589e-08 1.76849e-08 0
-2.42168e-08 1.94121e-08 0
-2.1777e-08 1.77623e-08 0
-1.89165e-08 1.46543e-08 0
-1.67772e-08 1.13516e-08 0
-1.56798e-08 8.37428e-09 0
-1.53552e-08 5.86659e-09 0
-1.53747e-08 3.85562e-09 0
-1.54257e-08 2.32929e-09 0
-1.53729e-08 1.24247e-09 0
-1.52046e-08 5.225e-10 0
-1.49626e-08 8.43534e-11 0
-1.46961e-08 -1.53624e-10 0
-1.44414e-08 -2.59914e-10 0
-1.42188e-08 -2.86457e-10 0
-1.40359e-08 -2.69562e-10 0
-1.38921e-08 -2.32769e-10 0
-1.37827e-08 -1.90172e-10 0
-1.37016e-08 -1.49403e-10 0
-1.36426e-08 -1.13976e-10 0
-1.36004e-08 -8.49817e-11 0
-1.35704e-08 -6.22072e-11 0
-1.35494e-08 -4.4848e-11 0
-1.35347e-08 -3.19125e-11 0
-1.35245e-08 -2.24364e-11 0
-1.35175e-08 -1.55779e-11 0
-1.35126e-08 -1.0645e-11 0
-1.35093e-08 -7.08569e-12 0
-1.35072e-08 -4.4566e-12 0
-1.35058e-08 -2.37045e-12 0
-1.35051e-08 -4.58523e-13 0
-1.35048e-08 1.60021e-12 0
-1.35047e-08 3.95561e-12 0
-1.3505e-08 6.46548e-12 0
0.00902115 -6.39468e-08 0
0 -1.25375e-06 0
1.56795e-12 -5.58266e-09 0
1.44915e-09 -1.54859e-08 0
4.78743e-09 -2.04578e-08 0
3.12179e-09 -1.66356e-08 0
-1.62112e-12 -6.0849e-09 0
-5.79266e-11 -6.74122e-11 0
6.30727e-11 -6.56606e-11 0
-3.61077e-09 -6.5537e-09 0
-1.64118e-08 -2.11683e-08 0
-2.23038e-08 -3.36073e-08 0
-2.12222e-08 -3.77921e-08 0
-2.22302e-08 -3.12477e-08 0
-2.65286e-08 -1.56582e-08 0
-3.18082e-08 2.4091e-09 0
-3.58244e-08 1.681e-08 0
-3.69771e-08 2.36802e-08 0
-3.4354e-08 2.32163e-08 0
-2.83972e-08 1.85792e-08 0
-2.09118e-08 1.30356e-08 0
-1.3893e-08 8.31948e-09 0
-8.45346e-09 4.8207e-09 0
-4.70468e-09 2.36895e-09 0
-2.23888e-09 7.20454e-10 0
-5.88268e-10 -3.14909e-10 0
5.76958e-10 -8.87767e-10 0
1.44048e-09 -1.13003e-09 0
2.09467e-09 -1.15646e-09 0
2.58899e-09 -1.05901e-09 0
2.95647e-09 -9.04153e-10 0
3.2239e-09 -7.34939e-10 0
3.41439e-09 -5.75926e-10 0
3.54748e-09 -4.38718e-10 0
3.63898e-09 -3.26778e-10 0
3.70106e-09 -2.39033e-10 0
3.74275e-09 -1.72283e-10 0
3.77056e-09 -1.22665e-10 0
3.78903e-09 -8.6446e-11 0
3.80128e-09 -6.03859e-11 0
3.8094e-09 -4.18461e-11 0
3.8148e-09 -2.87678e-11 0
3.81841e-09 -1.95905e-11 0
3.82083e-09 -1.31539e-11 0
3.82244e-09 -8.59821e-12 0
3.82352e-09 -5.28076e-12 0
3.82428e-09 -2.72926e-12 0
3.82493e-09 -6.31211e-13 0
3.82576e-09 1.15627e-12 0
3.82691e-09 2.66185e-12 0
3.8278e-09 3.96679e-12 0
0.00939732 -3.68068e-08 0
0 -1.13517e-06 0
-2.55134e-12 -5.9827e-09 0
-2.22911e-09 -1.33344e-08 0
-2.41862e-09 -1.58838e-08 0
-5.20525e-09 -1.56912e-08 0
-4.16928e-09 -7.16034e-09 0
-6.05347e-11 5.87254e-11 0
4.35354e-12 -4.35354e-12 0
6.10723e-11 -6.50715e-11 0
-9.55248e-09 -1.15452e-08 0
-2.89124e-08 -3.40578e-08 0
-3.21108e-08 -4.4286e-08 0
-3.43071e-08 -3.54998e-08 0
-3.62951e-08 -1.67767e-08 0
-3.69595e-08 3.56582e-09 0
-3.67798e-08 1.88187e-08 0
-3.59288e-08 2.49355e-08 0
-3.30549e-08 2.2495e-08 0
-2.70311e-08 1.55626e-08 0
-1.87038e-08 8.27675e-09 0
-1.01816e-08 2.73908e-09 0
-3.14957e-09 -7.58359e-10 0
1.84472e-09 -2.66898e-09 0
5.0691e-09 -3.5086e-09 0
7.05135e-09 -3.66588e-09 0
8.25296e-09 -3.41648e-09 0
8.98467e-09 -2.95829e-09 0
9.43323e-09 -2.42874e-09 0
9.70773e-09 -1.91444e-09 0
9.87342e-09 -1.46159e-09 0
9.97086e-09 -1.08789e-09 0
1.0026e-08 -7.93465e-10 0
1.00556e-08 -5.69378e-10 0
1.00702e-08 -4.03267e-10 0
1.00764e-08 -2.82626e-10 0
1.00782e-08 -1.96395e-10 0
1.00779e-08 -1.35525e-10 0
1.00768e-08 -9.2976e-11 0
1.00755e-08 -6.34577e-11 0
1.00743e-08 -4.30958e-11 0
1.00734e-08 -2.91037e-11 0
1.00727e-08 -1.95024e-11 0
1.00722e-08 -1.28982e-11 0
1.00719e-08 -8.31839e-12 0
1.00719e-08 -5.10303e-12 0
1.0072e-08 -2.83273e-12 0
1.00726e-08 -1.26064e-12 0
1.00735e-08 -2.50244e-13 0
1.00748e-08 2.17734e-13 0
1.00758e-08 3.26241e-13 0
0.00948801 6.55265e-09 0
0 -7.82964e-07 0
-1.09548e-12 -3.56271e-09 0
-2.32112e-09 -9.07142e-09 0
-2.0546e-09 -1.19229e-08 0
-7.31985e-09 -1.20995e-08 0
-1.04262e-08 -7.89109e-09 0
-4.75011e-09 -2.20525e-09 0
-5.89875e-11 5.84624e-11 0
2.61652e-12 -2.61652e-12 0
5.81275e-11 -6.40163e-11 0
-1.33639e-08 -1.98926e-08 0
-2.68956e-08 -4.07154e-08 0
-3.41743e-08 -3.32162e-08 0
-3.63549e-08 -1.42902e-08 0
-3.41487e-08 5.00872e-09 0
-2.96145e-08 1.84706e-08 0
-2.5535e-08 2.28919e-08 0
-2.21633e-08 1.90792e-08 0
-1.78189e-08 1.11018e-08 0
-1.18999e-08 3.22424e-09 0
-5.59202e-09 -2.35197e-09 0
-3.93234e-10 -5.39555e-09 0
3.02674e-09 -6.53475e-09 0
4.82829e-09 -6.48217e-09 0
5.52082e-09 -5.78574e-09 0
5.59447e-09 -4.81862e-09 0
5.38753e-09 -3.81568e-09 0
5.09232e-09 -2.90739e-09 0
4.80211e-09 -2.15024e-09 0
4.55392e-09 -1.55393e-09 0
4.3565e-09 -1.10313e-09 0
4.20619e-09 -7.72459e-10 0
4.09502e-09 -5.35293e-10 0
4.01444e-09 -3.68007e-10 0
3.9569e-09 -2.51469e-10 0
3.91628e-09 -1.71025e-10 0
3.88787e-09 -1.15871e-10 0
3.86816e-09 -7.82455e-11 0
3.85458e-09 -5.26695e-11 0
3.84529e-09 -3.53278e-11 0
3.839e-09 -2.35862e-11 0
3.8348e-09 -1.56389e-11 0
3.83205e-09 -1.026e-11 0
3.83033e-09 -6.62988e-12 0
3.82938e-09 -4.2124e-12 0
3.829e-09 -2.6667e-12 0
3.8291e-09 -1.79371e-12 0
3.82963e-09 -1.52132e-12 0
3.83043e-09 -1.98105e-12 0
3.83093e-09 -3.18068e-12 0
0.0093973 4.71524e-08 0
0 -5.48907e-07 0
1.49284e-12 -2.44438e-09 0
-8.85455e-10 -6.43447e-09 0
-1.59455e-09 -9.00454e-09 0
-6.53237e-09 -8.64999e-09 0
-1.32194e-08 -4.34461e-09 0
-1.35729e-08 -3.51097e-10 0
-7.95363e-09 3.57895e-10 0
-6.2585e-11 5.43377e-11 0
5.75526e-11 4.9961e-11 0
3.32546e-12 -1.10481e-08 0
-1.65428e-08 -2.45033e-08 0
-3.18149e-08 -1.95675e-08 0
-3.87664e-08 -3.86151e-09 0
-3.57504e-08 9.67878e-09 0
-2.57025e-08 1.6322e-08 0
-1.55805e-08 1.60936e-08 0
-9.76087e-09 1.0979e-08 0
-7.4509e-09 4.10987e-09 0
-6.25386e-09 -1.71402e-09 0
-5.22167e-09 -5.26972e-09 0
-4.65596e-09 -6.71888e-09 0
-4.89661e-09 -6.75299e-09 0
-5.85669e-09 -6.02453e-09 0
-7.19881e-09 -4.98716e-09 0
-8.59463e-09 -3.91536e-09 0
-9.83968e-09 -2.95445e-09 0
-1.08512e-08 -2.16341e-09 0
-1.16248e-08 -1.54881e-09 0
-1.21928e-08 -1.09047e-09 0
-1.25987e-08 -7.58496e-10 0
-1.28834e-08 -5.22991e-10 0
-1.30806e-08 -3.58332e-10 0
-1.32161e-08 -2.44363e-10 0
-1.33086e-08 -1.6603e-10 0
-1.33715e-08 -1.12455e-10 0
-1.34142e-08 -7.59453e-11 0
-1.3443e-08 -5.11346e-11 0
-1.34625e-08 -3.43131e-11 0
-1.34755e-08 -2.29316e-11 0
-1.34842e-08 -1.52481e-11 0
-1.349e-08 -1.00788e-11 0
-1.34937e-08 -6.62496e-12 0
-1.34961e-08 -4.35374e-12 0
-1.34975e-08 -2.91844e-12 0
-1.34983e-08 -2.11066e-12 0
-1.34987e-08 -1.84203e-12 0
-1.34987e-08 -2.15555e-12 0
-1.34987e-08 -3.32787e-12 0
-1.34991e-08 -5.57878e-12 0
0.00902112 6.70349e-08 0
0 -4.65582e-07 0
1.46602e-12 -1.27519e-09 0
-2.75464e-12 -3.58653e-09 0
-1.93449e-09 -5.45064e-09 0
-8.52515e-09 -5.63754e-09 0
-1.71247e-08 -1.37587e-09 0
-1.99456e-08 3.04703e-09 0
-1.81725e-08 -2.65033e-09 0
-1.16433e-08 -4.57502e-09 0
-9.61794e-09 1.53425e-13 0
-9.55188e-09 -5.09532e-09 0
-2.34102e-08 -9.14427e-09 0
-3.98691e-08 -2.77022e-09 0
-4.53491e-08 7.02497e-09 0
-3.6698e-08 1.22545e-08 0
-2.05397e-08 1.09398e-08 0
-7.71741e-09 5.76457e-09 0
-3.95916e-09 7.22183e-11 0
-7.08646e-09 -3.83188e-09 0
-1.22528e-08 -5.30847e-09 0
-1.66741e-08 -5.07464e-09 0
-1.99527e-08 -4.1695e-09 0
-2.25373e-08 -3.24029e-09 0
-2.47632e-08 -2.49383e-09 0
-2.67129e-08 -1.92361e-09 0
-2.83605e-08 -1.47967e-09 0
-2.96846e-08 -1.12651e-09 0
-3.0701e-08 -8.45273e-10 0
-3.14536e-08 -6.24557e-10 0
-3.19961e-08 -4.54887e-10 0
-3.23798e-08 -3.27125e-10 0
-3.26476e-08 -2.32661e-10 0
-3.28327e-08 -1.63887e-10 0
-3.296e-08 -1.14461e-10 0
-3.3047e-08 -7.93268e-11 0
-3.31063e-08 -5.45863e-11 0
-3.31465e-08 -3.73081e-11 0
-3.31737e-08 -2.53303e-11 0
-3.31921e-08 -1.70831e-11 0
-3.32043e-08 -1.14421e-11 0
-3.32125e-08 -7.61165e-12 0
-3.32179e-08 -5.03544e-12 0
-3.32214e-08 -3.33018e-12 0
-3.32236e-08 -2.23962e-12 0
-3.32251e-08 -1.60434e-12 0
-3.3226e-08 -1.34334e-12 0
-3.32267e-08 -1.45459e-12 0
-3.32272e-08 -2.0169e-12 0
-3.32281e-08 -3.25409e-12 0
-3.32299e-08 -5.41812e-12 0
0.00800236 5.47517e-08 0
0 -4.80141e-07 0
2.87238e-12 -1.88907e-10 0
4.98732e-10 -8.07055e-10 0
-2.27611e-09 -1.5789e-09 0
-9.87826e-09 -1.82344e-09 0
-1.94976e-08 -1.26538e-09 0
-2.3316e-08 6.14104e-10 0
-2.1669e-08 -6.13138e-10 0
-2.50839e-08 -2.35825e-09 0
-2.32303e-08 -2.47119e-10 0
-2.11605e-08 2.06734e-09 0
-2.55608e-08 4.60393e-09 0
-3.00698e-08 6.19485e-09 0
-2.82811e-08 5.70046e-09 0
-1.88214e-08 3.83794e-09 0
-7.42022e-09 9.98118e-10 0
-1.7846e-09 -2.02968e-09 0
-4.42012e-09 -3.89634e-09 0
-1.17671e-08 -3.95615e-09 0
-1.91391e-08 -2.81954e-09 0
-2.43277e-08 -1.51212e-09 0
-2.74153e-08 -6.21647e-10 0
-2.92351e-08 -2.05358e-10 0
-3.04518e-08 -8.76308e-11 0
-3.13931e-08 -9.3998e-11 0
-3.21724e-08 -1.24575e-10 0
-3.2817e-08 -1.41578e-10 0
-3.33353e-08 -1.39566e-10 0
-3.37385e-08 -1.24445e-10 0
-3.40431e-08 -1.03425e-10 0
-3.42679e-08 -8.17119e-11 0
-3.44306e-08 -6.21762e-11 0
-3.45466e-08 -4.59724e-11 0
-3.46284e-08 -3.32334e-11 0
-3.46854e-08 -2.35897e-11 0
-3.47248e-08 -1.64909e-11 0
-3.47519e-08 -1.1377e-11 0
-3.47702e-08 -7.75595e-12 0
-3.47826e-08 -5.22889e-12 0
-3.47909e-08 -3.4881e-12 0
-3.47964e-08 -2.30482e-12 0
-3.48e-08 -1.51421e-12 0
-3.48023e-08 -1.00144e-12 0
-3.48037e-08 -6.91135e-13 0
-3.48047e-08 -5.4057e-13 0
-3.48054e-08 -5.33619e-13 0
-3.4806e-08 -6.83442e-13 0
-3.48068e-08 -1.00785e-12 0
-3.48082e-08 -1.50991e-12 0
-3.48107e-08 -2.34545e-12 0
0.00557535 2.01762e-08 0
0 0 0
2.06111e-12 0 0
3.20827e-10 0 0
-1.11849e-09 0 0
-4.69595e-09 0 0
-9.3338e-09 0 0
-1.21942e-08 0 0
-1.14498e-08 0 0
-1.34447e-08 0 0
-1.36128e-08 0 0
-1.16054e-08 0 0
-9.03241e-09 0 0
-6.46932e-09 0 0
-4.1364e-09 0 0
-1.57059e-09 0 0
3.29924e-10 0 0
-1.47778e-11 0 0
-2.76575e-09 0 0
-6.44053e-09 0 0
-9.48903e-09 0 0
-1.13519e-08 0 0
-1.22639e-08 0 0
-1.26621e-08 0 0
-1.28611e-08 0 0
-1.30097e-08 0 0
-1.31534e-08 0 0
-1.32941e-08 0 0
-1.34231e-08 0 0
-1.35334e-08 0 0
-1.36228e-08 0 0
-1.36921e-08 0 0
-1.37443e-08 0 0
-1.37824e-08 0 0
-1.38098e-08 0 0
-1.38292e-08 0 0
-1.38427e-08 0 0
-1.38519e-08 0 0
-1.38582e-08 0 0
-1.38625e-08 0 0
-1.38653e-08 0 0
-1.38671e-08 0 0
-1.38683e-08 0 0
-1.3869e-08 0 0
-1.38695e-08 0 0
-1.38698e-08 0 0
-1.387e-08 0 0
-1.38703e-08 0 0
-1.38707e-08 0 0
-1.38713e-08 0 0
-1.38725e-08 0 0
0.00194081 0 0
0 0 5.3652e-07
2.89061e-13 0 1.83556e-10
5.00367e-10 0 1.25663e-09
4.60595e-09 0 5.94807e-09
-1.41544e-08 0 2.82873e-09
7.10105e-09 0 -2.86058e-09
1.30841e-08 0 -8.76222e-10
1.27289e-08 0 7.49568e-11
1.25109e-08 0 6.06924e-10
1.34603e-08 0 1.59777e-09
1.5526e-08 0 2.62643e-09
1.85848e-08 0 2.60112e-09
2.11629e-08 0 1.50852e-09
2.05992e-08 0 4.68368e-10
1.56001e-08 0 8.80014e-11
7.9439e-09 0 2.58667e-11
4.42622e-10 0 -3.63182e-11
-5.61662e-09 0 -1.27667e-11
-1.06393e-08 0 2.04079e-10
-1.54033e-08 0 5.22675e-10
-2.01799e-08 0 7.75894e-10
-2.47435e-08 0 8.70967e-10
-2.8735e-08 0 8.15933e-10
-3.19244e-08 0 6.71404e-10
-3.42744e-08 0 5.0035e-10
-3.58854e-08 0 3.44189e-10
-3.69177e-08 0 2.20937e-10
-3.75341e-08 0 1.32777e-10
-3.78714e-08 0 7.42511e-11
-3.80329e-08 0 3.77733e-11
-3.80906e-08 0 1.63738e-11
-3.80918e-08 0 4.6486e-12
-3.8066e-08 0 -1.20096e-12
-3.80302e-08 0 -3.67474e-12
-3.79937e-08 0 -4.33331e-12
-3.79611e-08 0 -4.10448e-12
-3.79338e-08 0 -3.51159e-12
-3.79121e-08 0 -2.83105e-12
-3.78954e-08 0 -2.19503e-12
-3.78828e-08 0 -1.65577e-12
-3.78735e-08 0 -1.22383e-12
-3.78668e-08 0 -8.90098e-13
-3.78619e-08 0 -6.38209e-13
-3.78585e-08 0 -4.5049e-13
-3.78562e-08 0 -3.1064e-13
-3.78546e-08 0 -2.07736e-13
-3.78537e-08 0 -1.36747e-13
-3.78534e-08 0 -1.24054e-13
-3.78538e-08 0 -1.3251e-13
-3.78555e-08 0 4.22753e-13
0.00551482 0 -2.49692e-09
0.0036 -3.08308e-07 -6.27903e-08
0.0035998 -0.00138861 -2.29803e-05
0.0067106 -0.00392597 0.000107845
0.0136109 -0.00589761 -0.000522258
0.023519 -0.0144454 -0.00428589
0.0463261 -0.0133576 -0.0048797
0.0498366 -0.00190331 -0.0016433
0.0495733 0.00265728 -0.000163798
0.0445834 0.00498386 0.000567115
0.0389752 0.00515195 0.000548519
0.0338662 0.00448499 0.000272001
0.029566 0.00360112 -6.92016e-06
0.0261528 0.00272253 -0.000199954
0.0235686 0.00194453 -0.000292375
0.021659 0.00132209 -0.000300811
0.0202462 0.000873884 -0.000252466
0.0191885 0.00057994 -0.000177674
0.018392 0.000397533 -0.000103471
0.0177969 0.000282887 -4.65471e-05
0.0173612 0.000205001 -1.13072e-05
0.0170515 0.000147384 6.01031e-06
0.016839 0.0001031 1.18136e-05
0.0166987 6.94248e-05 1.16929e-05
0.0166099 4.47483e-05 9.30552e-06
0.0165564 2.74751e-05 6.57503e-06
0.0165258 1.59367e-05 4.28703e-06
0.0165095 8.57865e-06 2.62508e-06
0.0165019 4.10736e-06 1.51891e-06
0.016499 1.53646e-06 8.27561e-07
0.0164987 1.61786e-07 4.174e-07
0.0164996 -4.93851e-07 1.85955e-07
0.0165009 -7.39783e-07 6.26431e-08
0.0165023 -7.68359e-07 1.9347e-09
0.0165035 -6.94027e-07 -2.41694e-08
0.0165045 -5.81393e-07 -3.22066e-08
0.0165053 -4.64409e-07 -3.15653e-08
0.0165059 -3.58976e-07 -2.73421e-08
0.0165064 -2.70907e-07 -2.21457e-08
0.0165067 -2.00778e-07 -1.71957e-08
0.0165069 -1.46747e-07 -1.29689e-08
0.0165071 -1.06119e-07 -9.5688e-09
0.0165073 -7.61492e-08 -6.93353e-09
0.0165073 -5.44084e-08 -4.94576e-09
0.0165074 -3.89112e-08 -3.47954e-09
0.0165075 -2.81393e-08 -2.42552e-09
0.0165075 -2.0966e-08 -1.62061e-09
0.0165075 -1.66539e-08 -7.44884e-10
0.0165075 -1.4903e-08 1.32185e-09
0.0165076 -1.84639e-08 5.16807e-09
0.0165076 -4.79879e-08 -1.59678e-09
0.0165077 -7.37092e-08 -1.06494e-08
0.01 -1.38779e-07 -1.45828e-06
0.0100007 -0.00298873 -0.000599795
0.0147866 -0.00995476 -0.000792108
0.0241694 -0.0177264 -0.00124784
0.0385402 -0.0325159 -0.0033524
0.059204 -0.024818 -0.000820712
0.0564476 -0.00272191 0.00317293
0.0558837 0.00510544 0.00338586
0.0500992 0.0100912 0.00300186
0.044621 0.0102485 0.00209983
0.0401164 0.00918063 0.00114057
0.0364043 0.00776723 0.00038949
0.0334327 0.00627994 -0.000128622
0.0311564 0.00489276 -0.000426148
0.0294162 0.00371628 -0.000522885
0.0280643 0.00277678 -0.000471697
0.0270117 0.00204694 -0.000345375
0.0262079 0.0014873 -0.000209051
0.0256141 0.00106268 -0.00010108
0.0251917 0.000744292 -3.22316e-05
0.0249029 0.000508972 3.42554e-06
0.0247138 0.000338313 1.71996e-05
0.0245962 0.00021758 1.92166e-05
0.0245275 0.000134702 1.62783e-05
0.0244906 7.97088e-05 1.2101e-05
0.0244733 4.45359e-05 8.31777e-06
0.0244674 2.29226e-05 5.42214e-06
0.0244674 1.02358e-05 3.39847e-06
0.0244702 3.2037e-06 2.06331e-06
0.0244738 -3.87628e-07 1.21733e-06
0.0244775 -1.97824e-06 6.97905e-07
0.0244807 -2.47022e-06 3.87545e-07
0.0244833 -2.40674e-06 2.06903e-07
0.0244854 -2.10044e-06 1.0465e-07
0.024487 -1.7212e-06 4.86201e-08
0.0244882 -1.35385e-06 1.91691e-08
0.024489 -1.03479e-06 4.58152e-09
0.0244897 -7.74456e-07 -1.96921e-09
0.0244901 -5.70493e-07 -4.36162e-09
0.0244904 -4.15196e-07 -4.73542e-09
0.0244907 -2.99452e-07 -4.22639e-09
0.0244908 -2.14646e-07 -3.4121e-09
0.0244909 -1.53456e-07 -2.57728e-09
0.024491 -1.10033e-07 -1.83798e-09
0.0244911 -7.99777e-08 -1.23011e-09
0.0244911 -6.02099e-08 -5.86888e-10
0.0244911 -4.91491e-08 6.73347e-10
0.0244912 -4.98487e-08 3.47508e-09
0.0244912 -7.01774e-08 6.6928e-09
0.0244913 -1.28503e-07 -9.95725e-09
0.0244914 -1.7065e-07 -2.79115e-08
0.0148 -9.62752e-07 -1.75115e-06
0.0148024 -0.00529466 -0.00112767
0.0203811 -0.0164211 -0.00244521
0.0275384 -0.0288125 -0.0039403
0.0321819 -0.046175 -0.00576796
0.0306545 -0.0285087 -0.00141726
0.0268746 -1.23488e-05 0.00329534
0.0263159 0.00706954 0.00352134
0.0298276 0.0144405 0.0034315
0.0301769 0.0138881 0.00245744
0.0293719 0.0121235 0.00148061
0.0285406 0.0102862 0.000635502
0.0279111 0.00839618 3.07195e-05
0.0275937 0.00660999 -0.000323205
0.0274666 0.0050792 -0.000442537
0.0274323 0.00381393 -0.000399585
0.0274471 0.00278877 -0.000281209
0.0274915 0.00198331 -0.000154574
0.0275513 0.00137408 -5.55436e-05
0.0276153 0.000928604 6.07508e-06
0.0276769 0.000610956 3.54451e-05
0.0277337 0.000389111 4.31363e-05
0.0277847 0.000237718 3.92677e-05
0.0278295 0.000137437 3.10312e-05
0.0278678 7.34729e-05 2.24773e-05
0.0278993 3.45243e-05 1.53412e-05
0.0279245 1.21478e-05 1.00262e-05
0.0279439 2.73296e-07 6.33609e-06
0.0279586 -5.27044e-06 3.89414e-06
0.0279693 -7.21857e-06 2.33449e-06
0.027977 -7.28129e-06 1.36632e-06
0.0279825 -6.4751e-06 7.7996e-07
0.0279863 -5.3691e-06 4.32946e-07
0.0279889 -4.25728e-06 2.3229e-07
0.0279908 -3.27265e-06 1.19121e-07
0.027992 -2.45957e-06 5.71072e-08
0.0279929 -1.81734e-06 2.43263e-08
0.0279935 -1.32542e-06 7.83648e-09
0.0279939 -9.56968e-07 1.61146e-10
0.0279941 -6.85651e-07 -2.9193e-09
0.0279943 -4.88547e-07 -3.72168e-09
0.0279945 -3.47005e-07 -3.48035e-09
0.0279945 -2.46526e-07 -2.84084e-09
0.0279946 -1.76247e-07 -2.09441e-09
0.0279946 -1.28366e-07 -1.30343e-09
0.0279947 -9.81601e-08 -3.18202e-10
0.0279947 -8.397e-08 1.44954e-09
0.0279947 -8.80675e-08 3.51704e-09
0.0279948 -1.15164e-07 3.07289e-10
0.0279948 -1.61756e-07 -2.6574e-08
0.0279948 -1.88485e-07 -4.93736e-08
0.018 -1.94028e-06 -1.70142e-06
0.018003 -0.00699533 -0.00187781
0.0207735 -0.0189837 -0.00492284
0.0207234 -0.0249667 -0.00633588
0.0160881 -0.0269971 -0.00762222
-1.60649e-06 -0.0140284 -0.00433238
9.7496e-05 2.63224e-05 9.2352e-07
-3.33743e-05 3.47267e-05 0.000653627
0.00658205 0.00409801 0.0014361
0.0134698 0.00931127 0.00140184
0.0168921 0.0101455 0.000989228
0.018662 0.00918432 0.000445695
0.0203508 0.00762153 -4.35215e-05
0.0220411 0.00594404 -0.000309182
0.023569 0.00448594 -0.000369146
0.0248682 0.00327349 -0.000310375
0.0259405 0.00229197 -0.000207594
0.0268069 0.00153574 -0.000105508
0.0274886 0.000987169 -2.53143e-05
0.0280084 0.00060921 2.61305e-05
0.0283932 0.000357709 5.08135e-05
0.0286719 0.000194474 5.57809e-05
0.0288709 9.16308e-05 4.94335e-05
0.0290114 2.98943e-05 3.86848e-05
0.0291098 -4.31875e-06 2.78316e-05
0.0291777 -2.08075e-05 1.8836e-05
0.0292241 -2.6574e-05 1.21652e-05
0.0292552 -2.64127e-05 7.56566e-06
0.0292757 -2.34073e-05 4.55471e-06
0.0292892 -1.93963e-05 2.66076e-06
0.0292978 -1.53757e-05 1.5081e-06
0.0293034 -1.18129e-05 8.26901e-07
0.0293069 -8.86889e-06 4.35559e-07
0.0293091 -6.54367e-06 2.17278e-07
0.0293105 -4.76391e-06 9.95516e-08
0.0293113 -3.43237e-06 3.86863e-08
0.0293119 -2.45303e-06 9.04491e-09
0.0293122 -1.74209e-06 -4.03091e-09
0.0293124 -1.23123e-06 -8.70233e-09
0.0293126 -8.67132e-07 -9.37894e-09
0.0293126 -6.09444e-07 -8.35415e-09
0.0293127 -4.28282e-07 -6.76324e-09
0.0293127 -3.01932e-07 -5.13314e-09
0.0293128 -2.14982e-07 -3.64818e-09
0.0293128 -1.5695e-07 -2.29398e-09
0.0293128 -1.21231e-07 -1.09505e-09
0.0293128 -1.03919e-07 1.95419e-11
0.0293128 -1.01268e-07 -1.40021e-10
0.0293128 -1.10303e-07 -1.06942e-08
0.0293128 -1.17239e-07 -4.17336e-08
0.0293127 -1.16915e-07 -6.29536e-08
0.0196 -2.81333e-06 -2.56787e-06
0.019601 -0.00590261 -0.00274463
0.0190586 -0.0131701 -0.00647714
0.0159498 -0.0161893 -0.00668364
0.0109027 -0.0151685 -0.00668713
0.00173456 -0.00624962 -0.00504126
7.26061e-05 -6.66684e-05 -0.00130278
3.32941e-05 -3.32941e-05 -4.12039e-08
-3.27666e-05 3.39819e-05 0.000258603
0.00393116 0.00278063 0.000551228
0.00901203 0.0065153 0.000480899
0.0119314 0.00681984 0.00013046
0.0151792 0.00533693 -0.000251116
0.0183332 0.00385488 -0.000409487
0.0210341 0.00269918 -0.00039893
0.0232199 0.00178734 -0.000316098
0.0249481 0.00107011 -0.000218315
0.0262932 0.000545061 -0.000128303
0.0273155 0.000202623 -5.41436e-05
0.0280669 6.55498e-06 -7.26935e-07
0.0285995 -9.08424e-05 3.00866e-05
0.0289652 -0.000129824 4.14039e-05
0.0292098 -0.000136832 3.98278e-05
0.02937 -0.000127278 3.21648e-05
0.0294729 -0.000110039 2.32303e-05
0.0295377 -9.03888e-05 1.54867e-05
0.0295777 -7.14192e-05 9.70498e-06
0.0296018 -5.47421e-05 5.77671e-06
0.029616 -4.09679e-05 3.28123e-06
0.0296242 -3.009e-05 1.77715e-06
0.0296287 -2.17801e-05 9.10706e-07
0.0296311 -1.55886e-05 4.32709e-07
0.0296324 -1.10615e-05 1.81052e-07
0.0296329 -7.79813e-06 5.60405e-08
0.0296332 -5.47075e-06 -9.68445e-10
0.0296332 -3.82412e-06 -2.31571e-08
0.0296332 -2.66606e-06 -2.86072e-08
0.0296332 -1.85526e-06 -2.67781e-08
0.0296331 -1.28953e-06 -2.23769e-08
0.0296331 -8.95917e-07 -1.75834e-08
0.029633 -6.2279e-07 -1.32831e-08
0.029633 -4.33893e-07 -9.73999e-09
0.029633 -3.03968e-07 -6.95764e-09
0.029633 -2.15577e-07 -4.85035e-09
0.029633 -1.56715e-07 -3.37293e-09
0.0296329 -1.1863e-07 -2.65826e-09
0.0296329 -9.42644e-08 -2.88356e-09
0.0296329 -7.62565e-08 -4.78607e-09
0.0296329 -5.68268e-08 -1.82409e-08
0.0296328 -2.12986e-08 -4.70296e-08
0.0296327 3.25417e-09 -6.39108e-08
0.0196 -1.35388e-06 -3.57989e-06
0.0195999 -0.00368522 -0.00312588
0.0187712 -0.00808529 -0.00651678
0.0175221 -0.0081065 -0.00605109
0.0132042 -0.00427175 -0.00554504
0.00910694 0.00259753 -0.00532791
0.00615247 0.00316421 -0.00310756
7.27744e-05 -6.05624e-05 -0.000668257
2.77957e-05 -2.77957e-05 -1.27198e-07
-3.22285e-05 3.33048e-05 9.34628e-05
0.00273948 0.00197932 0.000357348
0.00706896 0.00311377 0.00026045
0.0123545 0.00155983 -0.000157406
0.0169973 0.00051406 -0.000337739
0.0205994 -3.7463e-06 -0.00034222
0.0232751 -0.000321278 -0.000280408
0.025236 -0.000552804 -0.000211689
0.0266553 -0.000689584 -0.000150505
0.0276556 -0.000717407 -9.52829e-05
0.0283313 -0.000658641 -4.79035e-05
0.0287649 -0.000555197 -1.35815e-05
0.0290286 -0.000442467 5.6746e-06
0.0291804 -0.000339887 1.27469e-05
0.0292628 -0.000254437 1.26464e-05
0.0293043 -0.000186684 9.66525e-06
0.0293228 -0.000134696 6.33373e-06
0.0293293 -9.58233e-05 3.69062e-06
0.0293298 -6.7386e-05 1.92281e-06
0.0293277 -4.69636e-05 8.71353e-07
0.029325 -3.25153e-05 3.06042e-07
0.0293223 -2.24108e-05 3.39013e-08
0.0293199 -1.54032e-05 -7.73307e-08
0.0293181 -1.05711e-05 -1.08153e-07
0.0293166 -7.25092e-06 -1.03371e-07
0.0293156 -4.97397e-06 -8.59293e-08
0.0293148 -3.41369e-06 -6.64964e-08
0.0293142 -2.34453e-06 -4.93404e-08
0.0293138 -1.61164e-06 -3.56595e-08
0.0293135 -1.10901e-06 -2.53361e-08
0.0293133 -7.64193e-07 -1.77966e-08
0.0293131 -5.27679e-07 -1.23948e-08
0.029313 -3.65626e-07 -8.57367e-09
0.029313 -2.54833e-07 -5.93716e-09
0.0293129 -1.79177e-07 -4.23692e-09
0.0293129 -1.27071e-07 -3.39078e-09
0.0293128 -8.95759e-08 -3.41893e-09
0.0293128 -5.91522e-08 -4.33613e-09
0.0293128 -2.80831e-08 -6.3895e-09
0.0293127 1.43758e-08 -1.76227e-08
0.0293127 8.10694e-08 -4.01942e-08
0.0293126 1.22054e-07 -5.29084e-08
0.018 -8.64056e-07 -3.57053e-06
0.0180009 -0.00200731 -0.00304842
0.018319 -0.00386997 -0.00615754
0.0183789 -0.0026521 -0.00528637
0.0173669 0.000650465 -0.00420013
0.0170934 0.0070964 -0.00396638
0.0178293 0.0125895 -0.00299351
0.0109538 0.00693218 -0.00148688
7.42561e-05 -4.68687e-05 -0.000433063
-2.52802e-05 -5.45605e-05 5.56115e-07
7.88484e-06 -0.000687636 0.000744337
0.00831111 -0.00281336 0.00108277
0.0156548 -0.0043748 0.000457078
0.0206578 -0.00407186 0.000152101
0.0238307 -0.0032488 3.65391e-05
0.0258115 -0.00254662 -1.55296e-05
0.0270351 -0.00205176 -5.74585e-05
0.0277613 -0.00167337 -9.08265e-05
0.0281519 -0.00133673 -0.00010198
0.0283217 -0.00102613 -8.94296e-05
0.0283586 -0.000756243 -6.47883e-05
0.0283268 -0.000539717 -4.0593e-05
0.0282681 -0.000376756 -2.29737e-05
0.0282059 -0.000259199 -1.23023e-05
0.0281511 -0.000176592 -6.55838e-06
0.0281073 -0.000119513 -3.64866e-06
0.0280742 -8.05361e-05 -2.17354e-06
0.0280501 -5.41495e-05 -1.37893e-06
0.028033 -3.63925e-05 -9.08948e-07
0.028021 -2.44835e-05 -6.07156e-07
0.0280128 -1.65054e-05 -4.043e-07
0.0280071 -1.11564e-05 -2.66235e-07
0.0280032 -7.56231e-06 -1.72918e-07
0.0280006 -5.14035e-06 -1.10801e-07
0.0279987 -3.50294e-06 -7.01586e-08
0.0279975 -2.39241e-06 -4.39961e-08
0.0279966 -1.63705e-06 -2.73891e-08
0.027996 -1.12202e-06 -1.6967e-08
0.0279956 -7.70205e-07 -1.04835e-08
0.0279953 -5.29578e-07 -6.47629e-09
0.0279952 -3.64868e-07 -4.01434e-09
0.027995 -2.51993e-07 -2.52869e-09
0.0279949 -1.74292e-07 -1.70791e-09
0.0279949 -1.19965e-07 -1.38223e-09
0.0279948 -8.02978e-08 -1.48727e-09
0.0279948 -4.83535e-08 -1.97531e-09
0.0279947 -1.78657e-08 -2.75353e-09
0.0279947 1.78676e-08 -3.9063e-09
0.0279947 6.99539e-08 -9.80957e-09
0.0279947 1.46002e-07 -2.48376e-08
0.0279947 1.90054e-07 -3.46683e-08
0.0148 -4.85129e-07 -3.16329e-06
0.0148015 -0.00103368 -0.00282726
0.0162326 -0.00163726 -0.0054225
0.0178035 -1.31432e-05 -0.00429213
0.0191401 0.00319712 -0.00307632
0.0208909 0.00737118 -0.00285508
0.0247089 0.0129808 -0.00241208
0.0280009 0.0195189 -0.0015094
0.02302 0.011303 -0.000338496
0.0234682 8.66902e-11 0.000626605
0.0266115 -0.0066955 0.00155809
0.0300612 -0.0130788 0.00210736
0.0309313 -0.0110253 0.00164187
0.0303856 -0.00773208 0.00115686
0.0293863 -0.00512793 0.000718683
0.0283734 -0.00341613 0.00036555
0.0274927 -0.00233086 0.000108589
0.0267672 -0.00160854 -5.14574e-05
0.0261832 -0.00109697 -0.000122222
0.0257228 -0.000729516 -0.000127856
0.0253689 -0.000474224 -0.000101094
0.0251047 -0.000304966 -6.78311e-05
0.0249131 -0.00019652 -4.07884e-05
0.0247776 -0.000127922 -2.27456e-05
0.0246839 -8.432e-05 -1.20407e-05
0.0246201 -5.62193e-05 -6.14474e-06
0.0245772 -3.78277e-05 -3.04807e-06
0.0245487 -2.56297e-05 -1.47029e-06
0.0245296 -1.74554e-05 -6.82864e-07
0.024517 -1.19342e-05 -2.96873e-07
0.0245086 -8.1824e-06 -1.11939e-07
0.024503 -5.62131e-06 -2.6695e-08
0.0244992 -3.86696e-06 9.72175e-09
0.0244966 -2.66225e-06 2.27349e-08
0.0244949 -1.83358e-06 2.49983e-08
0.0244937 -1.263e-06 2.27461e-08
0.0244929 -8.69938e-07 1.89789e-08
0.0244924 -5.99153e-07 1.50721e-08
0.024492 -4.12654e-07 1.15922e-08
0.0244917 -2.84235e-07 8.71286e-09
0.0244916 -1.95744e-07 6.42759e-09
0.0244914 -1.34514e-07 4.65277e-09
0.0244914 -9.15701e-08 3.27538e-09
0.0244913 -6.03744e-08 2.2019e-09
0.0244913 -3.58742e-08 1.35121e-09
0.0244912 -1.37871e-08 7.00473e-10
0.0244912 1.01008e-08 3.68124e-10
0.0244912 4.00268e-08 2.41182e-10
0.0244912 8.21673e-08 -1.09692e-09
0.0244912 1.37961e-07 -1.1015e-08
0.0244913 1.68608e-07 -1.9662e-08
0.01 -9.26352e-07 -2.86503e-06
0.0100008 -0.00063355 -0.00230237
0.0113255 -0.000708267 -0.00414229
0.0132 0.000560875 -0.00291482
0.015654 0.0025325 -0.00182458
0.0195761 0.00557827 -0.00183535
0.0255038 0.00836715 -0.00237629
0.0346095 0.0101217 -0.00209597