# vtk DataFile Version 2.0
Tobias Weinzierl: CPU, Manycore and Cluster Computing
ASCII

DATASET STRUCTURED_POINTS
DIMENSIONS  51 11 6

ORIGIN 0 0 0 

SPACING 0.1 0.1 0.1 

POINT_DATA 3366

VECTORS velocity float
0 0 0
-6.63527e-11 0 0
-1.83942e-07 0 0
-2.38201e-07 0 0
-2.06184e-07 0 0
-1.03923e-07 0 0
-1.35423e-07 0 0
-1.8627e-07 0 0
-2.2075e-07 0 0
-2.29528e-07 0 0
-2.24172e-07 0 0
-2.18477e-07 0 0
-2.16204e-07 0 0
-2.16709e-07 0 0
-2.18807e-07 0 0
-2.21476e-07 0 0
-2.24063e-07 0 0
-2.26269e-07 0 0
-2.28022e-07 0 0
-2.29361e-07 0 0
-2.30361e-07 0 0
-2.311e-07 0 0
-2.31644e-07 0 0
-2.32047e-07 0 0
-2.32347e-07 0 0
-2.32572e-07 0 0
-2.32745e-07 0 0
-2.32878e-07 0 0
-2.32982e-07 0 0
-2.33065e-07 0 0
-2.33133e-07 0 0
-2.33189e-07 0 0
-2.33235e-07 0 0
-2.33275e-07 0 0
-2.33309e-07 0 0
-2.33338e-07 0 0
-2.33363e-07 0 0
-2.33386e-07 0 0
-2.33405e-07 0 0
-2.33423e-07 0 0
-2.33438e-07 0 0
-2.33451e-07 0 0
-2.33462e-07 0 0
-2.33471e-07 0 0
-2.3348e-07 0 0
-2.33487e-07 0 0
-2.33493e-07 0 0
-2.33499e-07 0 0
-2.33507e-07 0 0
-2.33522e-07 0 0
0.00394129 0 0
0 1.77579e-07 0
-1.20578e-10 1.20707e-07 0
-3.63768e-07 1.7538e-07 0
-4.40237e-07 7.84717e-08 0
-3.43171e-07 2.57516e-09 0
-1.33087e-07 2.59415e-08 0
-1.55792e-07 9.02573e-08 0
-2.25488e-07 6.53796e-08 0
-2.5884e-07 2.77023e-08 0
-2.79283e-07 2.73541e-09 0
-2.81709e-07 -4.56864e-09 0
-2.90862e-07 -1.41008e-09 0
-3.05585e-07 2.44184e-09 0
-3.2051e-07 4.64376e-09 0
-3.33745e-07 5.47705e-09 0
-3.44632e-07 5.33643e-09 0
-3.53068e-07 4.64942e-09 0
-3.59327e-07 3.7759e-09 0
-3.63843e-07 2.93096e-09 0
-3.67052e-07 2.20951e-09 0
-3.69319e-07 1.63479e-09 0
-3.70923e-07 1.1957e-09 0
-3.72067e-07 8.68756e-10 0
-3.72892e-07 6.29099e-10 0
-3.73496e-07 4.55e-10 0
-3.73944e-07 3.29112e-10 0
-3.74284e-07 2.38249e-10 0
-3.74545e-07 1.72669e-10 0
-3.7475e-07 1.25291e-10 0
-3.74913e-07 9.10138e-11 0
-3.75046e-07 6.61753e-11 0
-3.75155e-07 4.81496e-11 0
-3.75247e-07 3.50511e-11 0
-3.75325e-07 2.55231e-11 0
-3.75392e-07 1.85873e-11 0
-3.7545e-07 1.35359e-11 0
-3.75501e-07 9.8561e-12 0
-3.75546e-07 7.17599e-12 0
-3.75585e-07 5.22574e-12 0
-3.75619e-07 3.81048e-12 0
-3.75649e-07 2.79124e-12 0
-3.75675e-07 2.07255e-12 0
-3.75698e-07 1.59608e-12 0
-3.75717e-07 1.34111e-12 0
-3.75733e-07 1.33487e-12 0
-3.75747e-07 1.68623e-12 0
-3.7576e-07 2.70214e-12 0
-3.75772e-07 5.20909e-12 0
-3.75785e-07 1.1467e-11 0
-3.75808e-07 2.71139e-11 0
0.00942366 -2.6807e-07 0
0 2.22623e-08 0
-8.48001e-11 1.60193e-07 0
-3.46338e-07 2.15574e-07 0
-3.6585e-07 8.90829e-08 0
-1.863e-07 2.90249e-09 0
-1.47711e-07 7.14687e-09 0
-1.88651e-07 6.89448e-08 0
-2.55468e-07 1.37038e-08 0
-1.5365e-07 -1.00309e-08 0
-1.17487e-07 2.32953e-08 0
-1.13313e-07 4.31396e-08 0
-1.32989e-07 5.48543e-08 0
-1.61283e-07 4.99983e-08 0
-1.85357e-07 3.89492e-08 0
-2.04171e-07 2.89583e-08 0
-2.18187e-07 2.11195e-08 0
-2.28166e-07 1.5155e-08 0
-2.35042e-07 1.07295e-08 0
-2.39695e-07 7.52631e-09 0
-2.42827e-07 5.2541e-09 0
-2.44946e-07 3.66453e-09 0
-2.46396e-07 2.56114e-09 0
-2.47407e-07 1.79727e-09 0
-2.48126e-07 1.26778e-09 0
-2.48649e-07 8.99292e-10 0
-2.49038e-07 6.41419e-10 0
-2.49334e-07 4.59806e-10 0
-2.49564e-07 3.31075e-10 0
-2.49747e-07 2.39272e-10 0
-2.49894e-07 1.73446e-10 0
-2.50015e-07 1.26026e-10 0
-2.50117e-07 9.17333e-11 0
-2.50203e-07 6.68576e-11 0
-2.50277e-07 4.87704e-11 0
-2.50341e-07 3.55961e-11 0
-2.50397e-07 2.59883e-11 0
-2.50447e-07 1.89758e-11 0
-2.5049e-07 1.38558e-11 0
-2.50528e-07 1.01189e-11 0
-2.50562e-07 7.39698e-12 0
-2.50592e-07 5.42645e-12 0
-2.50617e-07 4.02482e-12 0
-2.5064e-07 3.07774e-12 0
-2.50659e-07 2.53882e-12 0
-2.50675e-07 2.44712e-12 0
-2.50688e-07 2.95577e-12 0
-2.50699e-07 4.3331e-12 0
-2.50709e-07 7.07128e-12 0
-2.50718e-07 1.22139e-11 0
-2.50731e-07 2.16951e-11 0
0.011135 -2.68174e-07 0
0 -1.95108e-07 0
-5.13819e-11 1.1314e-07 0
-3.44687e-07 1.09884e-07 0
-3.57988e-07 -1.49069e-08 0
-1.41006e-07 4.56138e-08 0
-1.18539e-07 5.72511e-08 0
-1.68241e-07 1.51937e-11 0
-2.16258e-07 -1.93062e-07 0
-3.43204e-07 -2.69855e-07 0
-2.45928e-07 -6.65997e-08 0
-1.9405e-07 5.77021e-08 0
-1.78315e-07 9.81573e-08 0
-1.78563e-07 8.89657e-08 0
-1.82536e-07 6.56346e-08 0
-1.88783e-07 4.64145e-08 0
-1.94952e-07 3.23565e-08 0
-1.9984e-07 2.22954e-08 0
-2.03341e-07 1.52491e-08 0
-2.05751e-07 1.04074e-08 0
-2.074e-07 7.12058e-09 0
-2.08546e-07 4.89989e-09 0
-2.09361e-07 3.39768e-09 0
-2.09956e-07 2.37588e-09 0
-2.10402e-07 1.67519e-09 0
-2.10745e-07 1.19019e-09 0
-2.11014e-07 8.51262e-10 0
-2.11229e-07 6.12281e-10 0
-2.11403e-07 4.42412e-10 0
-2.11547e-07 3.20832e-10 0
-2.11668e-07 2.33314e-10 0
-2.1177e-07 1.70022e-10 0
-2.11858e-07 1.24085e-10 0
-2.11935e-07 9.06516e-11 0
-2.12002e-07 6.62691e-11 0
-2.12061e-07 4.84615e-11 0
-2.12113e-07 3.5443e-11 0
-2.1216e-07 2.59194e-11 0
-2.12201e-07 1.895e-11 0
-2.12238e-07 1.38499e-11 0
-2.12271e-07 1.01209e-11 0
-2.123e-07 7.40237e-12 0
-2.12325e-07 5.4381e-12 0
-2.12347e-07 4.05352e-12 0
-2.12365e-07 3.14138e-12 0
-2.1238e-07 2.65206e-12 0
-2.12393e-07 2.61482e-12 0
-2.12403e-07 3.24755e-12 0
-2.12411e-07 4.99819e-12 0
-2.12418e-07 8.47919e-12 0
-2.12427e-07 1.41104e-11 0
0.0113182 -1.86498e-07 0
0 -3.64635e-07 0
-4.46653e-11 4.43055e-08 0
-3.77641e-07 3.73046e-09 0
-4.22298e-07 -6.18824e-08 0
-2.35072e-07 2.38669e-09 0
-1.4733e-12 2.36728e-08 0
3.87258e-10 2.72589e-10 0
-3.02967e-10 2.89503e-10 0
-2.27652e-07 -1.47834e-07 0
-3.32795e-07 -1.90003e-07 0
-2.6266e-07 -1.53575e-08 0
-2.48852e-07 7.02051e-08 0
-2.35242e-07 7.92949e-08 0
-2.20525e-07 6.31947e-08 0
-2.12258e-07 4.70186e-08 0
-2.08396e-07 3.34407e-08 0
-2.06651e-07 2.30793e-08 0
-2.05894e-07 1.57361e-08 0
-2.05619e-07 1.0735e-08 0
-2.05588e-07 7.37861e-09 0
-2.0568e-07 5.12491e-09 0
-2.05829e-07 3.59848e-09 0
-2.05999e-07 2.5519e-09 0
-2.06168e-07 1.82497e-09 0
-2.06328e-07 1.31395e-09 0
-2.06474e-07 9.51001e-10 0
-2.06605e-07 6.91039e-10 0
-2.06721e-07 5.03607e-10 0
-2.06824e-07 3.67783e-10 0
-2.06915e-07 2.68982e-10 0
-2.06997e-07 1.96911e-10 0
-2.0707e-07 1.44233e-10 0
-2.07135e-07 1.05677e-10 0
-2.07194e-07 7.74316e-11 0
-2.07247e-07 5.67288e-11 0
-2.07296e-07 4.15499e-11 0
-2.07339e-07 3.04189e-11 0
-2.07378e-07 2.22553e-11 0
-2.07414e-07 1.62667e-11 0
-2.07445e-07 1.1872e-11 0
-2.07473e-07 8.64558e-12 0
-2.07497e-07 6.27646e-12 0
-2.07519e-07 4.54025e-12 0
-2.07537e-07 3.28432e-12 0
-2.07552e-07 2.43206e-12 0
-2.07564e-07 1.99604e-12 0
-2.07574e-07 2.0797e-12 0
-2.07581e-07 2.87802e-12 0
-2.07587e-07 4.58776e-12 0
-2.07596e-07 7.1767e-12 0
0.0113319 -9.36546e-08 0
0 -3.18255e-07 0
-4.06161e-11 4.07658e-10 0
-3.92145e-07 -2.98644e-08 0
-4.61945e-07 -6.50992e-08 0
-3.14325e-07 -6.52511e-08 0
-1.07535e-07 -3.04383e-08 0
3.52201e-10 -3.57777e-10 0
5.33905e-11 -5.33905e-11 0
-3.07129e-10 3.00598e-10 0
-1.54606e-07 -7.85136e-08 0
-2.04787e-07 -4.66483e-08 0
-2.80274e-07 7.70534e-08 0
-2.88067e-07 7.58133e-08 0
-2.6055e-07 5.2488e-08 0
-2.37388e-07 3.72995e-08 0
-2.23315e-07 2.61061e-08 0
-2.15425e-07 1.80224e-08 0
-2.11103e-07 1.24936e-08 0
-2.08758e-07 8.77371e-09 0
-2.075e-07 6.24917e-09 0
-2.06842e-07 4.50435e-09 0
-2.06516e-07 3.27521e-09 0
-2.06374e-07 2.39541e-09 0
-2.06332e-07 1.75824e-09 0
-2.06345e-07 1.29313e-09 0
-2.06386e-07 9.51978e-10 0
-2.06441e-07 7.01047e-10 0
-2.06503e-07 5.16219e-10 0
-2.06566e-07 3.80005e-10 0
-2.06628e-07 2.79611e-10 0
-2.06689e-07 2.05634e-10 0
-2.06746e-07 1.51143e-10 0
-2.068e-07 1.11027e-10 0
-2.0685e-07 8.1508e-11 0
-2.06897e-07 5.97996e-11 0
-2.06941e-07 4.38431e-11 0
-2.06981e-07 3.21189e-11 0
-2.07017e-07 2.35056e-11 0
-2.07051e-07 1.71756e-11 0
-2.07081e-07 1.25181e-11 0
-2.07108e-07 9.08167e-12 0
-2.07132e-07 6.53261e-12 0
-2.07152e-07 4.6252e-12 0
-2.0717e-07 3.18089e-12 0
-2.07185e-07 2.07358e-12 0
-2.07197e-07 1.2232e-12 0
-2.07207e-07 5.95083e-13 0
-2.07213e-07 2.05598e-13 0
-2.07219e-07 5.89015e-14 0
-2.07227e-07 4.04484e-14 0
0.0113326 1.90207e-10 0
0 -2.23653e-07 0
-4.28597e-11 -3.59111e-08 0
-3.75822e-07 -7.17254e-08 0
-4.60005e-07 -5.5879e-08 0
-3.38737e-07 -4.18448e-08 0
-2.27763e-07 -9.44607e-08 0
-1.26923e-07 -7.26819e-08 0
3.5498e-10 -3.59592e-10 0
5.24306e-11 -5.24306e-11 0
-3.10216e-10 3.04563e-10 0
-8.04076e-08 9.73239e-08 0
-3.20183e-07 1.58604e-07 0
-3.70292e-07 8.03142e-08 0
-3.06538e-07 2.80135e-08 0
-2.55551e-07 1.54243e-08 0
-2.30418e-07 1.15025e-08 0
-2.18817e-07 9.10274e-09 0
-2.13229e-07 7.25853e-09 0
-2.10386e-07 5.76295e-09 0
-2.08868e-07 4.53284e-09 0
-2.08026e-07 3.52626e-09 0
-2.07547e-07 2.71417e-09 0
-2.07271e-07 2.06965e-09 0
-2.07117e-07 1.56587e-09 0
-2.07036e-07 1.17718e-09 0
-2.07002e-07 8.80439e-10 0
-2.06998e-07 6.55806e-10 0
-2.07013e-07 4.86888e-10 0
-2.07041e-07 3.60531e-10 0
-2.07076e-07 2.66398e-10 0
-2.07116e-07 1.96497e-10 0
-2.07157e-07 1.44725e-10 0
-2.072e-07 1.0646e-10 0
-2.07242e-07 7.82256e-11 0
-2.07283e-07 5.74221e-11 0
-2.07322e-07 4.21106e-11 0
-2.07358e-07 3.08503e-11 0
-2.07392e-07 2.2572e-11 0
-2.07424e-07 1.64838e-11 0
-2.07453e-07 1.19986e-11 0
-2.07479e-07 8.68027e-12 0
-2.07502e-07 6.20253e-12 0
-2.07522e-07 4.31649e-12 0
-2.07539e-07 2.82397e-12 0
-2.07554e-07 1.5527e-12 0
-2.07566e-07 3.33195e-13 0
-2.07576e-07 -1.01096e-12 0
-2.07583e-07 -2.63686e-12 0
-2.07588e-07 -4.65901e-12 0
-2.07597e-07 -7.19523e-12 0
0.0113319 9.3922e-08 0
0 -1.61691e-07 0
-6.29349e-11 -6.51989e-08 0
-3.52335e-07 -1.0373e-07 0
-4.32939e-07 -5.66757e-08 0
-3.3677e-07 -3.67705e-08 0
-2.53378e-07 -5.29918e-08 0
-2.42311e-07 -1.47261e-07 0
-1.71655e-07 -1.12909e-07 0
3.48148e-10 -3.71375e-10 0
-2.92339e-10 -4.14775e-10 0
3.65936e-11 2.38957e-07 0
-3.00459e-07 3.37006e-07 0
-4.01528e-07 8.57984e-08 0
-3.24534e-07 -2.77355e-08 0
-2.57942e-07 -2.04482e-08 0
-2.29795e-07 -5.02083e-09 0
-2.19791e-07 1.36127e-09 0
-2.16124e-07 3.31641e-09 0
-2.1455e-07 3.61347e-09 0
-2.13706e-07 3.28855e-09 0
-2.1316e-07 2.7625e-09 0
-2.12771e-07 2.21949e-09 0
-2.12488e-07 1.73489e-09 0
-2.12285e-07 1.33192e-09 0
-2.12145e-07 1.01005e-09 0
-2.12053e-07 7.59343e-10 0
-2.12e-07 5.67293e-10 0
-2.11974e-07 4.21853e-10 0
-2.1197e-07 3.12603e-10 0
-2.1198e-07 2.31022e-10 0
-2.12001e-07 1.70368e-10 0
-2.12028e-07 1.25424e-10 0
-2.1206e-07 9.22055e-11 0
-2.12094e-07 6.77032e-11 0
-2.12129e-07 4.9659e-11 0
-2.12163e-07 3.63873e-11 0
-2.12197e-07 2.66342e-11 0
-2.12228e-07 1.94693e-11 0
-2.12258e-07 1.42031e-11 0
-2.12286e-07 1.03241e-11 0
-2.12311e-07 7.45116e-12 0
-2.12333e-07 5.29551e-12 0
-2.12353e-07 3.6302e-12 0
-2.1237e-07 2.26093e-12 0
-2.12384e-07 9.93517e-13 0
-2.12397e-07 -4.08708e-13 0
-2.12407e-07 -2.27084e-12 0
-2.12415e-07 -4.99769e-12 0
-2.12421e-07 -8.95152e-12 0
-2.12431e-07 -1.44128e-11 0
0.0113182 1.86228e-07 0
0 -1.5474e-07 0
-8.94954e-11 -7.99269e-08 0
-3.31343e-07 -1.20708e-07 0
-4.04682e-07 -5.30644e-08 0
-3.44387e-07 -2.20484e-08 0
-2.90873e-07 -3.62199e-08 0
-2.58162e-07 -7.78306e-08 0
-3.23922e-07 -2.03443e-07 0
-2.96566e-07 -1.52074e-07 0
-3.33022e-07 -2.21932e-11 0
-3.05602e-07 2.92731e-07 0
-1.87963e-07 4.27465e-07 0
-1.89256e-07 9.8778e-08 0
-2.25167e-07 -7.31219e-08 0
-2.40958e-07 -4.9834e-08 0
-2.47676e-07 -1.45859e-08 0
-2.50948e-07 -7.38261e-10 0
-2.52332e-07 2.97357e-09 0
-2.52654e-07 3.43398e-09 0
-2.52459e-07 3.00407e-09 0
-2.5207e-07 2.41014e-09 0
-2.51652e-07 1.86364e-09 0
-2.5128e-07 1.41429e-09 0
-2.50978e-07 1.06171e-09 0
-2.50749e-07 7.91529e-10 0
-2.50584e-07 5.87315e-10 0
-2.50472e-07 4.34313e-10 0
-2.50402e-07 3.20362e-10 0
-2.50363e-07 2.35854e-10 0
-2.50348e-07 1.73375e-10 0
-2.50349e-07 1.27289e-10 0
-2.50362e-07 9.33564e-11 0
-2.50383e-07 6.84077e-11 0
-2.50409e-07 5.00857e-11 0
-2.50438e-07 3.66433e-11 0
-2.50469e-07 2.67883e-11 0
-2.50499e-07 1.95668e-11 0
-2.50529e-07 1.42753e-11 0
-2.50557e-07 1.03948e-11 0
-2.50583e-07 7.54159e-12 0
-2.50607e-07 5.42945e-12 0
-2.50629e-07 3.84016e-12 0
-2.50648e-07 2.59787e-12 0
-2.50665e-07 1.54311e-12 0
-2.5068e-07 4.99575e-13 0
-2.50692e-07 -7.81544e-13 0
-2.50703e-07 -2.72673e-12 0
-2.50712e-07 -6.07946e-12 0
-2.50721e-07 -1.1972e-11 0
-2.50734e-07 -2.20043e-11 0
0.011135 2.66156e-07 0
0 -1.78589e-07 0
-1.12285e-10 -5.94928e-08 0
-3.25285e-07 -8.82931e-08 0
-4.16493e-07 -3.95209e-08 0
-4.07521e-07 -1.77471e-08 0
-3.91295e-07 -1.72306e-08 0
-3.68681e-07 -2.59918e-08 0
-3.50625e-07 -1.55296e-08 0
-4.61545e-07 3.63269e-08 0
-4.88618e-07 -2.42601e-08 0
-5.429e-07 -1.27342e-07 0
-3.73139e-07 -6.68797e-08 0
-3.27225e-07 3.36605e-08 0
-3.69791e-07 6.36711e-08 0
-3.89021e-07 4.851e-08 0
-3.89795e-07 2.81328e-08 0
-3.86665e-07 1.49332e-08 0
-3.83721e-07 8.06022e-09 0
-3.81462e-07 4.64482e-09 0
-3.79774e-07 2.87515e-09 0
-3.78515e-07 1.88322e-09 0
-3.77581e-07 1.28151e-09 0
-3.76896e-07 8.93325e-10 0
-3.76401e-07 6.32155e-10 0
-3.76049e-07 4.51632e-10 0
-3.75805e-07 3.24684e-10 0
-3.7564e-07 2.34404e-10 0
-3.75535e-07 1.69716e-10 0
-3.75473e-07 1.23125e-10 0
-3.75442e-07 8.94457e-11 0
-3.75432e-07 6.50369e-11 0
-3.75438e-07 4.73151e-11 0
-3.75454e-07 3.44324e-11 0
-3.75476e-07 2.506e-11 0
-3.75503e-07 1.82378e-11 0
-3.75531e-07 1.32701e-11 0
-3.7556e-07 9.65154e-12 0
-3.75589e-07 7.01399e-12 0
-3.75616e-07 5.08866e-12 0
-3.75642e-07 3.67816e-12 0
-3.75666e-07 2.6357e-12 0
-3.75688e-07 1.84858e-12 0
-3.75707e-07 1.22346e-12 0
-3.75724e-07 6.69984e-13 0
-3.75738e-07 7.74409e-14 0
-3.75751e-07 -7.29849e-13 0
-3.75763e-07 -2.10601e-12 0
-3.75774e-07 -4.89726e-12 0
-3.75787e-07 -1.14674e-11 0
-3.75809e-07 -2.76775e-11 0
0.00942364 2.62775e-07 0
0 0 0
-5.96228e-11 0 0
-1.63135e-07 0 0
-2.18566e-07 0 0
-2.32112e-07 0 0
-2.33563e-07 0 0
-2.25901e-07 0 0
-1.98364e-07 0 0
-1.64982e-07 0 0
-1.55587e-07 0 0
-2.37255e-07 0 0
-3.14585e-07 0 0
-3.2869e-07 0 0
-3.03625e-07 0 0
-2.75135e-07 0 0
-2.56336e-07 0 0
-2.46145e-07 0 0
-2.4085e-07 0 0
-2.37988e-07 0 0
-2.36328e-07 0 0
-2.35299e-07 0 0
-2.34629e-07 0 0
-2.3418e-07 0 0
-2.33876e-07 0 0
-2.3367e-07 0 0
-2.33531e-07 0 0
-2.3344e-07 0 0
-2.33383e-07 0 0
-2.3335e-07 0 0
-2.33333e-07 0 0
-2.33328e-07 0 0
-2.33331e-07 0 0
-2.33339e-07 0 0
-2.3335e-07 0 0
-2.33363e-07 0 0
-2.33378e-07 0 0
-2.33392e-07 0 0
-2.33407e-07 0 0
-2.33421e-07 0 0
-2.33434e-07 0 0
-2.33446e-07 0 0
-2.33457e-07 0 0
-2.33466e-07 0 0
-2.33475e-07 0 0
-2.33482e-07 0 0
-2.33489e-07 0 0
-2.33495e-07 0 0
-2.33501e-07 0 0
-2.33508e-07 0 0
-2.33523e-07 0 0
0.00394132 0 0
0 0 1.58836e-07
-1.067e-10 0 6.31192e-08
-3.91445e-07 0 6.26378e-08
-4.93085e-07 0 -5.63514e-08
-3.96103e-07 0 -1.36982e-07
-3.82465e-08 0 -9.68237e-08
-5.35817e-08 0 -8.02341e-09
-1.27269e-07 0 1.98311e-08
-1.88745e-07 0 1.54377e-08
-2.21944e-07 0 5.69874e-10
-2.43982e-07 0 -6.59593e-09
-2.678e-07 0 -6.67027e-09
-2.91479e-07 0 -4.32156e-09
-3.11859e-07 0 -2.15246e-09
-3.28378e-07 0 -8.2036e-10
-3.41269e-07 0 -1.87818e-10
-3.50964e-07 0 3.91815e-11
-3.58039e-07 0 8.30297e-11
-3.63094e-07 0 6.44388e-11
-3.66662e-07 0 3.53561e-11
-3.69171e-07 0 1.2734e-11
-3.70937e-07 0 -8.98304e-13
-3.7219e-07 0 -7.54346e-12
-3.73089e-07 0 -9.80908e-12
-3.73742e-07 0 -9.7162e-12
-3.74224e-07 0 -8.55737e-12
-3.74586e-07 0 -7.06311e-12
-3.74863e-07 0 -5.60034e-12
-3.75079e-07 0 -4.32488e-12
-3.7525e-07 0 -3.2806e-12
-3.75389e-07 0 -2.45794e-12
-3.75502e-07 0 -1.82604e-12
-3.75597e-07 0 -1.34892e-12
-3.75677e-07 0 -9.92946e-13
-3.75746e-07 0 -7.29559e-13
-3.75805e-07 0 -5.35811e-13
-3.75857e-07 0 -3.93856e-13
-3.75902e-07 0 -2.90126e-13
-3.75941e-07 0 -2.14478e-13
-3.75976e-07 0 -1.59441e-13
-3.76006e-07 0 -1.19604e-13
-3.76032e-07 0 -9.10961e-14
-3.76055e-07 0 -7.09699e-14
-3.76074e-07 0 -5.59205e-14
-3.76091e-07 0 -3.79803e-14
-3.76105e-07 0 1.81038e-14
-3.76118e-07 0 2.89651e-13
-3.7613e-07 0 1.46103e-12
-3.76144e-07 0 5.72788e-12
-3.76168e-07 0 1.87878e-11
0.00942292 0 -1.9558e-07
0.0036 1.70899e-07 1.11545e-07
0.00359962 -0.00335727 -0.00150078
0.0107994 -0.00758855 -0.00319522
0.0205634 -0.00906631 -0.00316311
0.0316659 -0.0102396 -0.00257906
0.0461265 -0.00607912 -0.00130053
0.0472684 -8.89458e-05 -0.000135453
0.046631 0.00261412 0.000152959
0.0412766 0.00421395 4.75756e-05
0.036008 0.00408928 -0.00014763
0.0315308 0.00336199 -0.000176009
0.0281703 0.00247295 -0.000128094
0.0259131 0.00167473 -7.53073e-05
0.0244979 0.0010705 -3.86379e-05
0.0236469 0.000656651 -1.78851e-05
0.0231522 0.000389182 -7.62866e-06
0.0228742 0.000223332 -3.05648e-06
0.0227235 0.000124008 -1.18892e-06
0.0226454 6.63665e-05 -4.86199e-07
0.0226073 3.39139e-05 -2.41019e-07
0.0225905 1.62151e-05 -1.58093e-07
0.0225845 6.9136e-06 -1.25479e-07
0.0225836 2.25798e-06 -1.05645e-07
0.022585 9.41657e-08 -8.83702e-08
0.022587 -7.82899e-07 -7.21126e-08
0.022589 -1.02951e-06 -5.73708e-08
0.0225908 -9.92247e-07 -4.46827e-08
0.0225923 -8.46996e-07 -3.42284e-08
0.0225934 -6.78015e-07 -2.58935e-08
0.0225943 -5.21879e-07 -1.94075e-08
0.0225949 -3.91382e-07 -1.44489e-08
0.0225954 -2.88207e-07 -1.07066e-08
0.0225957 -2.0942e-07 -7.90903e-09
0.022596 -1.50653e-07 -5.83242e-09
0.0225962 -1.07548e-07 -4.29941e-09
0.0225963 -7.63285e-08 -3.17327e-09
0.0225964 -5.39451e-08 -2.35108e-09
0.0225964 -3.80431e-08 -1.7575e-09
0.0225965 -2.68581e-08 -1.34018e-09
0.0225965 -1.9105e-08 -1.06714e-09
0.0225965 -1.38813e-08 -9.26914e-10
0.0225965 -1.06011e-08 -9.31915e-10
0.0225966 -8.96952e-09 -1.12609e-09
0.0225966 -9.02254e-09 -1.5984e-09
0.0225966 -1.12822e-08 -2.50431e-09
0.0225966 -1.71065e-08 -4.06356e-09
0.0225966 -2.93519e-08 -6.47533e-09
0.0225967 -5.70446e-08 -1.34631e-08
0.0225969 -1.50761e-07 -6.76743e-08
0.0225971 -4.40036e-07 -2.96467e-07
0.0225975 -6.5512e-07 -4.76628e-07
0.01 1.90049e-07 -2.9571e-08
0.0100003 -0.00589346 -0.00258194
0.0162774 -0.01419 -0.005279
0.0253254 -0.0182167 -0.00473325
0.0360254 -0.0235004 -0.00315337
0.0541328 -0.0144138 -0.000814589
0.0535532 -6.836e-05 0.000705747
0.054149 0.00617684 0.000759493
0.0468631 0.0107444 0.000346494
0.0399168 0.00986845 -0.000168418
0.0348099 0.00793724 -0.000287758
0.0312837 0.00568364 -0.00020671
0.0291626 0.00371027 -0.00011733
0.0279786 0.00228559 -5.77749e-05
0.0273396 0.00135477 -2.50385e-05
0.0270073 0.000776722 -9.42954e-06
0.026843 0.00043037 -2.83391e-06
0.0267679 0.000229414 -4.00741e-07
0.026738 0.000116433 3.13113e-07
0.02673 5.4991e-05 4.04744e-07
0.0267315 2.285e-05 3.18114e-07
0.0267365 6.88128e-06 2.10991e-07
0.0267423 -4.44301e-07 1.27503e-07
0.0267476 -3.3292e-06 7.20921e-08
0.026752 -4.055e-06 3.83712e-08
0.0267555 -3.82186e-06 1.90326e-08
0.0267582 -3.23575e-06 8.48124e-09
0.0267602 -2.58474e-06 3.01494e-09
0.0267616 -1.99207e-06 3.66661e-10
0.0267627 -1.49923e-06 -7.83338e-10
0.0267635 -1.10976e-06 -1.17423e-09
0.0267641 -8.11671e-07 -1.20591e-09
0.0267645 -5.88395e-07 -1.08684e-09
0.0267648 -4.2368e-07 -9.208e-10
0.026765 -3.03516e-07 -7.56106e-10
0.0267651 -2.16602e-07 -6.12962e-10
0.0267652 -1.54175e-07 -4.98431e-10
0.0267653 -1.09625e-07 -4.1475e-10
0.0267654 -7.80695e-08 -3.64396e-10
0.0267654 -5.59743e-08 -3.54018e-10
0.0267654 -4.08639e-08 -3.98743e-10
0.0267655 -3.11227e-08 -5.27959e-10
0.0267655 -2.59195e-08 -7.93289e-10
0.0267655 -2.53034e-08 -1.27841e-09
0.0267655 -3.06401e-08 -2.11052e-09
0.0267655 -4.60102e-08 -3.48609e-09
0.0267656 -8.22024e-08 -5.83389e-09
0.0267656 -1.60481e-07 -1.3917e-08
0.0267657 -2.96925e-07 -8.02003e-08
0.0267658 -5.14536e-07 -3.58028e-07
0.0267659 -6.48755e-07 -5.76191e-07
0.0148 -2.73739e-07 8.53924e-09
0.0148009 -0.00724192 -0.00338072
0.0191667 -0.017768 -0.00705122
0.0247564 -0.024008 -0.00620729
0.0278069 -0.0356907 -0.003659
0.0272632 -0.0222151 -0.000744082
0.0263575 -3.58227e-06 0.000722507
0.0270522 0.00931589 0.000730838
0.0323982 0.0185062 0.000524792
0.0310174 0.0162795 9.34034e-05
0.0288978 0.0121267 -0.000129245
0.027535 0.00820905 -0.000146127
0.0269247 0.00503072 -9.50979e-05
0.0267636 0.00291929 -4.67663e-05
0.0267862 0.00163963 -1.7091e-05
0.0268689 0.000890409 -3.37042e-06
0.0269573 0.000464275 1.47831e-06
0.0270314 0.000229353 2.4518e-06
0.0270873 0.000104248 2.09632e-06
0.0271273 4.03456e-05 1.47462e-06
0.0271549 9.53054e-06 9.41363e-07
0.0271738 -3.98989e-06 5.66414e-07
0.0271866 -8.8469e-06 3.27042e-07
0.0271953 -9.62725e-06 1.8279e-07
0.0272012 -8.68939e-06 9.91979e-08
0.0272052 -7.1931e-06 5.218e-08
0.027208 -5.67014e-06 2.64032e-08
0.0272099 -4.33414e-06 1.26253e-08
0.0272112 -3.24513e-06 5.47166e-09
0.0272121 -2.39473e-06 1.89727e-09
0.0272127 -1.74868e-06 2.12396e-10
0.0272132 -1.26697e-06 -5.03109e-10
0.0272135 -9.12519e-07 -7.40855e-10
0.0272137 -6.54242e-07 -7.5781e-10
0.0272139 -4.67424e-07 -6.84659e-10
0.027214 -3.33079e-07 -5.85543e-10
0.0272141 -2.36946e-07 -4.9071e-10
0.0272141 -1.6849e-07 -4.14414e-10
0.0272142 -1.20036e-07 -3.6514e-10
0.0272142 -8.60822e-08 -3.52302e-10
0.0272142 -6.27819e-08 -3.9202e-10
0.0272142 -4.76056e-08 -5.13891e-10
0.0272142 -3.91798e-08 -7.70889e-10
0.0272142 -3.73625e-08 -1.25814e-09
0.0272142 -4.36266e-08 -2.15723e-09
0.0272142 -6.14592e-08 -3.83286e-09
0.0272143 -9.55818e-08 -7.18053e-09
0.0272143 -1.52007e-07 -1.80877e-08
0.0272143 -2.41221e-07 -8.94179e-08
0.0272142 -3.72698e-07 -3.72297e-07
0.0272141 -4.49656e-07 -5.92526e-07
0.018 -6.78238e-07 -1.27584e-07
0.0180007 -0.00706086 -0.00417019
0.0195891 -0.0168767 -0.00882723
0.0202472 -0.0196878 -0.00740516
0.0163001 -0.0210299 -0.00423539
-1.98544e-07 -0.0111604 -0.00148735
3.99366e-05 1.60428e-05 9.12682e-08
-1.72499e-05 1.85783e-05 0.000111576
0.00927912 0.00671123 0.000239392
0.0184426 0.0133988 0.000201761
0.0208759 0.0114891 6.10216e-05
0.0221795 0.00771928 -5.27427e-05
0.0236396 0.00452256 -6.44865e-05
0.0248549 0.00244531 -3.25253e-05
0.025726 0.00125823 -7.48648e-06
0.0263076 0.000608258 3.33516e-06
0.0266781 0.000267949 5.81241e-06
0.0269066 9.8714e-05 5.03599e-06
0.0270445 1.99116e-05 3.5382e-06
0.0271268 -1.30954e-05 2.23676e-06
0.0271755 -2.4012e-05 1.32514e-06
0.0272043 -2.49887e-05 7.49798e-07
0.0272214 -2.20284e-05 4.0857e-07
0.0272316 -1.79567e-05 2.14599e-07
0.0272377 -1.40024e-05 1.07936e-07
0.0272415 -1.06199e-05 5.10387e-08
0.0272438 -7.90686e-06 2.16777e-08
0.0272452 -5.81155e-06 7.16438e-09
0.0272461 -4.23209e-06 4.47643e-10
0.0272467 -3.06087e-06 -2.30397e-09
0.0272471 -2.20236e-06 -3.12748e-09
0.0272474 -1.57833e-06 -3.07941e-09
0.0272475 -1.12758e-06 -2.69032e-09
0.0272476 -8.03559e-07 -2.21418e-09
0.0272477 -5.71525e-07 -1.76323e-09
0.0272478 -4.05897e-07 -1.37968e-09
0.0272478 -2.88019e-07 -1.07348e-09
0.0272478 -2.04395e-07 -8.42023e-10
0.0272479 -1.45331e-07 -6.8082e-10
0.0272479 -1.0393e-07 -5.90293e-10
0.0272479 -7.53604e-08 -5.82087e-10
0.0272479 -5.63529e-08 -6.87839e-10
0.0272479 -4.48687e-08 -9.74456e-10
0.0272479 -3.98822e-08 -1.57425e-09
0.0272479 -4.11721e-08 -2.74844e-09
0.0272479 -4.91629e-08 -4.97544e-09
0.0272479 -6.50691e-08 -9.02579e-09
0.0272478 -9.08998e-08 -2.0289e-08
0.0272478 -1.31814e-07 -9.20558e-08
0.0272477 -1.91447e-07 -3.75079e-07
0.0272476 -2.25859e-07 -5.95029e-07
0.0196 -7.72228e-07 -4.92654e-07
0.0196003 -0.00491007 -0.00472146
0.0193167 -0.0108148 -0.00983856
0.0177377 -0.0116911 -0.00786839
0.0134772 -0.00950447 -0.00430341
0.00352568 -0.00371887 -0.00190783
3.09828e-05 -2.87392e-05 -0.000355237
1.14893e-05 -1.14893e-05 -2.0916e-08
-1.66264e-05 1.78733e-05 1.85041e-05
0.0067041 0.00464384 5.70145e-05
0.0133847 0.00838988 4.10448e-05
0.0168044 0.005473 -4.58052e-05
0.0204946 0.0023841 -8.23058e-05
0.0232279 0.000849011 -4.57367e-05
0.0249495 0.000192574 -1.20428e-05
0.0259623 -6.12142e-05 2.86118e-06
0.0265385 -0.000135941 6.26259e-06
0.0268602 -0.000138487 5.35881e-06
0.0270378 -0.00011703 3.61678e-06
0.0271352 -9.13319e-05 2.17627e-06
0.0271882 -6.84456e-05 1.21953e-06
0.027217 -5.01577e-05 6.47111e-07
0.0272325 -3.62841e-05 3.25513e-07
0.0272408 -2.60481e-05 1.5295e-07
0.0272452 -1.8614e-05 6.41488e-08
0.0272475 -1.32641e-05 2.06139e-08
0.0272487 -9.435e-06 7.29477e-10
0.0272493 -6.70326e-06 -7.2382e-09
0.0272496 -4.75836e-06 -9.4843e-09
0.0272497 -3.37544e-06 -9.1894e-09
0.0272498 -2.393e-06 -7.93062e-09
0.0272498 -1.69555e-06 -6.451e-09
0.0272498 -1.20071e-06 -5.07081e-09
0.0272498 -8.49823e-07 -3.90363e-09
0.0272498 -6.01181e-07 -2.96775e-09
0.0272498 -4.25124e-07 -2.24222e-09
0.0272498 -3.00592e-07 -1.69429e-09
0.0272498 -2.12637e-07 -1.29249e-09
0.0272497 -1.50669e-07 -1.01321e-09
0.0272497 -1.07195e-07 -8.45156e-10
0.0272497 -7.69334e-08 -7.94785e-10
0.0272497 -5.61692e-08 -8.95444e-10
0.0272497 -4.22772e-08 -1.22336e-09
0.0272497 -3.33369e-08 -1.92394e-09
0.0272497 -2.77957e-08 -3.25232e-09
0.0272497 -2.41199e-08 -5.62632e-09
0.0272497 -2.05461e-08 -9.72252e-09
0.0272496 -1.52564e-08 -2.07509e-08
0.0272496 -8.52998e-09 -9.22689e-08
0.0272495 -2.50481e-09 -3.75247e-07
0.0272494 8.34686e-11 -5.95179e-07
0.0196 -4.40545e-07 -8.09751e-07
0.0196002 -0.00240401 -0.00484792
0.0195394 -0.00485859 -0.0098099
0.01917 -0.00420494 -0.00770897
0.0164314 -0.000916865 -0.00410748
0.0123841 0.00481753 -0.00205656
0.00751103 0.00398448 -0.000875497
3.10656e-05 -2.64128e-05 -0.00018028
9.78637e-06 -9.78637e-06 -3.52598e-08
-1.594e-05 1.73129e-05 4.98605e-06
0.00464137 0.0013844 0.000109056
0.0111156 0.000631113 3.86895e-05
0.0181265 -0.00186707 -0.000146796
0.0226426 -0.00198822 -0.00012007
0.0249787 -0.0014679 -4.98162e-05
0.0261288 -0.000979395 -1.23797e-05
0.0266979 -0.000630958 -1.21238e-07
0.0269815 -0.000402028 2.2377e-06
0.0271226 -0.000256177 1.8851e-06
0.0271922 -0.000164215 1.16e-06
0.0272258 -0.00010624 6.15589e-07
0.0272414 -6.94791e-05 2.89685e-07
0.0272482 -4.59524e-05 1.15615e-07
0.0272508 -3.07247e-05 3.047e-08
0.0272514 -2.07496e-05 -7.0809e-09
0.0272512 -1.4137e-05 -2.0815e-08
0.0272506 -9.7044e-06 -2.34537e-08
0.0272501 -6.70321e-06 -2.1454e-08
0.0272496 -4.65349e-06 -1.79271e-08
0.0272492 -3.24336e-06 -1.42703e-08
0.0272488 -2.26742e-06 -1.10368e-08
0.0272486 -1.58875e-06 -8.38364e-09
0.0272484 -1.11506e-06 -6.29603e-09
0.0272483 -7.83496e-07 -4.69538e-09
0.0272482 -5.50959e-07 -3.48923e-09
0.0272481 -3.87653e-07 -2.59234e-09
0.027248 -2.72886e-07 -1.93433e-09
0.027248 -1.9222e-07 -1.46169e-09
0.027248 -1.35541e-07 -1.13807e-09
0.0272479 -9.57293e-08 -9.45309e-10
0.0272479 -6.77297e-08 -8.86919e-10
0.0272479 -4.7872e-08 -9.95622e-10
0.0272479 -3.3348e-08 -1.34689e-09
0.0272479 -2.17539e-08 -2.08226e-09
0.0272479 -1.06202e-08 -3.44989e-09
0.0272479 3.1502e-09 -5.84911e-09
0.0272478 2.40033e-08 -9.89174e-09
0.0272478 5.82486e-08 -2.0601e-08
0.0272478 1.12176e-07 -9.14972e-08
0.0272477 1.85339e-07 -3.7428e-07
0.0272476 2.25966e-07 -5.9438e-07
0.018 -2.74077e-07 -8.58383e-07
0.0180004 -0.000387949 -0.00465917
0.0191982 -0.000342246 -0.00919522
0.0206865 0.000758206 -0.00703384
0.0206273 0.00295896 -0.00373548
0.020313 0.00803647 -0.00189759
0.0206631 0.0135181 -0.00096687
0.0128551 0.00772778 -0.000438017
3.18179e-05 -2.10078e-05 -0.000130101
-1.31424e-05 -2.3278e-05 2.516e-07
2.6417e-06 -0.00275589 0.000440199
0.0106378 -0.00801275 0.000422464
0.0195453 -0.00908795 -0.000131819
0.0243018 -0.00595783 -0.000179014
0.0262103 -0.00327184 -8.88632e-05
0.0269023 -0.00177292 -3.15864e-05
0.0271493 -0.00098695 -9.53462e-06
0.0272335 -0.000563256 -2.55832e-06
0.0272566 -0.000328109 -6.02593e-07
0.0272575 -0.000194819 -1.30301e-07
0.0272512 -0.000117892 -4.67884e-08
0.0272435 -7.27029e-05 -4.39287e-08
0.0272366 -4.56714e-05 -4.72599e-08
0.0272309 -2.91993e-05 -4.49637e-08
0.0272265 -1.89738e-05 -3.87116e-08
0.0272231 -1.25101e-05 -3.12682e-08
0.0272207 -8.35377e-06 -2.42739e-08
0.0272189 -5.63879e-06 -1.83868e-08
0.0272176 -3.84033e-06 -1.37187e-08
0.0272166 -2.63446e-06 -1.01437e-08
0.027216 -1.81761e-06 -7.46223e-09
0.0272155 -1.25962e-06 -5.47664e-09
0.0272151 -8.75856e-07 -4.01796e-09
0.0272149 -6.10524e-07 -2.9519e-09
0.0272147 -4.26329e-07 -2.17598e-09
0.0272146 -2.9808e-07 -1.61419e-09
0.0272145 -2.08592e-07 -1.2118e-09
0.0272144 -1.46051e-07 -9.31514e-10
0.0272144 -1.02261e-07 -7.51295e-10
0.0272143 -7.14792e-08 -6.64538e-10
0.0272143 -4.9594e-08 -6.83191e-10
0.0272143 -3.35324e-08 -8.45011e-10
0.0272143 -2.07755e-08 -1.22685e-09
0.0272143 -8.89972e-09 -1.96781e-09
0.0272142 4.95643e-09 -3.31112e-09
0.0272142 2.48505e-08 -5.65448e-09
0.0272142 5.73631e-08 -9.58399e-09
0.0272142 1.14043e-07 -1.98376e-08
0.0272142 2.12823e-07 -8.91087e-08
0.0272142 3.62433e-07 -3.70396e-07
0.0272141 4.49512e-07 -5.90247e-07
0.0148 -2.15732e-07 -7.88396e-07
0.0148006 0.000689059 -0.00427629
0.0178077 0.00184915 -0.00813061
0.0212991 0.00283136 -0.00594168
0.0236368 0.00457815 -0.00316807
0.0253847 0.00743138 -0.00176775
0.0283949 0.0127478 -0.00107256
0.0318827 0.0211656 -0.000559324
0.0264722 0.0129425 2.45775e-05
0.0283064 -5.81272e-10 0.00062035
0.0329652 -0.00937529 0.00118907
0.0347431 -0.0190236 0.000897971
0.0321101 -0.0154786 1.66151e-05
0.0297343 -0.0085869 -0.000206761
0.0284108 -0.00403148 -0.000131927
0.0277157 -0.00190292 -5.47628e-05
0.0273341 -0.000956483 -1.94307e-05
0.0271148 -0.000507436 -6.41912e-06
0.0269846 -0.000279638 -1.99751e-06
0.0269055 -0.000158608 -5.55841e-07
0.0268564 -9.21895e-05 -1.05369e-07
0.0268254 -5.47975e-05 2.3804e-08
0.0268055 -3.32688e-05 5.19989e-08
0.0267925 -2.06081e-05 5.04463e-08
0.0267839 -1.30077e-05 4.16686e-08
0.0267782 -8.35279e-06 3.24641e-08
0.0267743 -5.44658e-06 2.46296e-08
0.0267716 -3.59915e-06 1.84194e-08
0.0267698 -2.40529e-06 1.36497e-08
0.0267685 -1.62244e-06 1.00478e-08
0.0267676 -1.10259e-06 7.35609e-09
0.026767 -7.53707e-07 5.35925e-09
0.0267665 -5.17518e-07 3.88588e-09
0.0267662 -3.56509e-07 2.80306e-09
0.026766 -2.46158e-07 2.00914e-09
0.0267659 -1.70218e-07 1.4269e-09
0.0267658 -1.17794e-07 9.97334e-10
0.0267657 -8.15013e-08 6.74222e-10
0.0267656 -5.62718e-08 4.18924e-10
0.0267656 -3.85646e-08 1.94855e-10
0.0267656 -2.58198e-08 -3.93621e-11
0.0267655 -1.60487e-08 -3.39403e-10
0.0267655 -7.48078e-09 -7.89484e-10
0.0267655 1.81404e-09 -1.52525e-09
0.0267655 1.44337e-08 -2.77561e-09
0.0267655 3.44694e-08 -4.92604e-09
0.0267655 6.91932e-08 -8.58943e-09
0.0267655 1.33994e-07 -1.8195e-08
0.0267656 2.64687e-07 -8.33896e-08
0.0267657 5.0037e-07 -3.56211e-07
0.0267657 6.47971e-07 -5.7117e-07
0.01 -3.61231e-07 -7.80676e-07
0.0100002 0.000593667 -0.00356413
0.0141906 0.00153122 -0.00635447
0.0186519 0.00211698 -0.00426181
0.0223419 0.00319344 -0.00225119
0.0263616 0.00562817 -0.00138257
0.0315548 0.0082646 -0.00117117
0.0401854 0.0101895 -0.000821166