# vtk DataFile Version 2.0
Tobias Weinzierl: CPU, Manycore and Cluster Computing
ASCII

DATASET STRUCTURED_POINTS
DIMENSIONS  51 11 6

ORIGIN 0 0 0 

SPACING 0.1 0.1 0.1 

POINT_DATA 3366

VECTORS velocity float
0 0 0
-1.65361e-10 0 0
-1.64049e-07 0 0
-2.70891e-07 0 0
-2.5253e-07 0 0
-6.16313e-08 0 0
-1.75733e-08 0 0
-4.97157e-08 0 0
-1.11871e-07 0 0
-1.69049e-07 0 0
-1.93757e-07 0 0
-1.95315e-07 0 0
-1.89695e-07 0 0
-1.84881e-07 0 0
-1.82901e-07 0 0
-1.8325e-07 0 0
-1.84756e-07 0 0
-1.86518e-07 0 0
-1.88081e-07 0 0
-1.89302e-07 0 0
-1.90192e-07 0 0
-1.90817e-07 0 0
-1.91249e-07 0 0
-1.9155e-07 0 0
-1.91764e-07 0 0
-1.91923e-07 0 0
-1.92046e-07 0 0
-1.92147e-07 0 0
-1.92233e-07 0 0
-1.9231e-07 0 0
-1.9238e-07 0 0
-1.92445e-07 0 0
-1.92506e-07 0 0
-1.92564e-07 0 0
-1.92618e-07 0 0
-1.9267e-07 0 0
-1.92719e-07 0 0
-1.92765e-07 0 0
-1.92809e-07 0 0
-1.92849e-07 0 0
-1.92887e-07 0 0
-1.92921e-07 0 0
-1.92952e-07 0 0
-1.92981e-07 0 0
-1.93006e-07 0 0
-1.93029e-07 0 0
-1.93049e-07 0 0
-1.93068e-07 0 0
-1.93088e-07 0 0
-1.93115e-07 0 0
0.00299941 0 0
0 3.05987e-07 0
-2.71449e-10 9.19874e-08 0
-3.16737e-07 1.46959e-07 0
-5.34143e-07 8.71067e-08 0
-4.65933e-07 3.87981e-08 0
-1.37389e-07 4.93433e-08 0
-5.21203e-08 9.94633e-08 0
-7.94028e-08 1.04943e-07 0
-1.40233e-07 8.89918e-08 0
-2.30137e-07 6.21484e-08 0
-2.78687e-07 2.79321e-08 0
-2.92251e-07 7.17282e-09 0
-2.96989e-07 -1.72402e-10 0
-3.03194e-07 -8.47249e-10 0
-3.12169e-07 6.69428e-10 0
-3.22297e-07 2.06817e-09 0
-3.31645e-07 2.6126e-09 0
-3.39191e-07 2.47646e-09 0
-3.44776e-07 2.02309e-09 0
-3.4868e-07 1.50911e-09 0
-3.51315e-07 1.05861e-09 0
-3.53058e-07 7.10159e-10 0
-3.54206e-07 4.60304e-10 0
-3.54971e-07 2.90172e-10 0
-3.55495e-07 1.78632e-10 0
-3.55868e-07 1.0761e-10 0
-3.56148e-07 6.3442e-11 0
-3.56371e-07 3.65156e-11 0
-3.56557e-07 2.03932e-11 0
-3.5672e-07 1.09098e-11 0
-3.56866e-07 5.43984e-12 0
-3.57e-07 2.36106e-12 0
-3.57126e-07 6.86695e-13 0
-3.57243e-07 -1.75639e-13 0
-3.57355e-07 -5.77441e-13 0
-3.57459e-07 -7.24805e-13 0
-3.57558e-07 -7.36726e-13 0
-3.57651e-07 -6.80142e-13 0
-3.57739e-07 -5.90491e-13 0
-3.5782e-07 -4.83101e-13 0
-3.57895e-07 -3.58317e-13 0
-3.57964e-07 -2.01398e-13 0
-3.58027e-07 2.36195e-14 0
-3.58084e-07 3.89651e-13 0
-3.58134e-07 1.03773e-12 0
-3.58179e-07 2.22707e-12 0
-3.58219e-07 4.43735e-12 0
-3.58256e-07 8.68653e-12 0
-3.58292e-07 1.7467e-11 0
-3.58337e-07 3.60199e-11 0
0.00780545 -2.3579e-07 0
0 3.67911e-08 0
-2.05462e-10 1.14211e-07 0
-2.44172e-07 1.42052e-07 0
-4.43069e-07 1.92598e-08 0
-2.83444e-07 1.76417e-08 0
-7.88373e-08 8.23615e-08 0
-1.112e-07 1.06147e-07 0
-1.49306e-07 4.00024e-08 0
-1.46197e-07 -3.3389e-09 0
-1.70006e-07 2.35987e-08 0
-1.92004e-07 4.47341e-08 0
-1.9661e-07 6.13722e-08 0
-2.04081e-07 6.33089e-08 0
-2.14777e-07 5.24562e-08 0
-2.28213e-07 3.92433e-08 0
-2.42255e-07 2.81936e-08 0
-2.54477e-07 1.97012e-08 0
-2.6382e-07 1.34033e-08 0
-2.70384e-07 8.88884e-09 0
-2.74753e-07 5.75946e-09 0
-2.7757e-07 3.65604e-09 0
-2.79361e-07 2.28018e-09 0
-2.80502e-07 1.40104e-09 0
-2.81245e-07 8.50281e-10 0
-2.81747e-07 5.10825e-10 0
-2.82105e-07 3.0435e-10 0
-2.82375e-07 1.80066e-10 0
-2.82592e-07 1.05861e-10 0
-2.82776e-07 6.1828e-11 0
-2.82938e-07 3.58238e-11 0
-2.83085e-07 2.0527e-11 0
-2.8322e-07 1.15636e-11 0
-2.83347e-07 6.33662e-12 0
-2.83465e-07 3.31009e-12 0
-2.83577e-07 1.57763e-12 0
-2.83683e-07 6.04815e-13 0
-2.83783e-07 7.68351e-14 0
-2.83876e-07 -1.91021e-13 0
-2.83964e-07 -3.05455e-13 0
-2.84046e-07 -3.2463e-13 0
-2.84121e-07 -2.73309e-13 0
-2.8419e-07 -1.47538e-13 0
-2.84253e-07 9.02091e-14 0
-2.8431e-07 5.27928e-13 0
-2.8436e-07 1.34723e-12 0
-2.84404e-07 2.91676e-12 0
-2.84441e-07 5.90767e-12 0
-2.84474e-07 1.13663e-11 0
-2.84504e-07 2.0573e-11 0
-2.84535e-07 3.61283e-11 0
0.00996158 -3.04422e-07 0
0 -3.56774e-07 0
-1.82314e-10 5.98509e-08 0
-1.70645e-07 1.06467e-09 0
-3.73473e-07 -1.78179e-07 0
-2.10745e-07 -1.53723e-07 0
-3.05974e-09 -3.43461e-08 0
-7.66047e-08 2.01904e-11 0
-1.19636e-07 -1.01957e-07 0
-2.72196e-07 -2.00989e-07 0
-2.76842e-07 -1.34859e-07 0
-2.69685e-07 -1.61578e-08 0
-2.54669e-07 6.97973e-08 0
-2.39354e-07 9.8151e-08 0
-2.22889e-07 8.47404e-08 0
-2.13423e-07 6.28794e-08 0
-2.11689e-07 4.42093e-08 0
-2.13792e-07 2.99681e-08 0
-2.16691e-07 1.96673e-08 0
-2.19109e-07 1.25555e-08 0
-2.20803e-07 7.83658e-09 0
-2.21904e-07 4.80413e-09 0
-2.22607e-07 2.90421e-09 0
-2.2307e-07 1.73725e-09 0
-2.23395e-07 1.03132e-09 0
-2.23643e-07 6.09116e-10 0
-2.23848e-07 3.58622e-10 0
-2.24028e-07 2.1078e-10 0
-2.24191e-07 1.23772e-10 0
-2.24343e-07 7.26137e-11 0
-2.24487e-07 4.25182e-11 0
-2.24622e-07 2.47886e-11 0
-2.24751e-07 1.4327e-11 0
-2.24874e-07 8.14778e-12 0
-2.24991e-07 4.50049e-12 0
-2.25101e-07 2.35561e-12 0
-2.25206e-07 1.1051e-12 0
-2.25305e-07 3.88113e-13 0
-2.25399e-07 -1.01583e-14 0
-2.25486e-07 -2.17032e-13 0
-2.25568e-07 -3.05697e-13 0
-2.25643e-07 -3.13045e-13 0
-2.25712e-07 -2.46594e-13 0
-2.25775e-07 -8.13481e-14 0
-2.25831e-07 2.5178e-13 0
-2.25881e-07 8.7239e-13 0
-2.25924e-07 1.95751e-12 0
-2.2596e-07 3.8337e-12 0
-2.2599e-07 7.17409e-12 0
-2.26015e-07 1.32479e-11 0
-2.26041e-07 2.33728e-11 0
0.0103594 -2.33403e-07 0
0 -6.88921e-07 0
-2.14106e-10 -8.97195e-09 0
-1.73047e-07 -9.76211e-08 0
-3.97883e-07 -1.91761e-07 0
-3.28928e-07 -1.37302e-07 0
2.88903e-11 -3.42127e-08 0
2.85587e-10 1.65497e-10 0
-2.16291e-10 1.73425e-10 0
-1.54379e-07 -1.22325e-07 0
-3.07768e-07 -1.90685e-07 0
-3.03161e-07 -6.35876e-08 0
-3.08112e-07 4.71638e-08 0
-3.02606e-07 8.24725e-08 0
-2.74442e-07 7.049e-08 0
-2.46348e-07 5.28117e-08 0
-2.286e-07 3.81675e-08 0
-2.19279e-07 2.62215e-08 0
-2.14583e-07 1.70767e-08 0
-2.12127e-07 1.06571e-08 0
-2.1077e-07 6.45421e-09 0
-2.10002e-07 3.83337e-09 0
-2.09582e-07 2.25113e-09 0
-2.09381e-07 1.31533e-09 0
-2.09318e-07 7.68376e-10 0
-2.09343e-07 4.50372e-10 0
-2.09419e-07 2.65514e-10 0
-2.09526e-07 1.57656e-10 0
-2.09647e-07 9.43065e-11 0
-2.09776e-07 5.67775e-11 0
-2.09905e-07 3.43301e-11 0
-2.10033e-07 2.07731e-11 0
-2.10158e-07 1.25133e-11 0
-2.10278e-07 7.44644e-12 0
-2.10393e-07 4.32566e-12 0
-2.10503e-07 2.40295e-12 0
-2.10607e-07 1.22338e-12 0
-2.10706e-07 5.066e-13 0
-2.10799e-07 7.77281e-14 0
-2.10886e-07 -1.73223e-13 0
-2.10968e-07 -3.15347e-13 0
-2.11043e-07 -3.9077e-13 0
-2.11112e-07 -4.22652e-13 0
-2.11175e-07 -4.20212e-13 0
-2.11231e-07 -3.7688e-13 0
-2.1128e-07 -2.43392e-13 0
-2.11323e-07 1.22841e-13 0
-2.11359e-07 1.00845e-12 0
-2.11388e-07 2.8675e-12 0
-2.11412e-07 6.23891e-12 0
-2.11438e-07 1.13644e-11 0
0.010413 -1.20715e-07 0
0 -6.15537e-07 0
-2.31278e-10 -4.19542e-08 0
-1.79832e-07 -1.11272e-07 0
-4.08241e-07 -1.56405e-07 0
-4.04146e-07 -1.60773e-07 0
-1.29165e-07 -7.37108e-08 0
2.79955e-10 -2.40129e-10 0
1.8699e-11 -1.8699e-11 0
-2.48139e-10 1.84564e-10 0
-1.39861e-07 -7.77474e-08 0
-2.22921e-07 -6.58656e-08 0
-2.89501e-07 6.74204e-08 0
-3.43254e-07 9.42764e-08 0
-3.27062e-07 6.06158e-08 0
-2.84787e-07 3.54645e-08 0
-2.51301e-07 2.21909e-08 0
-2.31358e-07 1.38218e-08 0
-2.20391e-07 8.17107e-09 0
-2.14378e-07 4.59933e-09 0
-2.11045e-07 2.51396e-09 0
-2.092e-07 1.36394e-09 0
-2.08206e-07 7.49835e-10 0
-2.07702e-07 4.24968e-10 0
-2.07481e-07 2.51047e-10 0
-2.07423e-07 1.54999e-10 0
-2.07456e-07 9.95024e-11 0
-2.07539e-07 6.57579e-11 0
-2.07648e-07 4.42394e-11 0
-2.07769e-07 2.9993e-11 0
-2.07894e-07 2.03212e-11 0
-2.0802e-07 1.36647e-11 0
-2.08143e-07 9.06195e-12 0
-2.08262e-07 5.88575e-12 0
-2.08376e-07 3.70886e-12 0
-2.08485e-07 2.23231e-12 0
-2.08589e-07 1.24364e-12 0
-2.08688e-07 5.90785e-13 0
-2.08781e-07 1.64471e-13 0
-2.08868e-07 -1.14261e-13 0
-2.0895e-07 -3.0341e-13 0
-2.09025e-07 -4.47226e-13 0
-2.09094e-07 -5.81041e-13 0
-2.09157e-07 -7.31714e-13 0
-2.09213e-07 -9.14321e-13 0
-2.09262e-07 -1.12993e-12 0
-2.09305e-07 -1.35822e-12 0
-2.09341e-07 -1.5332e-12 0
-2.0937e-07 -1.49918e-12 0
-2.09395e-07 -1.07516e-12 0
-2.0942e-07 -3.10804e-13 0
0.0104181 5.10781e-10 0
0 -4.37947e-07 0
-2.29958e-10 -5.66632e-08 0
-1.71127e-07 -1.26834e-07 0
-3.9913e-07 -1.17385e-07 0
-4.21454e-07 -8.60017e-08 0
-2.85966e-07 -8.52461e-08 0
-1.0377e-07 -4.64722e-08 0
2.46532e-10 -2.33052e-10 0
-1.98284e-11 1.98284e-11 0
-2.92451e-10 2.0467e-10 0
-8.2388e-08 5.9883e-08 0
-2.21028e-07 1.64069e-07 0
-3.77217e-07 1.50451e-07 0
-3.91406e-07 5.52242e-08 0
-3.25536e-07 8.05359e-09 0
-2.68578e-07 -3.13836e-09 0
-2.37339e-07 -4.365e-09 0
-2.2238e-07 -3.77383e-09 0
-2.15351e-07 -2.85258e-09 0
-2.1201e-07 -1.95405e-09 0
-2.10423e-07 -1.23192e-09 0
-2.09692e-07 -7.22674e-10 0
-2.0939e-07 -3.95753e-10 0
-2.09306e-07 -2.00504e-10 0
-2.09333e-07 -9.09593e-11 0
-2.09417e-07 -3.33125e-11 0
-2.09528e-07 -5.33735e-12 0
-2.09653e-07 6.56729e-12 0
-2.09782e-07 1.02918e-11 0
-2.09911e-07 1.02044e-11 0
-2.10038e-07 8.60669e-12 0
-2.10162e-07 6.63675e-12 0
-2.10281e-07 4.80341e-12 0
-2.10395e-07 3.29108e-12 0
-2.10504e-07 2.12773e-12 0
-2.10608e-07 1.27398e-12 0
-2.10707e-07 6.68022e-13 0
-2.10799e-07 2.46388e-13 0
-2.10887e-07 -4.7967e-14 0
-2.10968e-07 -2.6406e-13 0
-2.11043e-07 -4.44408e-13 0
-2.11112e-07 -6.28551e-13 0
-2.11175e-07 -8.59198e-13 0
-2.11231e-07 -1.19156e-12 0
-2.11281e-07 -1.70733e-12 0
-2.11324e-07 -2.53508e-12 0
-2.11361e-07 -3.86259e-12 0
-2.1139e-07 -5.87053e-12 0
-2.11415e-07 -8.60009e-12 0
-2.1144e-07 -1.21696e-11 0
0.0104129 1.21448e-07 0
0 -3.16105e-07 0
-2.4996e-10 -6.7211e-08 0
-1.74403e-07 -1.30567e-07 0
-3.83372e-07 -9.74184e-08 0
-4.08063e-07 -4.70606e-08 0
-3.11227e-07 -4.08378e-08 0
-2.27193e-07 -1.01813e-07 0
-1.3883e-07 -7.39965e-08 0
1.76485e-10 -2.88971e-10 0
-3.17033e-10 -3.02081e-10 0
-3.87693e-11 1.20565e-07 0
-1.07647e-07 3.01367e-07 0
-2.97656e-07 2.40197e-07 0
-3.7698e-07 4.68069e-08 0
-3.32566e-07 -3.25875e-08 0
-2.74702e-07 -3.32586e-08 0
-2.42368e-07 -2.12792e-08 0
-2.29003e-07 -1.27073e-08 0
-2.24389e-07 -7.44952e-09 0
-2.23114e-07 -4.25263e-09 0
-2.22961e-07 -2.35064e-09 0
-2.2313e-07 -1.257e-09 0
-2.23357e-07 -6.48844e-10 0
-2.23572e-07 -3.20663e-10 0
-2.23763e-07 -1.48735e-10 0
-2.23935e-07 -6.17375e-11 0
-2.24092e-07 -1.97918e-11 0
-2.24239e-07 -1.09891e-12 0
-2.24379e-07 6.02453e-12 0
-2.24513e-07 7.70788e-12 0
-2.24642e-07 7.07828e-12 0
-2.24765e-07 5.66657e-12 0
-2.24884e-07 4.17257e-12 0
-2.24998e-07 2.87637e-12 0
-2.25106e-07 1.85589e-12 0
-2.25209e-07 1.09917e-12 0
-2.25308e-07 5.60393e-13 0
-2.254e-07 1.86075e-13 0
-2.25487e-07 -7.41638e-14 0
-2.25568e-07 -2.64902e-13 0
-2.25644e-07 -4.26848e-13 0
-2.25713e-07 -6.02458e-13 0
-2.25776e-07 -8.46229e-13 0
-2.25832e-07 -1.24238e-12 0
-2.25882e-07 -1.93422e-12 0
-2.25926e-07 -3.17519e-12 0
-2.25963e-07 -5.41078e-12 0
-2.25994e-07 -9.29697e-12 0
-2.2602e-07 -1.54207e-11 0
-2.26047e-07 -2.4472e-11 0
0.0103594 2.32694e-07 0
0 -2.90328e-07 0
-2.63306e-10 -6.73643e-08 0
-1.96702e-07 -1.24978e-07 0
-3.84034e-07 -8.2552e-08 0
-4.13711e-07 -3.28673e-08 0
-3.44592e-07 -1.8695e-08 0
-2.62156e-07 -5.44035e-08 0
-2.52662e-07 -1.5775e-07 0
-1.87032e-07 -1.14131e-07 0
-2.8366e-07 -4.23114e-11 0
-3.38965e-07 1.15508e-07 0
-2.16234e-07 3.07445e-07 0
-1.58962e-07 2.70423e-07 0
-2.43843e-07 6.425e-08 0
-2.8768e-07 -4.16079e-08 0
-2.84141e-07 -4.43437e-08 0
-2.77321e-07 -2.54516e-08 0
-2.76049e-07 -1.24425e-08 0
-2.77329e-07 -5.84753e-09 0
-2.78942e-07 -2.73956e-09 0
-2.80197e-07 -1.28721e-09 0
-2.81044e-07 -6.02093e-10 0
-2.81595e-07 -2.7536e-10 0
-2.81961e-07 -1.19079e-10 0
-2.8222e-07 -4.53131e-11 0
-2.82419e-07 -1.18627e-11 0
-2.82586e-07 2.00372e-12 0
-2.82734e-07 6.6149e-12 0
-2.82872e-07 7.11458e-12 0
-2.83003e-07 6.0192e-12 0
-2.83129e-07 4.50808e-12 0
-2.8325e-07 3.08754e-12 0
-2.83367e-07 1.93497e-12 0
-2.83479e-07 1.07643e-12 0
-2.83587e-07 4.75812e-13 0
-2.83689e-07 7.80264e-14 0
-2.83787e-07 -1.7165e-13 0
-2.83879e-07 -3.20498e-13 0
-2.83966e-07 -4.07145e-13 0
-2.84047e-07 -4.63445e-13 0
-2.84122e-07 -5.18492e-13 0
-2.84191e-07 -6.05298e-13 0
-2.84254e-07 -7.72362e-13 0
-2.8431e-07 -1.10466e-12 0
-2.84361e-07 -1.76087e-12 0
-2.84405e-07 -3.04155e-12 0
-2.84444e-07 -5.54276e-12 0
-2.84477e-07 -1.04525e-11 0
-2.84507e-07 -1.97439e-11 0
-2.84538e-07 -3.6515e-11 0
0.00996152 2.9956e-07 0
0 -3.1556e-07 0
-2.81691e-10 -4.28635e-08 0
-2.16647e-07 -7.83932e-08 0
-3.79927e-07 -5.05159e-08 0
-4.19528e-07 -2.58069e-08 0
-4.03128e-07 -3.74836e-08 0
-3.55681e-07 -6.99681e-08 0
-3.24928e-07 -8.431e-08 0
-3.80836e-07 4.81084e-08 0
-3.94396e-07 1.89327e-07 0
-3.94013e-07 7.85198e-08 0
-2.88263e-07 -1.00399e-07 0
-2.354e-07 -1.1993e-07 0
-3.14948e-07 -3.83968e-08 0
-3.69342e-07 2.07892e-08 0
-3.70929e-07 3.24218e-08 0
-3.61803e-07 2.24533e-08 0
-3.56574e-07 1.17443e-08 0
-3.54834e-07 5.36957e-09 0
-3.54622e-07 2.29234e-09 0
-3.54882e-07 9.45574e-10 0
-3.55218e-07 3.83322e-10 0
-3.55517e-07 1.52973e-10 0
-3.55764e-07 5.87613e-11 0
-3.55972e-07 1.99782e-11 0
-3.56153e-07 3.96605e-12 0
-3.56317e-07 -2.49741e-12 0
-3.56469e-07 -4.85752e-12 0
-3.56613e-07 -5.42649e-12 0
-3.5675e-07 -5.21718e-12 0
-3.56881e-07 -4.69104e-12 0
-3.57007e-07 -4.06462e-12 0
-3.57127e-07 -3.43965e-12 0
-3.57242e-07 -2.86283e-12 0
-3.57352e-07 -2.35356e-12 0
-3.57457e-07 -1.9171e-12 0
-3.57556e-07 -1.5516e-12 0
-3.57649e-07 -1.25215e-12 0
-3.57736e-07 -1.01327e-12 0
-3.57818e-07 -8.30884e-13 0
-3.57894e-07 -7.0471e-13 0
-3.57963e-07 -6.4209e-13 0
-3.58026e-07 -6.65291e-13 0
-3.58083e-07 -8.26033e-13 0
-3.58134e-07 -1.23494e-12 0
-3.58179e-07 -2.11987e-12 0
-3.58219e-07 -3.96842e-12 0
-3.58255e-07 -7.97494e-12 0
-3.5829e-07 -1.72481e-11 0
-3.58334e-07 -3.70664e-11 0
0.00780544 2.26029e-07 0
0 0 0
-1.38499e-10 0 0
-1.09167e-07 0 0
-1.84149e-07 0 0
-2.08346e-07 0 0
-2.12971e-07 0 0
-2.16906e-07 0 0
-2.11125e-07 0 0
-1.93838e-07 0 0
-1.10778e-07 0 0
-5.5069e-08 0 0
-9.50331e-08 0 0
-1.80094e-07 0 0
-2.35722e-07 0 0
-2.41609e-07 0 0
-2.24093e-07 0 0
-2.07794e-07 0 0
-1.98499e-07 0 0
-1.94215e-07 0 0
-1.92487e-07 0 0
-1.9188e-07 0 0
-1.91723e-07 0 0
-1.91734e-07 0 0
-1.91803e-07 0 0
-1.91889e-07 0 0
-1.91977e-07 0 0
-1.92063e-07 0 0
-1.92145e-07 0 0
-1.92222e-07 0 0
-1.92296e-07 0 0
-1.92365e-07 0 0
-1.92432e-07 0 0
-1.92494e-07 0 0
-1.92554e-07 0 0
-1.9261e-07 0 0
-1.92664e-07 0 0
-1.92714e-07 0 0
-1.92761e-07 0 0
-1.92805e-07 0 0
-1.92847e-07 0 0
-1.92885e-07 0 0
-1.9292e-07 0 0
-1.92951e-07 0 0
-1.9298e-07 0 0
-1.93005e-07 0 0
-1.93028e-07 0 0
-1.93048e-07 0 0
-1.93067e-07 0 0
-1.93087e-07 0 0
-1.93113e-07 0 0
0.00299944 0 0
0 0 3.29473e-07
-2.45289e-10 0 7.1763e-08
-3.36005e-07 0 1.23468e-07
-6.13581e-07 0 1.06869e-09
-6.73214e-07 0 -2.48374e-07
-7.50107e-08 0 -2.84616e-07
1.05815e-07 0 -1.11679e-07
9.05361e-08 0 -1.09207e-08
-6.53913e-09 0 3.00884e-08
-1.18172e-07 0 1.94977e-08
-1.93004e-07 0 -1.9021e-09
-2.37493e-07 0 -1.14739e-08
-2.67212e-07 0 -1.05051e-08
-2.88918e-07 0 -6.19187e-09
-3.05832e-07 0 -2.54393e-09
-3.1968e-07 0 -4.52338e-10
-3.30814e-07 0 4.22727e-10
-3.39307e-07 0 6.24534e-10
-3.45453e-07 0 5.4594e-10
-3.49721e-07 0 3.95187e-10
-3.52603e-07 0 2.57689e-10
-3.54518e-07 0 1.56639e-10
-3.55786e-07 0 9.01856e-11
-3.56633e-07 0 4.94907e-11
-3.57212e-07 0 2.58532e-11
-3.57623e-07 0 1.2724e-11
-3.57928e-07 0 5.74177e-12
-3.58167e-07 0 2.2068e-12
-3.58364e-07 0 5.30622e-13
-3.58534e-07 0 -1.84459e-13
-3.58685e-07 0 -4.27979e-13
-3.58823e-07 0 -4.57269e-13
-3.5895e-07 0 -4.01874e-13
-3.5907e-07 0 -3.2327e-13
-3.59182e-07 0 -2.47981e-13
-3.59287e-07 0 -1.85409e-13
-3.59387e-07 0 -1.37135e-13
-3.5948e-07 0 -1.01593e-13
-3.59568e-07 0 -7.62897e-14
-3.59649e-07 0 -5.87499e-14
-3.59724e-07 0 -4.67121e-14
-3.59794e-07 0 -3.76244e-14
-3.59857e-07 0 -2.66648e-14
-3.59913e-07 0 -5.60518e-16
-3.59964e-07 0 7.74444e-14
-3.60009e-07 0 2.95545e-13
-3.6005e-07 0 8.85133e-13
-3.60087e-07 0 2.60568e-12
-3.60125e-07 0 7.87642e-12
-3.60171e-07 0 2.19223e-11
0.0078006 0 -1.42469e-07
0.0036 1.27885e-07 1.47568e-07
0.00359965 -0.0019668 -0.000562426
0.00815113 -0.0056606 -0.00183979
0.0168706 -0.00884658 -0.00328042
0.0286794 -0.0124869 -0.00431306
0.0465989 -0.00825575 -0.00280619
0.0485271 -6.33912e-05 -0.00034168
0.0478344 0.00325206 0.000561322
0.0424849 0.00488155 0.000554614
0.0369233 0.00458702 5.36265e-05
0.0320443 0.0037065 -0.000265514
0.0281375 0.00274645 -0.000315231
0.0253179 0.00189797 -0.000233782
0.0234472 0.00124615 -0.000135881
0.022265 0.000793006 -6.6453e-05
0.0215393 0.000493665 -2.79401e-05
0.0211043 0.000301106 -9.8591e-06
0.0208494 0.000180002 -2.52581e-06
0.0207033 0.000105541 -4.82538e-08
0.0206216 6.07427e-05 5.20298e-07
0.0205769 3.43285e-05 4.67546e-07
0.0205533 1.90435e-05 2.86458e-07
0.0205412 1.0356e-05 1.32315e-07
0.0205353 5.50602e-06 3.40663e-08
0.0205327 2.84908e-06 -1.79908e-08
0.0205318 1.42378e-06 -4.00582e-08
0.0205316 6.77944e-07 -4.52648e-08
0.0205317 2.99717e-07 -4.22175e-08
0.0205319 1.15938e-07 -3.59127e-08
0.0205322 3.21795e-08 -2.8968e-08
0.0205324 -2.00496e-09 -2.25932e-08
0.0205325 -1.29101e-08 -1.72315e-08
0.0205327 -1.38104e-08 -1.29434e-08
0.0205328 -1.11147e-08 -9.62196e-09
0.0205328 -7.71015e-09 -7.104e-09
0.0205329 -4.74511e-09 -5.22426e-09
0.0205329 -2.55789e-09 -3.83787e-09
0.0205329 -1.14671e-09 -2.82777e-09
0.0205329 -3.99891e-10 -2.10532e-09
0.020533 -2.05587e-10 -1.60927e-09
0.020533 -5.07089e-10 -1.30595e-09
0.020533 -1.34285e-09 -1.19291e-09
0.020533 -2.89988e-09 -1.30818e-09
0.020533 -5.61337e-09 -1.74799e-09
0.020533 -1.03931e-08 -2.7222e-09
0.020533 -1.91448e-08 -4.69663e-09
0.0205331 -3.52665e-08 -8.01255e-09
0.0205331 -6.60884e-08 -1.36226e-08
0.0205333 -1.54852e-07 -5.41568e-08
0.0205336 -4.21996e-07 -2.43666e-07
0.0205341 -6.20822e-07 -3.96291e-07
0.01 1.17552e-07 -4.33965e-07
0.0100008 -0.00403964 -0.00110842
0.015283 -0.0119436 -0.0029561
0.0243805 -0.0187056 -0.00434373
0.0365888 -0.0273248 -0.00427736
0.0554025 -0.0180228 -0.00111511
0.0543223 -0.00074675 0.00156232
0.0548754 0.00605136 0.00188337
0.0489963 0.0108869 0.00144065
0.0427718 0.0105578 0.00037667
0.0375644 0.00897164 -0.000330927
0.0334203 0.00689267 -0.000482162
0.0305516 0.00480255 -0.000372679
0.028779 0.00311508 -0.00022027
0.0277324 0.00193695 -0.00010814
0.0271298 0.00117207 -4.51704e-05
0.026792 0.000693332 -1.54362e-05
0.0266083 0.000401396 -3.32184e-06
0.0265118 0.000227418 7.61594e-07
0.0264634 0.000125945 1.64099e-06
0.0264406 6.79831e-05 1.45333e-06
0.026431 3.55691e-05 1.03656e-06
0.0264278 1.78515e-05 6.66688e-07
0.0264275 8.42031e-06 4.0261e-07
0.0264285 3.56568e-06 2.32431e-07
0.0264297 1.18091e-06 1.29298e-07
0.0264309 9.2467e-08 6.94171e-08
0.0264319 -3.40071e-07 3.58081e-08
0.0264328 -4.58039e-07 1.75144e-08
0.0264334 -4.38028e-07 7.87011e-09
0.0264338 -3.67747e-07 2.97847e-09
0.0264342 -2.88123e-07 6.28487e-10
0.0264344 -2.16244e-07 -4.0319e-10
0.0264346 -1.57594e-07 -7.77703e-10
0.0264347 -1.12421e-07 -8.43637e-10
0.0264348 -7.89284e-08 -7.79617e-10
0.0264348 -5.47934e-08 -6.74173e-10
0.0264349 -3.7834e-08 -5.69945e-10
0.0264349 -2.62548e-08 -4.88323e-10
0.0264349 -1.87059e-08 -4.44004e-10
0.0264349 -1.42777e-08 -4.55246e-10
0.0264349 -1.25008e-08 -5.5359e-10
0.026435 -1.34091e-08 -7.96454e-10
0.026435 -1.77337e-08 -1.28205e-09
0.026435 -2.73179e-08 -2.16394e-09
0.026435 -4.63984e-08 -3.80043e-09
0.026435 -8.66522e-08 -7.03504e-09
0.0264351 -1.73574e-07 -1.45967e-08
0.0264352 -3.32667e-07 -7.25889e-08
0.0264354 -5.98726e-07 -3.40304e-07
0.0264355 -7.65061e-07 -5.55476e-07
0.0148 -5.61794e-07 -5.79806e-07
0.0148017 -0.00593606 -0.00162325
0.01936 -0.0168686 -0.00431439
0.0252261 -0.0262086 -0.00581759
0.0293214 -0.0394644 -0.00473943
0.0279215 -0.0241997 -0.000765545
0.0260516 -6.55986e-06 0.00157419
0.0264721 0.00803552 0.00170583
0.0314573 0.0167099 0.00154868
0.0312456 0.0160964 0.000681449
0.0296259 0.0133034 -1.48411e-05
0.0282936 0.00999555 -0.000284141
0.0275426 0.00670306 -0.000267727
0.0272893 0.004158 -0.000166917
0.0272458 0.00248623 -7.63943e-05
0.0272765 0.00145149 -2.35475e-05
0.0273292 0.000827915 -3.43035e-07
0.0273822 0.000460737 6.86789e-06
0.0274269 0.000249581 7.33542e-06
0.0274612 0.000131007 5.71088e-06
0.027486 6.6032e-05 3.89001e-06
0.0275033 3.13768e-05 2.45761e-06
0.0275152 1.3488e-05 1.47867e-06
0.0275231 4.65421e-06 8.59161e-07
0.0275284 5.79484e-07 4.85774e-07
0.0275319 -1.07922e-06 2.68278e-07
0.0275343 -1.57067e-06 1.44834e-07
0.0275358 -1.54204e-06 7.62656e-08
0.0275369 -1.3163e-06 3.89291e-08
0.0275376 -1.04575e-06 1.90129e-08
0.0275381 -7.95476e-07 8.64113e-09
0.0275384 -5.87809e-07 3.40701e-09
0.0275386 -4.25476e-07 8.84843e-10
0.0275387 -3.0326e-07 -2.40104e-10
0.0275388 -2.13603e-07 -6.68898e-10
0.0275389 -1.49097e-07 -7.68489e-10
0.0275389 -1.03425e-07 -7.2677e-10
0.027539 -7.15899e-08 -6.37807e-10
0.027539 -4.98246e-08 -5.48669e-10
0.027539 -3.54225e-08 -4.85843e-10
0.027539 -2.65677e-08 -4.71619e-10
0.027539 -2.22347e-08 -5.36338e-10
0.027539 -2.22041e-08 -7.30045e-10
0.027539 -2.73183e-08 -1.14782e-09
0.027539 -4.02639e-08 -2.03441e-09
0.0275391 -6.64861e-08 -4.11376e-09
0.0275391 -1.12728e-07 -9.21925e-09
0.0275391 -1.86576e-07 -2.27252e-08
0.0275391 -3.00985e-07 -9.48212e-08
0.0275391 -4.71722e-07 -3.88403e-07
0.027539 -5.72985e-07 -6.19814e-07
0.018 -1.26157e-06 -8.14276e-07
0.0180016 -0.00661392 -0.00240232
0.0197505 -0.0172492 -0.00633907
0.0197729 -0.0218636 -0.00733989
0.0160476 -0.023349 -0.00584891
-6.03843e-07 -0.0121258 -0.00244639
6.60669e-05 2.31872e-05 3.06196e-07
-2.62512e-05 2.78286e-05 0.000313895
0.00791087 0.00568997 0.000619945
0.0165068 0.0123064 0.000496743
0.0197024 0.0120315 0.000204203
0.0212503 0.00912873 -7.1649e-05
0.022946 0.00592835 -0.000165158
0.024501 0.00348397 -0.000119185
0.0256531 0.00198192 -4.77268e-05
0.0264244 0.00109807 -2.89733e-06
0.0269174 0.000587231 1.43627e-05
0.0272245 0.00030044 1.65318e-05
0.0274122 0.000145144 1.31952e-05
0.0275252 6.43122e-05 9.03637e-06
0.0275925 2.41297e-05 5.67857e-06
0.0276322 5.36386e-06 3.37571e-06
0.0276555 -2.53733e-06 1.92845e-06
0.0276691 -5.18147e-06 1.06725e-06
0.0276771 -5.45563e-06 5.73853e-07
0.0276818 -4.7923e-06 2.993e-07
0.0276845 -3.8668e-06 1.50331e-07
0.0276861 -2.97182e-06 7.15094e-08
0.0276871 -2.21392e-06 3.09988e-08
0.0276877 -1.6143e-06 1.09707e-08
0.027688 -1.15885e-06 1.6407e-09
0.0276882 -8.22084e-07 -2.26257e-09
0.0276883 -5.77741e-07 -3.52512e-09
0.0276884 -4.02939e-07 -3.58619e-09
0.0276885 -2.79267e-07 -3.1671e-09
0.0276885 -1.9259e-07 -2.61351e-09
0.0276885 -1.32379e-07 -2.0795e-09
0.0276885 -9.09687e-08 -1.62532e-09
0.0276885 -6.28862e-08 -1.26917e-09
0.0276885 -4.43179e-08 -1.01533e-09
0.0276885 -3.27142e-08 -8.71536e-10
0.0276885 -2.65373e-08 -8.65148e-10
0.0276885 -2.51501e-08 -1.06848e-09
0.0276885 -2.87615e-08 -1.65114e-09
0.0276885 -3.81685e-08 -3.04186e-09
0.0276885 -5.448e-08 -6.36501e-09
0.0276885 -7.94906e-08 -1.35923e-08
0.0276885 -1.15803e-07 -2.94899e-08
0.0276884 -1.6971e-07 -1.05694e-07
0.0276883 -2.48011e-07 -4.05825e-07
0.0276882 -2.93754e-07 -6.40823e-07
0.0196 -1.52219e-06 -1.48091e-06
0.0196006 -0.00502219 -0.00311513
0.0190446 -0.0114103 -0.0075724
0.0165506 -0.0133653 -0.0077474
0.0122015 -0.0115161 -0.00581679
0.00280718 -0.00454039 -0.00313352
5.04014e-05 -4.65581e-05 -0.000605429
2.03069e-05 -2.03069e-05 -3.41713e-08
-2.54119e-05 2.70904e-05 6.96604e-05
0.00566863 0.00418999 0.000155395
0.0122668 0.0085402 0.000124811
0.0151669 0.00680878 -5.4779e-05
0.0188048 0.00353343 -0.000204318
0.0220777 0.00150735 -0.000174285
0.0243765 0.000586503 -8.29914e-05
0.0257975 0.000190217 -1.63778e-05
0.0266287 2.25856e-05 1.15478e-05
0.0271037 -4.06635e-05 1.6701e-05
0.0273717 -5.65739e-05 1.35355e-05
0.0275213 -5.30529e-05 9.03564e-06
0.0276042 -4.33094e-05 5.4568e-06
0.0276498 -3.30201e-05 3.09471e-06
0.0276746 -2.42267e-05 1.67545e-06
0.0276881 -1.73699e-05 8.70296e-07
0.0276953 -1.22758e-05 4.3184e-07
0.0276991 -8.59544e-06 2.01187e-07
0.0277011 -5.98123e-06 8.40961e-08
0.0277022 -4.14395e-06 2.72714e-08
0.0277027 -2.86158e-06 1.52843e-09
0.0277029 -1.9707e-06 -8.71537e-09
0.027703 -1.35387e-06 -1.15882e-08
0.027703 -9.27928e-07 -1.1221e-08
0.027703 -6.34485e-07 -9.64239e-09
0.027703 -4.32788e-07 -7.7979e-09
0.027703 -2.94496e-07 -6.0894e-09
0.027703 -1.9996e-07 -4.65595e-09
0.027703 -1.35588e-07 -3.51751e-09
0.027703 -9.20108e-08 -2.64712e-09
0.027703 -6.27914e-08 -2.00669e-09
0.027703 -4.35411e-08 -1.56606e-09
0.027703 -3.13025e-08 -1.31659e-09
0.027703 -2.41101e-08 -1.28812e-09
0.027703 -2.06399e-08 -1.5793e-09
0.0277029 -1.98992e-08 -2.41051e-09
0.0277029 -2.09778e-08 -4.22423e-09
0.0277029 -2.27229e-08 -8.02084e-09
0.0277029 -2.33833e-08 -1.5633e-08
0.0277028 -2.03822e-08 -3.15845e-08
0.0277028 -1.29753e-08 -1.08058e-07
0.0277027 -4.06684e-09 -4.09304e-07
0.0277026 2.29759e-10 -6.45039e-07
0.0196 -7.9295e-07 -2.03928e-06
0.0196002 -0.00286677 -0.00339424
0.0190979 -0.00592786 -0.00760015
0.0180621 -0.00539787 -0.0073971
0.0149687 -0.00187261 -0.00527972
0.0111721 0.00400366 -0.00325668
0.00686544 0.00354028 -0.00143774
5.0445e-05 -4.26712e-05 -0.000271738
1.72592e-05 -1.72592e-05 -8.07149e-08
-2.43871e-05 2.64368e-05 1.83201e-05
0.00418235 0.00250975 0.000284125
0.0090665 0.00263515 0.000261246
0.0153662 -0.000878326 -0.000172641
0.0207104 -0.00200167 -0.000312198
0.0240846 -0.00169483 -0.000210693
0.0258805 -0.00114247 -8.50383e-05
0.0267834 -0.000721468 -1.91721e-05
0.0272362 -0.000448485 2.52783e-06
0.0274647 -0.000277717 6.14211e-06
0.02758 -0.000171839 4.79888e-06
0.0276377 -0.000106498 2.94009e-06
0.0276662 -6.62735e-05 1.59627e-06
0.0276799 -4.15e-05 7.91653e-07
0.0276863 -2.6188e-05 3.54777e-07
0.0276889 -1.66661e-05 1.3391e-07
0.0276899 -1.06978e-05 3.01167e-08
0.0276901 -6.92317e-06 -1.37804e-08
0.0276899 -4.5137e-06 -2.86833e-08
0.0276897 -2.96165e-06 -3.05209e-08
0.0276895 -1.95344e-06 -2.71565e-08
0.0276892 -1.29363e-06 -2.22766e-08
0.0276891 -8.59082e-07 -1.74782e-08
0.0276889 -5.71457e-07 -1.33523e-08
0.0276888 -3.80371e-07 -1.00316e-08
0.0276887 -2.53126e-07 -7.45872e-09
0.0276887 -1.6832e-07 -5.51317e-09
0.0276886 -1.11846e-07 -4.06816e-09
0.0276886 -7.4348e-08 -3.01382e-09
0.0276886 -4.95863e-08 -2.26602e-09
0.0276886 -3.33669e-08 -1.77059e-09
0.0276886 -2.28184e-08 -1.50884e-09
0.0276886 -1.58748e-08 -1.50843e-09
0.0276885 -1.08686e-08 -1.86237e-09
0.0276885 -6.14814e-09 -2.76644e-09
0.0276885 3.56718e-10 -4.63051e-09
0.0276885 1.16987e-08 -8.42374e-09
0.0276885 3.2816e-08 -1.58986e-08
0.0276884 7.19137e-08 -3.11155e-08
0.0276884 1.39285e-07 -1.05515e-07
0.0276883 2.37686e-07 -4.04332e-07
0.0276882 2.94052e-07 -6.39095e-07
0.018 -4.83705e-07 -2.01626e-06
0.0180007 -0.0011331 -0.00333698
0.0186459 -0.00168679 -0.00719854
0.0194629 -0.000153591 -0.00664007
0.0193233 0.0024878 -0.00453628
0.0192665 0.0078322 -0.00279939
0.0195976 0.0129257 -0.00147789
0.0120851 0.0071807 -0.000672877
5.16415e-05 -3.37008e-05 -0.00023448
-1.97895e-05 -3.8417e-05 3.12691e-07
5.17774e-06 -0.000625336 0.000866333
0.00953181 -0.00442825 0.00115535
0.0175007 -0.00798587 0.000176077
0.0227809 -0.00705064 -0.000298833
0.0256191 -0.00448005 -0.000296289
0.0268629 -0.00246445 -0.000156341
0.0273411 -0.00132075 -6.14408e-05
0.0275099 -0.0007211 -2.05148e-05
0.0275623 -0.000402153 -6.17913e-06
0.0275731 -0.000227804 -1.7279e-06
0.0275702 -0.000130673 -4.82258e-07
0.0275639 -7.5857e-05 -1.77653e-07
0.0275578 -4.45751e-05 -1.15312e-07
0.0275527 -2.65212e-05 -1.00511e-07
0.0275488 -1.59774e-05 -8.84619e-08
0.027546 -9.74287e-06 -7.37307e-08
0.027544 -6.00951e-06 -5.84786e-08
0.0275425 -3.74563e-06 -4.47623e-08
0.0275415 -2.35605e-06 -3.34615e-08
0.0275407 -1.49336e-06 -2.46386e-08
0.0275402 -9.52224e-07 -1.79767e-08
0.0275399 -6.09733e-07 -1.30497e-08
0.0275396 -3.91359e-07 -9.45221e-09
0.0275394 -2.51333e-07 -6.84569e-09
0.0275393 -1.61209e-07 -4.96634e-09
0.0275392 -1.03105e-07 -3.61652e-09
0.0275392 -6.56638e-08 -2.65242e-09
0.0275391 -4.15966e-08 -1.97282e-09
0.0275391 -2.61704e-08 -1.51095e-09
0.0275391 -1.62457e-08 -1.23048e-09
0.0275391 -9.64158e-09 -1.12625e-09
0.027539 -4.67673e-09 -1.23172e-09
0.027539 2.17953e-10 -1.63652e-09
0.027539 6.90748e-09 -2.52127e-09
0.027539 1.80846e-08 -4.2587e-09
0.027539 3.80466e-08 -7.75592e-09
0.027539 7.40693e-08 -1.46557e-08
0.027539 1.39861e-07 -2.82634e-08
0.027539 2.60522e-07 -9.6867e-08
0.027539 4.55564e-07 -3.85293e-07
0.0275389 5.72586e-07 -6.14228e-07
0.0148 -3.23969e-07 -1.74687e-06
0.014801 -0.000205529 -0.00314286
0.0169037 0.000375381 -0.00647342
0.0197138 0.00211342 -0.00558317
0.0221287 0.00451137 -0.00365449
0.0241608 0.00753049 -0.00239938
0.027395 0.0126527 -0.00153539
0.0304279 0.0203105 -0.000839446
0.024685 0.0122097 -0.000123038
0.0255772 -2.37746e-10 0.000526006
0.0301543 -0.00734624 0.00173631
0.0348491 -0.0152534 0.00231264
0.0342139 -0.0141084 0.00110963
0.0314833 -0.00994018 -6.0107e-06
0.0292607 -0.00562425 -0.000373341
0.0279694 -0.00278359 -0.000278177
0.0272817 -0.00133508 -0.00013449
0.0269139 -0.000657901 -5.4655e-05
0.0267119 -0.000337162 -2.06309e-05
0.0265983 -0.000178612 -7.53369e-06
0.026533 -9.70401e-05 -2.70108e-06
0.0264947 -5.3757e-05 -9.50076e-07
0.026472 -3.02474e-05 -3.2068e-07
0.0264582 -1.72422e-05 -9.59282e-08
0.0264498 -9.93907e-06 -1.7148e-08
0.0264445 -5.7846e-06 8.75295e-09
0.0264412 -3.39387e-06 1.54916e-08
0.026439 -2.00369e-06 1.54496e-08
0.0264377 -1.18775e-06 1.32499e-08
0.0264368 -7.04984e-07 1.06277e-08
0.0264362 -4.17507e-07 8.21063e-09
0.0264358 -2.45568e-07 6.18909e-09
0.0264355 -1.42549e-07 4.58105e-09
0.0264353 -8.09211e-08 3.34018e-09
0.0264352 -4.42712e-08 2.40135e-09
0.0264351 -2.27298e-08 1.69966e-09
0.0264351 -1.03124e-08 1.1773e-09
0.026435 -3.35546e-09 7.84585e-10
0.026435 4.21168e-10 4.77738e-10
0.026435 2.4951e-09 2.14504e-10
0.026435 3.92472e-09 -5.29825e-11
0.026435 5.63908e-09 -3.89481e-10
0.026435 8.71262e-09 -8.9521e-10
0.026435 1.47052e-08 -1.7384e-09
0.026435 2.61893e-08 -3.23877e-09
0.026435 4.76528e-08 -6.15515e-09
0.026435 8.70506e-08 -1.18986e-08
0.026435 1.60636e-07 -2.31043e-08
0.0264351 3.096e-07 -8.09245e-08
0.0264352 5.86694e-07 -3.38856e-07
0.0264353 7.62996e-07 -5.46427e-07
0.01 -6.01559e-07 -1.58053e-06
0.0100004 -9.21011e-05 -0.00266766
0.0125569 0.000476089 -0.00510384
0.0161326 0.00164307 -0.00394322
0.0198071 0.00312283 -0.00240777
0.0241088 0.00575175 -0.00174871
0.0295449 0.00841352 -0.00174595