# vtk DataFile Version 2.0
Tobias Weinzierl: CPU, Manycore and Cluster Computing
ASCII

DATASET STRUCTURED_POINTS
DIMENSIONS  51 11 6

ORIGIN 0 0 0 

SPACING 0.1 0.1 0.1 

POINT_DATA 3366

VECTORS velocity float
0 0 0
-7.52564e-13 0 0
2.52556e-09 0 0
-4.33369e-08 0 0
-1.31234e-07 0 0
-5.534e-08 0 0
-3.54126e-08 0 0
-2.20525e-08 0 0
-4.17051e-09 0 0
2.48107e-09 0 0
-1.06394e-08 0 0
-3.53783e-08 0 0
-5.69505e-08 0 0
-6.7231e-08 0 0
-6.79873e-08 0 0
-6.52611e-08 0 0
-6.32744e-08 0 0
-6.31131e-08 0 0
-6.42103e-08 0 0
-6.57433e-08 0 0
-6.71791e-08 0 0
-6.83001e-08 0 0
-6.90817e-08 0 0
-6.95818e-08 0 0
-6.98779e-08 0 0
-7.00391e-08 0 0
-7.01173e-08 0 0
-7.01485e-08 0 0
-7.01553e-08 0 0
-7.01512e-08 0 0
-7.01439e-08 0 0
-7.0137e-08 0 0
-7.01322e-08 0 0
-7.01299e-08 0 0
-7.01299e-08 0 0
-7.01318e-08 0 0
-7.01351e-08 0 0
-7.01395e-08 0 0
-7.01444e-08 0 0
-7.01497e-08 0 0
-7.0155e-08 0 0
-7.01603e-08 0 0
-7.01653e-08 0 0
-7.01701e-08 0 0
-7.01744e-08 0 0
-7.01785e-08 0 0
-7.01822e-08 0 0
-7.01859e-08 0 0
-7.01899e-08 0 0
-7.01972e-08 0 0
0.00220783 0 0
0 4.04617e-07 0
-7.37258e-15 -9.60858e-09 0
8.70135e-09 -6.12205e-09 0
-6.70793e-08 2.0758e-08 0
-1.96181e-07 -1.7825e-09 0
-7.47246e-08 9.71627e-09 0
-6.39079e-08 7.18607e-08 0
-6.58238e-08 6.87715e-08 0
-4.24082e-08 4.14637e-08 0
-2.28675e-08 3.20016e-08 0
-3.20797e-08 3.5775e-08 0
-6.58188e-08 3.69899e-08 0
-1.00667e-07 2.73754e-08 0
-1.18828e-07 1.26234e-08 0
-1.21966e-07 2.05669e-09 0
-1.21255e-07 -1.43359e-09 0
-1.23529e-07 -7.18116e-10 0
-1.29221e-07 8.5369e-10 0
-1.36234e-07 1.78126e-09 0
-1.42737e-07 1.93923e-09 0
-1.47874e-07 1.65142e-09 0
-1.51524e-07 1.21814e-09 0
-1.53919e-07 8.08031e-10 0
-1.55388e-07 4.86028e-10 0
-1.56231e-07 2.60382e-10 0
-1.56678e-07 1.15662e-10 0
-1.56891e-07 3.04933e-11 0
-1.56973e-07 -1.46251e-11 0
-1.56988e-07 -3.47807e-11 0
-1.56975e-07 -4.05467e-11 0
-1.56953e-07 -3.87975e-11 0
-1.56932e-07 -3.37106e-11 0
-1.56916e-07 -2.76449e-11 0
-1.56906e-07 -2.18111e-11 0
-1.56902e-07 -1.67392e-11 0
-1.56903e-07 -1.25827e-11 0
-1.56907e-07 -9.30527e-12 0
-1.56914e-07 -6.78929e-12 0
-1.56923e-07 -4.89399e-12 0
-1.56933e-07 -3.48408e-12 0
-1.56943e-07 -2.44119e-12 0
-1.56953e-07 -1.66603e-12 0
-1.56962e-07 -1.0749e-12 0
-1.56972e-07 -5.93489e-13 0
-1.5698e-07 -1.45461e-13 0
-1.56988e-07 3.73177e-13 0
-1.56996e-07 1.12357e-12 0
-1.57004e-07 2.49131e-12 0
-1.57013e-07 6.01731e-12 0
-1.57028e-07 1.48776e-11 0
0.00620436 -9.93956e-08 0
0 -1.78464e-08 0
3.72083e-12 -8.59045e-09 0
3.20613e-08 -3.08819e-08 0
1.9431e-09 -7.8224e-08 0
-5.25979e-08 -1.56966e-07 0
4.50296e-08 -9.27519e-08 0
-2.09383e-08 5.36598e-08 0
-7.78744e-08 7.4857e-08 0
-8.80509e-08 4.76449e-08 0
-6.1423e-08 2.77643e-08 0
-5.21914e-08 1.29529e-08 0
-7.06533e-08 7.24088e-09 0
-9.8058e-08 1.31839e-08 0
-1.12229e-07 2.33133e-08 0
-1.11769e-07 2.96334e-08 0
-1.08301e-07 3.02418e-08 0
-1.09313e-07 2.69429e-08 0
-1.15033e-07 2.18947e-08 0
-1.22694e-07 1.65628e-08 0
-1.29887e-07 1.17845e-08 0
-1.35489e-07 7.93415e-09 0
-1.39349e-07 5.06741e-09 0
-1.41771e-07 3.06374e-09 0
-1.43168e-07 1.7374e-09 0
-1.43902e-07 9.03198e-10 0
-1.44241e-07 4.05831e-10 0
-1.44362e-07 1.27399e-10 0
-1.44373e-07 -1.55916e-11 0
-1.44337e-07 -7.90691e-11 0
-1.44288e-07 -9.86977e-11 0
-1.44242e-07 -9.61564e-11 0
-1.44204e-07 -8.39563e-11 0
-1.44178e-07 -6.8879e-11 0
-1.44161e-07 -5.42899e-11 0
-1.44152e-07 -4.16186e-11 0
-1.4415e-07 -3.12645e-11 0
-1.44153e-07 -2.31266e-11 0
-1.44158e-07 -1.68972e-11 0
-1.44166e-07 -1.22149e-11 0
-1.44175e-07 -8.73646e-12 0
-1.44185e-07 -6.16419e-12 0
-1.44195e-07 -4.24927e-12 0
-1.44204e-07 -2.78157e-12 0
-1.44213e-07 -1.56871e-12 0
-1.44222e-07 -4.06411e-13 0
-1.4423e-07 9.90098e-13 0
-1.44237e-07 3.17096e-12 0
-1.44245e-07 7.08287e-12 0
-1.44252e-07 1.36901e-11 0
-1.44263e-07 2.39195e-11 0
0.00859184 -1.83166e-07 0
0 -6.39264e-07 0
2.83067e-12 -1.9876e-08 0
5.00878e-08 -7.14066e-08 0
3.98411e-08 -1.47795e-07 0
-2.80784e-08 -2.03531e-07 0
6.44159e-08 -1.07321e-07 0
7.55634e-09 -7.68839e-11 0
-3.41049e-08 -1.34859e-08 0
-8.99066e-08 -4.80992e-08 0
-8.74325e-08 -7.42771e-08 0
-8.67765e-08 -7.20927e-08 0
-1.11527e-07 -4.23935e-08 0
-1.38771e-07 3.16886e-09 0
-1.48003e-07 3.74589e-08 0
-1.37267e-07 4.97575e-08 0
-1.18842e-07 4.73642e-08 0
-1.03729e-07 3.93784e-08 0
-9.5688e-08 3.0422e-08 0
-9.3205e-08 2.21348e-08 0
-9.34425e-08 1.51626e-08 0
-9.43931e-08 9.75787e-09 0
-9.51628e-08 5.87316e-09 0
-9.55463e-08 3.26581e-09 0
-9.56176e-08 1.62456e-09 0
-9.55082e-08 6.57233e-10 0
-9.53243e-08 1.296e-10 0
-9.51308e-08 -1.28166e-10 0
-9.496e-08 -2.30458e-10 0
-9.48234e-08 -2.49742e-10 0
-9.47214e-08 -2.29372e-10 0
-9.46496e-08 -1.93745e-10 0
-9.46019e-08 -1.55591e-10 0
-9.45725e-08 -1.20832e-10 0
-9.45567e-08 -9.16521e-11 0
-9.45505e-08 -6.83282e-11 0
-9.4551e-08 -5.02788e-11 0
-9.45559e-08 -3.66215e-11 0
-9.45637e-08 -2.64521e-11 0
-9.45731e-08 -1.89649e-11 0
-9.45835e-08 -1.34906e-11 0
-9.4594e-08 -9.49309e-12 0
-9.46045e-08 -6.5482e-12 0
-9.46144e-08 -4.31407e-12 0
-9.46237e-08 -2.49319e-12 0
-9.46321e-08 -7.75257e-13 0
-9.46396e-08 1.19183e-12 0
-9.46458e-08 3.72343e-12 0
-9.46506e-08 7.08717e-12 0
-9.4653e-08 1.17758e-11 0
-9.46579e-08 1.87157e-11 0
0.00935012 -1.6944e-07 0
0 -1.22715e-06 0
-2.91542e-11 -3.71658e-08 0
2.38971e-08 -1.00594e-07 0
-6.41116e-09 -1.29511e-07 0
-8.55887e-08 -1.00597e-07 0
-3.19832e-11 -3.45621e-08 0
-4.37267e-10 -5.13317e-10 0
4.51456e-10 -4.94196e-10 0
-4.00953e-08 -4.4521e-08 0
-1.11644e-07 -1.0504e-07 0
-1.35415e-07 -1.0348e-07 0
-1.54385e-07 -5.35874e-08 0
-1.74278e-07 6.51839e-09 0
-1.80822e-07 4.35463e-08 0
-1.69254e-07 4.9759e-08 0
-1.44489e-07 4.08362e-08 0
-1.17813e-07 2.9975e-08 0
-9.76025e-08 2.12268e-08 0
-8.52847e-08 1.43883e-08 0
-7.85211e-08 9.00429e-09 0
-7.4762e-08 4.99016e-09 0
-7.24571e-08 2.26265e-09 0
-7.08883e-08 5.98489e-10 0
-6.97613e-08 -2.95065e-10 0
-6.89466e-08 -6.90212e-10 0
-6.83682e-08 -7.95639e-10 0
-6.79686e-08 -7.5208e-10 0
-6.77005e-08 -6.4534e-10 0
-6.75261e-08 -5.22914e-10 0
-6.74167e-08 -4.08155e-10 0
-6.73513e-08 -3.10452e-10 0
-6.73151e-08 -2.31804e-10 0
-6.7298e-08 -1.70742e-10 0
-6.72932e-08 -1.24489e-10 0
-6.72962e-08 -9.00611e-11 0
-6.73039e-08 -6.47592e-11 0
-6.73144e-08 -4.63376e-11 0
-6.73263e-08 -3.30175e-11 0
-6.73389e-08 -2.34321e-11 0
-6.73515e-08 -1.65516e-11 0
-6.73636e-08 -1.16084e-11 0
-6.73752e-08 -8.03027e-12 0
-6.73858e-08 -5.38307e-12 0
-6.73954e-08 -3.33537e-12 0
-6.74038e-08 -1.65252e-12 0
-6.74107e-08 -1.85189e-13 0
-6.7416e-08 1.20933e-12 0
-6.74193e-08 2.82164e-12 0
-6.742e-08 5.23296e-12 0
-6.74228e-08 9.20053e-12 0
0.0095432 -9.41578e-08 0
0 -1.09736e-06 0
-4.972e-11 -3.77366e-08 0
-1.17536e-09 -7.96754e-08 0
-3.71712e-08 -1.0251e-07 0
-1.13323e-07 -1.19736e-07 0
-6.59666e-08 -5.91775e-08 0
-4.42954e-10 4.26686e-10 0
2.47888e-11 -2.47888e-11 0
4.24228e-10 -4.78672e-10 0
-6.02879e-08 -5.33391e-08 0
-1.39823e-07 -1.05035e-07 0
-1.42482e-07 -6.18346e-08 0
-1.53236e-07 1.34195e-08 0
-1.70928e-07 5.49701e-08 0
-1.80256e-07 5.39166e-08 0
-1.66278e-07 3.41301e-08 0
-1.3677e-07 1.65882e-08 0
-1.0817e-07 6.43495e-09 0
-8.82544e-08 1.15998e-09 0
-7.64392e-08 -1.67197e-09 0
-6.97633e-08 -3.09902e-09 0
-6.59186e-08 -3.57293e-09 0
-6.36177e-08 -3.43645e-09 0
-6.22065e-08 -2.98341e-09 0
-6.13388e-08 -2.42536e-09 0
-6.08136e-08 -1.88613e-09 0
-6.05046e-08 -1.42259e-09 0
-6.03307e-08 -1.05039e-09 0
-6.02392e-08 -7.64191e-10 0
-6.01971e-08 -5.50326e-10 0
-6.01837e-08 -3.93547e-10 0
-6.01866e-08 -2.80093e-10 0
-6.01982e-08 -1.98702e-10 0
-6.02142e-08 -1.40651e-10 0
-6.02321e-08 -9.94053e-11 0
-6.02505e-08 -7.01739e-11 0
-6.02686e-08 -4.94908e-11 0
-6.0286e-08 -3.48711e-11 0
-6.03023e-08 -2.45427e-11 0
-6.03176e-08 -1.72456e-11 0
-6.03316e-08 -1.20853e-11 0
-6.03445e-08 -8.43025e-12 0
-6.0356e-08 -5.8435e-12 0
-6.03661e-08 -4.03065e-12 0
-6.03748e-08 -2.78828e-12 0
-6.0382e-08 -1.96518e-12 0
-6.03875e-08 -1.47108e-12 0
-6.03913e-08 -1.23863e-12 0
-6.03923e-08 -9.64746e-13 0
-6.03951e-08 -7.35979e-14 0
0.00957676 2.56819e-09 0
0 -7.6711e-07 0
-3.79305e-11 -2.92624e-08 0
-3.18032e-09 -7.13631e-08 0
-3.83346e-08 -8.404e-08 0
-1.34357e-07 -7.38622e-08 0
-1.51989e-07 -3.96258e-08 0
-4.81474e-08 -7.6992e-09 0
-4.34461e-10 4.18903e-10 0
5.34614e-12 -5.34614e-12 0
3.84717e-10 -4.63727e-10 0
-6.04353e-08 -5.40815e-08 0
-7.56357e-08 -5.85872e-08 0
-8.15528e-08 3.37645e-08 0
-1.11271e-07 8.33668e-08 0
-1.5272e-07 7.15837e-08 0
-1.66631e-07 3.3635e-08 0
-1.46974e-07 3.90538e-09 0
-1.167e-07 -9.86648e-09 0
-9.30305e-08 -1.36866e-08 0
-7.91319e-08 -1.32711e-08 0
-7.21055e-08 -1.13511e-08 0
-6.88337e-08 -9.04719e-09 0
-6.74018e-08 -6.86414e-09 0
-6.68323e-08 -5.02473e-09 0
-6.66572e-08 -3.58675e-09 0
-6.66552e-08 -2.51785e-09 0
-6.67222e-08 -1.74954e-09 0
-6.68098e-08 -1.2091e-09 0
-6.68969e-08 -8.33857e-10 0
-6.69753e-08 -5.75123e-10 0
-6.70427e-08 -3.97229e-10 0
-6.70998e-08 -2.74935e-10 0
-6.71478e-08 -1.90736e-10 0
-6.71884e-08 -1.32628e-10 0
-6.72229e-08 -9.24153e-11 0
-6.72527e-08 -6.45104e-11 0
-6.72785e-08 -4.50972e-11 0
-6.73012e-08 -3.15625e-11 0
-6.73212e-08 -2.21111e-11 0
-6.7339e-08 -1.55069e-11 0
-6.73548e-08 -1.08989e-11 0
-6.73689e-08 -7.70372e-12 0
-6.73813e-08 -5.52305e-12 0
-6.73922e-08 -4.09139e-12 0
-6.74015e-08 -3.24853e-12 0
-6.74093e-08 -2.93e-12 0
-6.74156e-08 -3.19667e-12 0
-6.74202e-08 -4.28545e-12 0
-6.74222e-08 -6.3893e-12 0
-6.74255e-08 -9.20821e-12 0
0.00954318 9.77431e-08 0
0 -5.39474e-07 0
-2.82858e-11 -2.34522e-08 0
-6.32569e-09 -5.63069e-08 0
-5.0037e-08 -6.40326e-08 0
-1.34762e-07 -4.3697e-08 0
-1.70434e-07 -1.22857e-08 0
-1.18817e-07 -9.24432e-09 0
-5.52342e-08 -9.4826e-09 0
-4.53974e-10 3.83817e-10 0
3.79504e-10 3.77664e-10 0
-7.7747e-12 -2.87524e-08 0
-5.86538e-08 -1.8142e-08 0
-5.54137e-08 6.27645e-08 0
-4.13913e-08 1.08266e-07 0
-7.1354e-08 8.65911e-08 0
-1.14095e-07 3.51993e-08 0
-1.27459e-07 -3.64584e-09 0
-1.16453e-07 -2.00527e-08 0
-1.019e-07 -2.24237e-08 0
-9.3076e-08 -1.92373e-08 0
-8.97329e-08 -1.47675e-08 0
-8.93577e-08 -1.06605e-08 0
-9.01149e-08 -7.40875e-09 0
-9.11029e-08 -5.03146e-09 0
-9.19823e-08 -3.37517e-09 0
-9.26701e-08 -2.25368e-09 0
-9.31786e-08 -1.50567e-09 0
-9.35456e-08 -1.00966e-09 0
-9.38089e-08 -6.80671e-10 0
-9.39985e-08 -4.61603e-10 0
-9.41366e-08 -3.14875e-10 0
-9.42388e-08 -2.15947e-10 0
-9.43161e-08 -1.48806e-10 0
-9.43757e-08 -1.02957e-10 0
-9.44228e-08 -7.14751e-11 0
-9.44609e-08 -4.97565e-11 0
-9.44924e-08 -3.47152e-11 0
-9.45189e-08 -2.42678e-11 0
-9.45416e-08 -1.69989e-11 0
-9.45612e-08 -1.19421e-11 0
-9.45783e-08 -8.43658e-12 0
-9.45933e-08 -6.03225e-12 0
-9.46064e-08 -4.43064e-12 0
-9.46178e-08 -3.45087e-12 0
-9.46277e-08 -3.01786e-12 0
-9.46361e-08 -3.16453e-12 0
-9.46431e-08 -4.06555e-12 0
-9.46488e-08 -6.22961e-12 0
-9.46524e-08 -1.0685e-11 0
-9.46576e-08 -1.80937e-11 0
0.00935006 1.6726e-07 0
0 -4.67222e-07 0
-1.73325e-11 -1.50706e-08 0
-1.32117e-08 -3.94408e-08 0
-7.03765e-08 -4.77151e-08 0
-1.51471e-07 -3.16261e-08 0
-1.86062e-07 2.10559e-09 0
-1.50958e-07 7.17748e-09 0
-1.18594e-07 -4.18423e-08 0
-6.71095e-08 -3.86349e-08 0
-5.35404e-08 -3.5312e-12 0
-8.49763e-08 1.95626e-08 0
-1.72207e-07 4.60605e-08 0
-1.53298e-07 5.87908e-08 0
-5.6857e-08 6.22058e-08 0
-2.62363e-08 4.74978e-08 0
-7.39684e-08 2.19007e-08 0
-1.2008e-07 3.73304e-10 0
-1.34605e-07 -1.05896e-08 0
-1.33961e-07 -1.29052e-08 0
-1.32461e-07 -1.11457e-08 0
-1.3325e-07 -8.40786e-09 0
-1.35321e-07 -5.94943e-09 0
-1.37542e-07 -4.07831e-09 0
-1.39401e-07 -2.75602e-09 0
-1.40794e-07 -1.85506e-09 0
-1.41785e-07 -1.25095e-09 0
-1.42474e-07 -8.47519e-10 0
-1.42949e-07 -5.77407e-10 0
-1.43278e-07 -3.95539e-10 0
-1.43509e-07 -2.72287e-10 0
-1.43673e-07 -1.88231e-10 0
-1.43793e-07 -1.30583e-10 0
-1.43881e-07 -9.0854e-11 0
-1.43948e-07 -6.33628e-11 0
-1.44e-07 -4.42751e-11 0
-1.44042e-07 -3.09859e-11 0
-1.44075e-07 -2.17145e-11 0
-1.44103e-07 -1.5238e-11 0
-1.44127e-07 -1.07131e-11 0
-1.44148e-07 -7.55785e-12 0
-1.44165e-07 -5.37182e-12 0
-1.44181e-07 -3.8846e-12 0
-1.44194e-07 -2.92363e-12 0
-1.44206e-07 -2.39768e-12 0
-1.44216e-07 -2.29875e-12 0
-1.44225e-07 -2.72692e-12 0
-1.44233e-07 -3.92309e-12 0
-1.4424e-07 -6.49636e-12 0
-1.44246e-07 -1.2135e-11 0
-1.44256e-07 -2.29242e-11 0
0.00859179 1.7122e-07 0
0 -4.88425e-07 0
-6.08154e-12 -6.06897e-09 0
-2.0505e-08 -1.82097e-08 0
-8.26862e-08 -2.30906e-08 0
-1.5285e-07 -1.56235e-08 0
-1.86367e-07 -6.83079e-09 0
-1.62266e-07 -7.03522e-09 0
-1.38307e-07 -3.01161e-08 0
-1.57453e-07 -3.34529e-08 0
-1.40058e-07 1.11856e-08 0
-1.40438e-07 6.29711e-08 0
-1.47332e-07 7.75426e-08 0
-1.12217e-07 3.92001e-08 0
-4.46748e-08 -1.23516e-08 0
-3.67284e-08 -4.01253e-08 0
-9.13959e-08 -3.57664e-08 0
-1.40165e-07 -1.58917e-08 0
-1.56451e-07 -5.93157e-10 0
-1.55638e-07 4.55219e-09 0
-1.52437e-07 3.99346e-09 0
-1.5113e-07 2.1457e-09 0
-1.51422e-07 7.44175e-10 0
-1.52377e-07 4.63925e-12 0
-1.53417e-07 -2.86865e-10 0
-1.54308e-07 -3.48158e-10 0
-1.54998e-07 -3.14172e-10 0
-1.55509e-07 -2.52408e-10 0
-1.55878e-07 -1.91387e-10 0
-1.56144e-07 -1.40609e-10 0
-1.56336e-07 -1.01468e-10 0
-1.56476e-07 -7.24699e-11 0
-1.5658e-07 -5.14491e-11 0
-1.56659e-07 -3.6398e-11 0
-1.5672e-07 -2.56975e-11 0
-1.56768e-07 -1.81213e-11 0
-1.56806e-07 -1.27705e-11 0
-1.56838e-07 -8.99771e-12 0
-1.56865e-07 -6.34166e-12 0
-1.56888e-07 -4.47582e-12 0
-1.56908e-07 -3.17079e-12 0
-1.56925e-07 -2.2676e-12 0
-1.5694e-07 -1.65979e-12 0
-1.56953e-07 -1.28297e-12 0
-1.56965e-07 -1.11035e-12 0
-1.56975e-07 -1.15968e-12 0
-1.56985e-07 -1.51696e-12 0
-1.56993e-07 -2.37316e-12 0
-1.57001e-07 -4.12122e-12 0
-1.57011e-07 -7.746e-12 0
-1.57026e-07 -1.51169e-11 0
0.00620438 8.46464e-08 0
0 0 0
1.84877e-13 0 0
-1.13089e-08 0 0
-4.06164e-08 0 0
-6.99446e-08 0 0
-8.46816e-08 0 0
-8.1984e-08 0 0
-7.4941e-08 0 0
-9.03769e-08 0 0
-8.65248e-08 0 0
-5.54672e-08 0 0
-1.75557e-08 0 0
3.83303e-09 0 0
4.58494e-09 0 0
-1.96061e-08 0 0
-5.3215e-08 0 0
-7.41977e-08 0 0
-7.89292e-08 0 0
-7.60506e-08 0 0
-7.23872e-08 0 0
-7.01067e-08 0 0
-6.91235e-08 0 0
-6.88903e-08 0 0
-6.89885e-08 0 0
-6.91905e-08 0 0
-6.93958e-08 0 0
-6.95696e-08 0 0
-6.97061e-08 0 0
-6.98098e-08 0 0
-6.98876e-08 0 0
-6.99461e-08 0 0
-6.99906e-08 0 0
-7.00249e-08 0 0
-7.00518e-08 0 0
-7.00735e-08 0 0
-7.00913e-08 0 0
-7.01061e-08 0 0
-7.01188e-08 0 0
-7.01297e-08 0 0
-7.01393e-08 0 0
-7.01477e-08 0 0
-7.01551e-08 0 0
-7.01616e-08 0 0
-7.01674e-08 0 0
-7.01726e-08 0 0
-7.01772e-08 0 0
-7.01815e-08 0 0
-7.01859e-08 0 0
-7.01911e-08 0 0
-7.01996e-08 0 0
0.00220786 0 0
0 0 5.46179e-07
8.70749e-12 0 7.05667e-09
1.66623e-08 0 4.94319e-08
-5.77623e-08 0 1.12975e-07
-3.44652e-07 0 1.37593e-08
-1.42861e-07 0 -1.05564e-07
-6.39272e-08 0 -1.05175e-07
-5.1674e-09 0 -1.0004e-07
4.84306e-08 0 -6.60237e-08
7.9268e-08 0 -2.55591e-08
6.95466e-08 0 2.05779e-09
2.43489e-08 0 9.29455e-09
-3.14109e-08 0 4.45058e-09
-7.50213e-08 0 -1.61333e-09
-1.00076e-07 0 -4.05342e-09
-1.13254e-07 0 -3.30627e-09
-1.22509e-07 0 -1.45686e-09
-1.31265e-07 0 5.51632e-11
-1.39589e-07 0 8.21814e-10
-1.46701e-07 0 1.00241e-09
-1.52167e-07 0 8.78402e-10
-1.56021e-07 0 6.57647e-10
-1.58555e-07 0 4.46929e-10
-1.60121e-07 0 2.83694e-10
-1.6103e-07 0 1.70672e-10
-1.61522e-07 0 9.79264e-11
-1.61762e-07 0 5.35632e-11
-1.61862e-07 0 2.76953e-11
-1.61888e-07 0 1.3237e-11
-1.6188e-07 0 5.51877e-12
-1.6186e-07 0 1.63201e-12
-1.61839e-07 0 -1.60456e-13
-1.61823e-07 0 -8.59567e-13
-1.61812e-07 0 -1.02229e-12
-1.61807e-07 0 -9.46952e-13
-1.61807e-07 0 -7.85896e-13
-1.61811e-07 0 -6.1171e-13
-1.61818e-07 0 -4.54973e-13
-1.61826e-07 0 -3.25089e-13
-1.61835e-07 0 -2.21359e-13
-1.61845e-07 0 -1.38608e-13
-1.61855e-07 0 -6.96586e-14
-1.61864e-07 0 -5.74964e-15
-1.61874e-07 0 6.30906e-14
-1.61882e-07 0 1.48408e-13
-1.6189e-07 0 2.67736e-13
-1.61898e-07 0 4.19963e-13
-1.61906e-07 0 6.62024e-13
-1.61915e-07 0 2.06921e-12
-1.6193e-07 0 7.89287e-12
0.00617707 0 -4.00408e-08
0.0036 -2.66915e-07 -3.26772e-08
0.00359983 -0.00128435 1.66368e-05
0.00676649 -0.00383739 -2.83921e-05
0.0136868 -0.00660538 -0.00125266
0.024256 -0.0142966 -0.00487521
0.0461114 -0.0121843 -0.00493996
0.0493768 -0.00139741 -0.0016508
0.0490106 0.00294977 -0.000103864
0.0438392 0.00521047 0.000643886
0.0381284 0.00535176 0.000585985
0.0330312 0.00459645 0.000226478
0.0288176 0.00353099 -0.000137075
0.025516 0.00246629 -0.000348547
0.0230575 0.00160273 -0.000373057
0.0213065 0.00101059 -0.00028045
0.0200983 0.000643912 -0.000164393
0.0192852 0.000419555 -7.75307e-05
0.0187511 0.000275755 -2.81721e-05
0.0184093 0.000179469 -5.48746e-06
0.0181965 0.000114286 2.69948e-06
0.0180678 7.08116e-05 4.41233e-06
0.0179922 4.25692e-05 3.81118e-06
0.0179493 2.47544e-05 2.70329e-06
0.0179258 1.38483e-05 1.72798e-06
0.0179136 7.37353e-06 1.02966e-06
0.0179078 3.65556e-06 5.79336e-07
0.0179053 1.60278e-06 3.07997e-07
0.0179046 5.25851e-07 1.52914e-07
0.0179047 2.07008e-09 6.84937e-08
0.0179052 -2.20477e-07 2.49455e-08
0.0179057 -2.87498e-07 4.03856e-09
0.0179062 -2.80498e-07 -4.87585e-09
0.0179066 -2.43231e-07 -7.77589e-09
0.0179069 -1.979e-07 -7.88979e-09
0.0179072 -1.54819e-07 -6.88576e-09
0.0179074 -1.18016e-07 -5.57729e-09
0.0179075 -8.83911e-08 -4.32672e-09
0.0179076 -6.54334e-08 -3.26918e-09
0.0179077 -4.81193e-08 -2.4333e-09
0.0179077 -3.53496e-08 -1.8049e-09
0.0179078 -2.61465e-08 -1.36096e-09
0.0179078 -1.9728e-08 -1.08737e-09
0.0179078 -1.55304e-08 -9.89324e-10
0.0179079 -1.32279e-08 -1.10252e-09
0.0179079 -1.27409e-08 -1.45262e-09
0.0179079 -1.43466e-08 -1.99911e-09
0.0179079 -1.88963e-08 -2.29803e-09
0.017908 -2.75521e-08 8.6906e-10
0.0179081 -5.94631e-08 -7.20887e-10
0.0179082 -1.88854e-07 -6.72111e-08
0.0179085 -2.9186e-07 -1.28977e-07
0.01 -1.35009e-07 -1.41833e-06
0.0100008 -0.00300629 -0.000508336
0.0149172 -0.00993928 -0.000783778
0.0240926 -0.0179142 -0.00181289
0.0378463 -0.0315146 -0.0037329
0.0578843 -0.0231701 -0.000919284
0.0554319 -0.00205281 0.00267805
0.0551455 0.00562568 0.00282281
0.049488 0.0105872 0.00252041
0.0440394 0.0106148 0.00168855
0.0395567 0.00940286 0.000717875
0.0357609 0.00782402 -6.69794e-05
0.032631 0.00612493 -0.00051507
0.030251 0.00450599 -0.000604593
0.0285461 0.00314485 -0.000467814
0.0273754 0.00211302 -0.000278749
0.0265981 0.00138118 -0.000133882
0.0260984 0.000882166 -5.02307e-05
0.0257881 0.000550832 -1.09956e-05
0.0256026 0.00033591 3.70976e-06
0.0254963 0.000199734 7.22796e-06
0.0254382 0.000115491 6.5799e-06
0.0254083 6.46336e-05 4.87915e-06
0.0253942 3.47092e-05 3.27623e-06
0.0253886 1.75936e-05 2.07298e-06
0.0253872 8.12675e-06 1.25979e-06
0.0253877 3.11116e-06 7.42944e-07
0.0253889 6.12632e-07 4.27644e-07
0.0253902 -5.10876e-07 2.41001e-07
0.0253914 -9.16467e-07 1.33132e-07
0.0253925 -9.7133e-07 7.20515e-08
0.0253933 -8.73422e-07 3.8109e-08
0.0253939 -7.24468e-07 1.95938e-08
0.0253944 -5.73095e-07 9.69272e-09
0.0253947 -4.39704e-07 4.51933e-09
0.025395 -3.30442e-07 1.8951e-09
0.0253951 -2.44815e-07 6.1857e-10
0.0253953 -1.79675e-07 3.76203e-11
0.0253954 -1.31205e-07 -1.96303e-10
0.0253954 -9.58234e-08 -2.68106e-10
0.0253955 -7.05428e-08 -2.79649e-10
0.0253955 -5.3068e-08 -2.95202e-10
0.0253955 -4.17986e-08 -3.61406e-10
0.0253956 -3.58609e-08 -5.28207e-10
0.0253956 -3.52596e-08 -7.78739e-10
0.0253956 -4.1119e-08 -7.16677e-10
0.0253957 -5.86979e-08 2.26125e-10
0.0253957 -1.04853e-07 4.41269e-09
0.0253958 -2.04626e-07 -4.16637e-09
0.025396 -3.94906e-07 -1.1637e-07
0.0253962 -5.18792e-07 -2.16582e-07
0.0148 -9.73058e-07 -1.71921e-06
0.0148023 -0.00527568 -0.00106651
0.0201821 -0.0161868 -0.00239139
0.0268324 -0.0280418 -0.00419085
0.031278 -0.0446055 -0.00553209
0.029784 -0.0274941 -0.00104081
0.0263877 -1.18305e-05 0.00298859
0.0261128 0.00728956 0.00301139
0.0301874 0.0150446 0.00286382
0.0306437 0.0146863 0.00193295
0.0296765 0.0129432 0.000928603
0.0286283 0.0109275 9.04148e-05
0.0278234 0.00855268 -0.000368166
0.0274818 0.00616452 -0.000470428
0.027429 0.0041908 -0.000357622
0.0274866 0.0027474 -0.000196039
0.0275605 0.00175816 -7.33388e-05
0.0276218 0.00110075 -5.96538e-06
0.0276704 0.000672134 2.0764e-05
0.0277103 0.00039855 2.56597e-05
0.0277439 0.000228441 2.17731e-05
0.0277717 0.000125766 1.58583e-05
0.0277938 6.57467e-05 1.06128e-05
0.0278106 3.18733e-05 6.72815e-06
0.0278232 1.35307e-05 4.10642e-06
0.0278322 4.12109e-06 2.43539e-06
0.0278385 -3.27941e-07 1.41128e-06
0.027843 -2.1361e-06 8.01629e-07
0.027846 -2.61625e-06 4.46981e-07
0.0278481 -2.48588e-06 2.44652e-07
0.0278495 -2.12039e-06 1.31222e-07
0.0278505 -1.70457e-06 6.8697e-08
0.0278512 -1.32074e-06 3.4835e-08
0.0278516 -9.98488e-07 1.68617e-08
0.027852 -7.42081e-07 7.55808e-09
0.0278522 -5.44904e-07 2.905e-09
0.0278523 -3.96785e-07 6.9684e-10
0.0278524 -2.87425e-07 -2.58328e-10
0.0278525 -2.07822e-07 -5.93904e-10
0.0278526 -1.50685e-07 -6.40796e-10
0.0278526 -1.10425e-07 -5.71099e-10
0.0278526 -8.29779e-08 -4.78056e-10
0.0278526 -6.56561e-08 -4.09191e-10
0.0278527 -5.70667e-08 -3.58283e-10
0.0278527 -5.75554e-08 -2.40742e-10
0.0278527 -7.07858e-08 1.2229e-10
0.0278527 -1.03548e-07 1.54413e-10
0.0278528 -1.63885e-07 -1.34097e-09
0.0278528 -2.59668e-07 -2.66103e-08
0.0278529 -3.94985e-07 -1.63519e-07
0.0278528 -4.72658e-07 -2.76447e-07
0.018 -1.97719e-06 -1.74638e-06
0.0180027 -0.0067863 -0.00187946
0.0205153 -0.0182369 -0.0048991
0.02034 -0.0238753 -0.00639876
0.0159051 -0.0260685 -0.00742554
-1.4915e-06 -0.0136531 -0.00404753
9.95372e-05 2.91381e-05 8.47243e-07
-3.57426e-05 3.73725e-05 0.000555509
0.00693619 0.00454769 0.00118153
0.0144258 0.0104257 0.00109333
0.0178761 0.0113861 0.000660355
0.0195154 0.0100439 0.000117312
0.0211954 0.00774449 -0.000264634
0.0229623 0.00529276 -0.000361149
0.0245576 0.00338455 -0.000277806
0.0258315 0.00209655 -0.000145008
0.0267523 0.00127914 -3.72243e-05
0.0273735 0.000766253 2.28948e-05
0.0277781 0.00044388 4.35912e-05
0.0280381 0.000244095 4.22896e-05
0.0282047 0.000124516 3.28543e-05
0.0283108 5.6401e-05 2.2703e-05
0.028378 1.99362e-05 1.45875e-05
0.0284201 1.96309e-06 8.9188e-06
0.0284462 -5.79194e-06 5.25702e-06
0.0284623 -8.2542e-06 3.01e-06
0.0284721 -8.20559e-06 1.68093e-06
0.0284781 -7.13423e-06 9.16813e-07
0.0284817 -5.78583e-06 4.87787e-07
0.0284839 -4.50008e-06 2.52024e-07
0.0284852 -3.40594e-06 1.25224e-07
0.028486 -2.53016e-06 5.86498e-08
0.0284865 -1.85495e-06 2.4734e-08
0.0284869 -1.3471e-06 8.17137e-09
0.0284871 -9.7162e-07 6.10001e-10
0.0284872 -6.97433e-07 -2.42802e-09
0.0284873 -4.99092e-07 -3.29615e-09
0.0284873 -3.56728e-07 -3.20076e-09
0.0284873 -2.55306e-07 -2.73959e-09
0.0284874 -1.83721e-07 -2.19561e-09
0.0284874 -1.33959e-07 -1.69637e-09
0.0284874 -1.00419e-07 -1.2956e-09
0.0284874 -7.94794e-08 -1.01977e-09
0.0284874 -6.93874e-08 -9.26716e-10
0.0284874 -6.99821e-08 -1.16936e-09
0.0284874 -8.17569e-08 -2.27069e-09
0.0284874 -1.04797e-07 -5.82444e-09
0.0284874 -1.37487e-07 -1.33164e-08
0.0284874 -1.79998e-07 -4.91262e-08
0.0284873 -2.33725e-07 -1.92544e-07
0.0284872 -2.63351e-07 -3.04994e-07
0.0196 -2.73129e-06 -2.65515e-06
0.0196009 -0.00556992 -0.00273009
0.0190985 -0.0124853 -0.00642984
0.016106 -0.01529 -0.00674863
0.0111585 -0.0141717 -0.00671378
0.00196405 -0.00579982 -0.0048182
7.47771e-05 -6.87371e-05 -0.00115073
3.29945e-05 -3.29945e-05 -4.09868e-08
-3.49524e-05 3.65328e-05 0.000189774
0.00446775 0.0033654 0.000393383
0.0103043 0.00777508 0.000322347
0.0131622 0.00777472 1.43478e-05
0.0163896 0.00539671 -0.000302122
0.0195698 0.00307854 -0.00039375
0.0223263 0.00151059 -0.000339391
0.0244936 0.000645532 -0.000216512
0.0260352 0.000238191 -9.00916e-05
0.0270442 5.9724e-05 -4.83302e-06
0.0276717 -1.94735e-05 3.2492e-05
0.0280523 -5.32656e-05 3.85086e-05
0.0282803 -6.30675e-05 3.13073e-05
0.0284154 -5.99889e-05 2.15844e-05
0.0284946 -5.1103e-05 1.35393e-05
0.0285404 -4.0724e-05 7.98315e-06
0.0285666 -3.10825e-05 4.49923e-06
0.0285813 -2.30545e-05 2.44358e-06
0.0285894 -1.67766e-05 1.28173e-06
0.0285938 -1.20544e-05 6.47001e-07
0.0285962 -8.58945e-06 3.10651e-07
0.0285975 -6.08771e-06 1.37955e-07
0.0285981 -4.30013e-06 5.26191e-08
0.0285984 -3.03132e-06 1.26901e-08
0.0285985 -2.13452e-06 -4.34404e-09
0.0285986 -1.5023e-06 -1.02904e-08
0.0285986 -1.05732e-06 -1.11895e-08
0.0285986 -7.44478e-07 -1.00378e-08
0.0285986 -5.24748e-07 -8.25754e-09
0.0285985 -3.70627e-07 -6.47705e-09
0.0285985 -2.62798e-07 -4.93829e-09
0.0285985 -1.87745e-07 -3.70719e-09
0.0285985 -1.36077e-07 -2.78516e-09
0.0285985 -1.01373e-07 -2.1727e-09
0.0285985 -7.93171e-08 -1.91689e-09
0.0285985 -6.68703e-08 -2.20552e-09
0.0285985 -6.15206e-08 -3.39693e-09
0.0285985 -6.0643e-08 -6.0489e-09
0.0285984 -6.11154e-08 -1.16368e-08
0.0285984 -5.77558e-08 -2.09191e-08
0.0285983 -4.37388e-08 -5.83599e-08
0.0285983 -1.60629e-08 -2.00564e-07
0.0285981 1.10313e-09 -3.10833e-07
0.0196 -1.30906e-06 -3.60956e-06
0.0196 -0.00347164 -0.00308427
0.0189329 -0.00745906 -0.00647139
0.0176762 -0.00723273 -0.0062188
0.013571 -0.00344391 -0.0056833
0.00956858 0.00307546 -0.00501912
0.0063081 0.00327536 -0.00268746
7.48719e-05 -6.26023e-05 -0.000523748
2.76499e-05 -2.76499e-05 -1.30845e-07
-3.41402e-05 3.57646e-05 5.94623e-05
0.00334944 0.00264951 0.000334643
0.00797938 0.00406346 0.000335783
0.0133515 0.00159138 -2.35697e-05
0.0180004 -0.000352223 -0.000254526
0.0216289 -0.00129195 -0.000358528
0.0242925 -0.00145261 -0.000325143
0.0260833 -0.0012003 -0.000203999
0.0271757 -0.000858976 -8.57525e-05
0.0277952 -0.000579962 -1.62365e-05
0.0281321 -0.000385712 1.02603e-05
0.0283108 -0.000256094 1.45003e-05
0.0284036 -0.000169796 1.12541e-05
0.0284506 -0.000112248 7.111e-06
0.0284736 -7.40071e-05 4.00876e-06
0.0284842 -4.8752e-05 2.08095e-06
0.0284887 -3.21611e-05 9.99163e-07
0.0284902 -2.12904e-05 4.34122e-07
0.0284904 -1.41645e-05 1.57326e-07
0.0284901 -9.47924e-06 3.15305e-08
0.0284896 -6.38328e-06 -1.93196e-08
0.0284891 -4.32495e-06 -3.51022e-08
0.0284887 -2.94735e-06 -3.57807e-08
0.0284884 -2.0192e-06 -3.08829e-08
0.0284881 -1.38991e-06 -2.46831e-08
0.0284879 -9.60821e-07 -1.89135e-08
0.0284878 -6.6681e-07 -1.41341e-08
0.0284877 -4.64565e-07 -1.04028e-08
0.0284876 -3.2507e-07 -7.59089e-09
0.0284876 -2.28754e-07 -5.52566e-09
0.0284875 -1.62343e-07 -4.05264e-09
0.0284875 -1.1676e-07 -3.06647e-09
0.0284875 -8.56866e-08 -2.53369e-09
0.0284874 -6.45158e-08 -2.50937e-09
0.0284874 -4.9569e-08 -3.16257e-09
0.0284874 -3.7429e-08 -4.74477e-09
0.0284874 -2.42498e-08 -7.59673e-09
0.0284874 -5.08303e-09 -1.31227e-08
0.0284873 2.84732e-08 -2.17683e-08
0.0284873 9.25918e-08 -5.53121e-08
0.0284872 1.99833e-07 -1.90787e-07
0.0284871 2.64738e-07 -2.97668e-07
0.018 -8.43571e-07 -3.55919e-06
0.0180009 -0.00182235 -0.00301207
0.0184103 -0.00332823 -0.0061302
0.0186223 -0.00186659 -0.00545779
0.0178077 0.00139015 -0.00445706
0.0176565 0.0074877 -0.00389052
0.0183272 0.0126712 -0.00260389
0.0113093 0.00693355 -0.00119632
7.65327e-05 -4.86718e-05 -0.000361763
-2.71428e-05 -5.62061e-05 5.64644e-07
7.81477e-06 -0.000339665 0.00077903
0.00900888 -0.00233671 0.00122421
0.0167919 -0.00451864 0.000698715
0.0218027 -0.00493383 0.000322261
0.024701 -0.00445541 -2.57993e-05
0.0263391 -0.00353036 -0.00024431
0.0272418 -0.00247241 -0.000265216
0.0276934 -0.00157607 -0.000179801
0.0278839 -0.000956343 -9.29337e-05
0.0279429 -0.000571915 -4.03638e-05
0.0279458 -0.000342565 -1.57762e-05
0.0279299 -0.000206433 -5.93727e-06
0.027911 -0.00012527 -2.35336e-06
0.0278947 -7.66282e-05 -1.09013e-06
0.0278823 -4.73212e-05 -6.16926e-07
0.0278733 -2.95457e-05 -4.03318e-07
0.0278669 -1.86704e-05 -2.80597e-07
0.0278625 -1.19458e-05 -1.97751e-07
0.0278595 -7.73758e-06 -1.38527e-07
0.0278574 -5.07054e-06 -9.6065e-08
0.0278559 -3.3586e-06 -6.60492e-08
0.027855 -2.24617e-06 -4.51642e-08
0.0278543 -1.51502e-06 -3.08134e-08
0.0278538 -1.02948e-06 -2.1034e-08
0.0278535 -7.04111e-07 -1.43997e-08
0.0278532 -4.84379e-07 -9.90603e-09
0.0278531 -3.35041e-07 -6.86257e-09
0.0278529 -2.33043e-07 -4.80343e-09
0.0278529 -1.63125e-07 -3.42126e-09
0.0278528 -1.15048e-07 -2.52321e-09
0.0278528 -8.17981e-08 -2.00521e-09
0.0278527 -5.83896e-08 -1.83617e-09
0.0278527 -4.10161e-08 -2.04853e-09
0.0278527 -2.63754e-08 -2.75793e-09
0.0278527 -1.10305e-08 -4.13691e-09
0.0278527 9.38878e-09 -6.37712e-09
0.0278526 4.10308e-08 -1.07115e-08
0.0278526 9.41546e-08 -1.72113e-08
0.0278526 1.94094e-07 -4.18509e-08
0.0278526 3.65801e-07 -1.6191e-07
0.0278526 4.7119e-07 -2.60889e-07
0.0148 -4.80273e-07 -3.12921e-06
0.0148015 -0.00089181 -0.00278587
0.0163535 -0.00120444 -0.00543287
0.0181937 0.00063244 -0.00451325
0.0198884 0.00380063 -0.00339021
0.0218879 0.00760295 -0.00295915
0.0256383 0.0128588 -0.00225836
0.0288426 0.0196696 -0.00128802
0.023598 0.0115586 -0.000207216
0.0240022 3.05555e-10 0.000655798
0.0272916 -0.00676226 0.00154467
0.0313607 -0.0133728 0.00213326
0.0326166 -0.0115385 0.00185633
0.0319312 -0.00830601 0.00142456
0.0303997 -0.00563646 0.000694628
0.0288108 -0.00370164 8.10142e-06
0.0275671 -0.00230407 -0.000304064
0.0267296 -0.00134745 -0.000299529
0.0262044 -0.000755789 -0.000191403
0.0258843 -0.000418547 -9.99137e-05
0.0256913 -0.000233444 -4.6936e-05
0.0255755 -0.000132348 -2.08945e-05
0.025506 -7.65178e-05 -9.08313e-06
0.0254641 -4.51521e-05 -3.92962e-06
0.0254386 -2.71867e-05 -1.7137e-06
0.025423 -1.66881e-05 -7.59451e-07
0.0254133 -1.0429e-05 -3.42967e-07
0.0254071 -6.62495e-06 -1.57213e-07
0.0254032 -4.27067e-06 -7.22604e-08
0.0254007 -2.78915e-06 -3.25333e-08
0.025399 -1.84261e-06 -1.37291e-08
0.0253979 -1.22957e-06 -4.88374e-09
0.0253972 -8.27685e-07 -8.72092e-10
0.0253967 -5.61409e-07 7.83237e-10
0.0253963 -3.83345e-07 1.30971e-09
0.0253961 -2.63334e-07 1.32166e-09
0.0253959 -1.81913e-07 1.12322e-09
0.0253958 -1.26364e-07 8.58178e-10
0.0253958 -8.82523e-08 5.85934e-10
0.0253957 -6.18793e-08 3.19857e-10
0.0253957 -4.32749e-08 4.43967e-11
0.0253956 -2.95036e-08 -2.79132e-10
0.0253956 -1.81447e-08 -7.11871e-10
0.0253956 -6.83309e-09 -1.35461e-09
0.0253956 7.20307e-09 -2.33053e-09
0.0253956 2.787e-08 -3.71168e-09
0.0253956 6.13329e-08 -6.22299e-09
0.0253956 1.16988e-07 -9.79927e-09
0.0253957 2.20385e-07 -2.4594e-08
0.0253958 4.0092e-07 -1.2074e-07
0.0253959 5.12872e-07 -2.03979e-07
0.01 -9.26821e-07 -2.8061e-06
0.0100008 -0.000553326 -0.00228791
0.0114998 -0.000477681 -0.00421144