# vtk DataFile Version 2.0
Tobias Weinzierl: CPU, Manycore and Cluster Computing
ASCII

DATASET STRUCTURED_POINTS
DIMENSIONS  51 11 6

ORIGIN 0 0 0 

SPACING 0.1 0.1 0.1 

POINT_DATA 3366

VECTORS velocity float
0 0 0
-4.31963e-13 0 0
9.38514e-09 0 0
-1.26828e-08 0 0
-7.9727e-08 0 0
-3.07441e-08 0 0
-2.13104e-08 0 0
-1.89938e-08 0 0
-1.09918e-08 0 0
-2.2013e-09 0 0
-2.42064e-09 0 0
-1.46785e-08 0 0
-3.16394e-08 0 0
-4.39233e-08 0 0
-4.8205e-08 0 0
-4.74485e-08 0 0
-4.58053e-08 0 0
-4.53317e-08 0 0
-4.61231e-08 0 0
-4.75464e-08 0 0
-4.9027e-08 0 0
-5.0262e-08 0 0
-5.11666e-08 0 0
-5.177e-08 0 0
-5.21419e-08 0 0
-5.23532e-08 0 0
-5.24614e-08 0 0
-5.25081e-08 0 0
-5.25208e-08 0 0
-5.25166e-08 0 0
-5.25057e-08 0 0
-5.24934e-08 0 0
-5.24823e-08 0 0
-5.24735e-08 0 0
-5.2467e-08 0 0
-5.24627e-08 0 0
-5.24602e-08 0 0
-5.2459e-08 0 0
-5.24588e-08 0 0
-5.24594e-08 0 0
-5.24604e-08 0 0
-5.24617e-08 0 0
-5.24631e-08 0 0
-5.24647e-08 0 0
-5.24662e-08 0 0
-5.24677e-08 0 0
-5.24692e-08 0 0
-5.24709e-08 0 0
-5.24729e-08 0 0
-5.24772e-08 0 0
0.00213237 0 0
0 3.95664e-07 0
-4.55051e-12 -1.10527e-08 0
1.82317e-08 -1.43185e-08 0
-1.3607e-08 7.87439e-09 0
-1.09958e-07 -1.50852e-08 0
-3.07616e-08 -1.20131e-08 0
-2.91959e-08 4.51649e-08 0
-4.10875e-08 5.3325e-08 0
-3.6305e-08 3.49538e-08 0
-2.29152e-08 2.16482e-08 0
-1.85625e-08 2.1053e-08 0
-3.33062e-08 2.59063e-08 0
-5.90212e-08 2.45163e-08 0
-7.90155e-08 1.52531e-08 0
-8.64035e-08 5.23309e-09 0
-8.69164e-08 1.15804e-11 0
-8.79428e-08 -6.46539e-10 0
-9.20348e-08 5.14076e-10 0
-9.81521e-08 1.55686e-09 0
-1.045e-07 1.92614e-09 0
-1.09907e-07 1.77505e-09 0
-1.13966e-07 1.39069e-09 0
-1.16749e-07 9.74709e-10 0
-1.18521e-07 6.23007e-10 0
-1.19575e-07 3.62538e-10 0
-1.20156e-07 1.86708e-10 0
-1.20444e-07 7.71391e-11 0
-1.20564e-07 1.44176e-11 0
-1.20593e-07 -1.76512e-11 0
-1.20578e-07 -3.10457e-11 0
-1.20547e-07 -3.39297e-11 0
-1.20513e-07 -3.15045e-11 0
-1.20482e-07 -2.68715e-11 0
-1.20457e-07 -2.17447e-11 0
-1.20439e-07 -1.69753e-11 0
-1.20426e-07 -1.29114e-11 0
-1.20418e-07 -9.6282e-12 0
-1.20413e-07 -7.06811e-12 0
-1.20411e-07 -5.12023e-12 0
-1.20411e-07 -3.66268e-12 0
-1.20413e-07 -2.58246e-12 0
-1.20415e-07 -1.78261e-12 0
-1.20417e-07 -1.18211e-12 0
-1.2042e-07 -7.12044e-13 0
-1.20423e-07 -3.08688e-13 0
-1.20426e-07 1.04819e-13 0
-1.20429e-07 6.31655e-13 0
-1.20433e-07 1.49567e-12 0
-1.20438e-07 3.8451e-12 0
-1.20448e-07 1.02829e-11 0
0.0060333 -7.7336e-08 0
0 -2.17538e-08 0
-6.8678e-12 -9.62115e-09 0
2.86454e-08 -3.01517e-08 0
3.08913e-08 -5.95456e-08 0
-7.8059e-09 -1.25997e-07 0
5.99119e-08 -9.19861e-08 0
1.59753e-08 1.77705e-08 0
-3.44123e-08 3.9354e-08 0
-6.23203e-08 2.94229e-08 0
-5.38825e-08 2.30758e-08 0
-4.04742e-08 1.6434e-08 0
-4.36909e-08 1.01882e-08 0
-6.25294e-08 9.62808e-09 0
-7.89314e-08 1.48129e-08 0
-8.31252e-08 2.09512e-08 0
-8.07684e-08 2.41332e-08 0
-7.9876e-08 2.3662e-08 0
-8.31956e-08 2.0696e-08 0
-8.93722e-08 1.66083e-08 0
-9.61174e-08 1.24161e-08 0
-1.01899e-07 8.72657e-09 0
-1.06165e-07 5.79745e-09 0
-1.08989e-07 3.64527e-09 0
-1.10695e-07 2.15976e-09 0
-1.11633e-07 1.18909e-09 0
-1.1209e-07 5.87629e-10 0
-1.12268e-07 2.35895e-10 0
-1.12299e-07 4.45229e-11 0
-1.1226e-07 -4.90183e-11 0
-1.12197e-07 -8.61775e-11 0
-1.12132e-07 -9.31023e-11 0
-1.12075e-07 -8.548e-11 0
-1.12028e-07 -7.22031e-11 0
-1.11993e-07 -5.79587e-11 0
-1.11968e-07 -4.49562e-11 0
-1.11951e-07 -3.40258e-11 0
-1.1194e-07 -2.52844e-11 0
-1.11933e-07 -1.85205e-11 0
-1.1193e-07 -1.3404e-11 0
-1.11929e-07 -9.59184e-12 0
-1.1193e-07 -6.77459e-12 0
-1.11932e-07 -4.69031e-12 0
-1.11934e-07 -3.12113e-12 0
-1.11936e-07 -1.87736e-12 0
-1.11939e-07 -7.74353e-13 0
-1.11942e-07 4.19346e-13 0
-1.11946e-07 2.14327e-12 0
-1.1195e-07 5.16971e-12 0
-1.11954e-07 1.02938e-11 0
-1.11961e-07 1.81747e-11 0
0.0084338 -1.50524e-07 0
0 -6.41908e-07 0
-4.02423e-12 -1.62948e-08 0
3.70083e-08 -5.58532e-08 0
5.14409e-08 -1.08072e-07 0
2.2586e-09 -1.46202e-07 0
5.99305e-08 -7.77307e-08 0
2.38741e-08 -5.36508e-11 0
-1.23197e-08 -8.21738e-09 0
-6.67241e-08 -3.16809e-08 0
-7.13526e-08 -5.31611e-08 0
-6.28896e-08 -5.80887e-08 0
-7.37462e-08 -4.28837e-08 0
-9.62818e-08 -9.7519e-09 0
-1.11816e-07 2.22455e-08 0
-1.10398e-07 3.89438e-08 0
-9.76779e-08 4.13271e-08 0
-8.34373e-08 3.63793e-08 0
-7.36977e-08 2.92663e-08 0
-6.93253e-08 2.2158e-08 0
-6.84535e-08 1.58306e-08 0
-6.90128e-08 1.06359e-08 0
-6.97625e-08 6.68889e-09 0
-7.02363e-08 3.90174e-09 0
-7.03874e-08 2.06378e-09 0
-7.03152e-08 9.30655e-10 0
-7.01304e-08 2.8187e-10 0
-6.99126e-08 -5.56773e-11 0
-6.97068e-08 -2.05764e-10 0
-6.95327e-08 -2.50771e-10 0
-6.93952e-08 -2.42213e-10 0
-6.92917e-08 -2.10373e-10 0
-6.92166e-08 -1.71843e-10 0
-6.91638e-08 -1.34884e-10 0
-6.91277e-08 -1.02976e-10 0
-6.9104e-08 -7.70432e-11 0
-6.90891e-08 -5.6771e-11 0
-6.90805e-08 -4.13419e-11 0
-6.90761e-08 -2.98201e-11 0
-6.90746e-08 -2.13312e-11 0
-6.9075e-08 -1.51316e-11 0
-6.90767e-08 -1.06198e-11 0
-6.9079e-08 -7.31981e-12 0
-6.90818e-08 -4.85406e-12 0
-6.90846e-08 -2.90739e-12 0
-6.90875e-08 -1.17091e-12 0
-6.90903e-08 7.01848e-13 0
-6.90928e-08 3.02229e-12 0
-6.90949e-08 5.97877e-12 0
-6.90955e-08 9.81861e-12 0
-6.90978e-08 1.50923e-11 0
0.00924967 -1.44078e-07 0
0 -1.23661e-06 0
-2.09186e-11 -2.8384e-08 0
1.65526e-08 -7.60799e-08 0
9.13119e-09 -9.66838e-08 0
-4.29508e-08 -7.45574e-08 0
-2.05157e-11 -2.5603e-08 0
-9.35704e-11 -1.74488e-10 0
1.3237e-10 -1.6006e-10 0
-2.9718e-08 -3.20971e-08 0
-8.32533e-08 -8.08665e-08 0
-9.98098e-08 -8.93785e-08 0
-1.12208e-07 -5.81024e-08 0
-1.30288e-07 -9.17872e-09 0
-1.40986e-07 2.98507e-08 0
-1.38001e-07 4.37499e-08 0
-1.21846e-07 3.9685e-08 0
-9.92683e-08 2.99497e-08 0
-7.87841e-08 2.11819e-08 0
-6.45957e-08 1.44876e-08 0
-5.62558e-08 9.34553e-09 0
-5.16253e-08 5.43157e-09 0
-4.89215e-08 2.64107e-09 0
-4.7161e-08 8.38533e-10 0
-4.59093e-08 -1.91693e-10 0
-4.49887e-08 -6.8659e-10 0
-4.43147e-08 -8.50006e-10 0
-4.38316e-08 -8.31453e-10 0
-4.3494e-08 -7.28414e-10 0
-4.32638e-08 -5.9822e-10 0
-4.31104e-08 -4.70982e-10 0
-4.30102e-08 -3.60079e-10 0
-4.29464e-08 -2.69516e-10 0
-4.29067e-08 -1.98588e-10 0
-4.28831e-08 -1.44604e-10 0
-4.28699e-08 -1.04343e-10 0
-4.28635e-08 -7.47609e-11 0
-4.28613e-08 -5.32619e-11 0
-4.28619e-08 -3.77632e-11 0
-4.2864e-08 -2.6653e-11 0
-4.28671e-08 -1.87136e-11 0
-4.28706e-08 -1.30382e-11 0
-4.28743e-08 -8.95471e-12 0
-4.28779e-08 -5.95845e-12 0
-4.28812e-08 -3.6631e-12 0
-4.28842e-08 -1.78852e-12 0
-4.28865e-08 -1.65554e-13 0
-4.28881e-08 1.30299e-12 0
-4.28887e-08 2.76938e-12 0
-4.28877e-08 4.63391e-12 0
-4.28882e-08 7.60632e-12 0
0.00947615 -8.10941e-08 0
0 -1.1088e-06 0
-3.73501e-11 -2.95015e-08 0
-2.09595e-09 -6.1545e-08 0
-1.73393e-08 -7.615e-08 0
-6.41093e-08 -8.80685e-08 0
-4.4214e-08 -4.39712e-08 0
-1.10749e-10 1.00606e-10 0
3.16854e-11 -3.16854e-11 0
1.13906e-10 -1.50869e-10 0
-4.50702e-08 -4.25911e-08 0
-1.09977e-07 -9.18698e-08 0
-1.12835e-07 -6.87567e-08 0
-1.18391e-07 -7.64094e-09 0
-1.27993e-07 3.81308e-08 0
-1.37584e-07 4.99451e-08 0
-1.34037e-07 3.78666e-08 0
-1.14315e-07 2.07288e-08 0
-8.90256e-08 8.61598e-09 0
-6.82126e-08 2.00519e-09 0
-5.46485e-08 -1.38468e-09 0
-4.67361e-08 -3.07588e-09 0
-4.22235e-08 -3.73599e-09 0
-3.95772e-08 -3.72664e-09 0
-3.79677e-08 -3.33108e-09 0
-3.6969e-08 -2.77093e-09 0
-3.63498e-08 -2.19258e-09 0
-3.59719e-08 -1.6743e-09 0
-3.57472e-08 -1.24627e-09 0
-3.56182e-08 -9.10779e-10 0
-3.55478e-08 -6.56886e-10 0
-3.55123e-08 -4.69339e-10 0
-3.54971e-08 -3.33112e-10 0
-3.54933e-08 -2.35317e-10 0
-3.54955e-08 -1.65681e-10 0
-3.55009e-08 -1.16377e-10 0
-3.55076e-08 -8.16013e-11 0
-3.55148e-08 -5.71369e-11 0
-3.55219e-08 -3.99536e-11 0
-3.55287e-08 -2.78934e-11 0
-3.5535e-08 -1.94265e-11 0
-3.55407e-08 -1.34715e-11 0
-3.55459e-08 -9.26603e-12 0
-3.55505e-08 -6.28125e-12 0
-3.55545e-08 -4.16341e-12 0
-3.55578e-08 -2.67948e-12 0
-3.55603e-08 -1.66472e-12 0
-3.5562e-08 -1.01791e-12 0
-3.55629e-08 -6.98886e-13 0
-3.55623e-08 -5.18829e-13 0
-3.55628e-08 9.79037e-14 0
0.00951868 3.335e-09 0
0 -7.72693e-07 0
-2.90719e-11 -2.15679e-08 0
-3.17483e-09 -5.33518e-08 0
-1.79734e-08 -6.46664e-08 0
-8.23498e-08 -5.82055e-08 0
-1.04091e-07 -3.07378e-08 0
-3.56687e-08 -5.4122e-09 0
-1.04494e-10 9.67382e-11 0
1.7082e-11 -1.7082e-11 0
8.57218e-11 -1.42116e-10 0
-4.8725e-08 -5.01272e-08 0
-6.79301e-08 -6.81327e-08 0
-6.96074e-08 1.13524e-09 0
-7.6614e-08 5.51082e-08 0
-9.99156e-08 6.50868e-08 0
-1.18855e-07 4.22961e-08 0
-1.1455e-07 1.41358e-08 0
-9.37553e-08 -3.74004e-09 0
-7.20652e-08 -1.11162e-08 0
-5.71063e-08 -1.26246e-08 0
-4.88304e-08 -1.16127e-08 0
-4.48264e-08 -9.69788e-09 0
-4.30719e-08 -7.62088e-09 0
-4.23906e-08 -5.73317e-09 0
-4.21922e-08 -4.17788e-09 0
-4.21979e-08 -2.97638e-09 0
-4.22797e-08 -2.08806e-09 0
-4.23804e-08 -1.45056e-09 0
-4.24762e-08 -1.00197e-09 0
-4.25585e-08 -6.9018e-10 0
-4.26258e-08 -4.75014e-10 0
-4.26794e-08 -3.27054e-10 0
-4.27217e-08 -2.25424e-10 0
-4.27549e-08 -1.55589e-10 0
-4.27811e-08 -1.07544e-10 0
-4.28018e-08 -7.44327e-11 0
-4.28185e-08 -5.15721e-11 0
-4.28321e-08 -3.57597e-11 0
-4.28433e-08 -2.48037e-11 0
-4.28526e-08 -1.72016e-11 0
-4.28604e-08 -1.19246e-11 0
-4.2867e-08 -8.27098e-12 0
-4.28726e-08 -5.7651e-12 0
-4.28773e-08 -4.08813e-12 0
-4.28812e-08 -3.03859e-12 0
-4.28843e-08 -2.51228e-12 0
-4.28867e-08 -2.51273e-12 0
-4.28884e-08 -3.21806e-12 0
-4.28887e-08 -4.86706e-12 0
-4.28897e-08 -7.2157e-12 0
0.00947612 8.59051e-08 0
0 -5.42712e-07 0
-1.96927e-11 -1.69105e-08 0
-3.81348e-09 -4.10681e-08 0
-2.67355e-08 -4.87703e-08 0
-8.45827e-08 -3.61718e-08 0
-1.19984e-07 -1.11511e-08 0
-8.9738e-08 -4.62768e-09 0
-4.2522e-08 -5.03897e-09 0
-1.20942e-10 7.25724e-11 0
8.30396e-11 5.69009e-11 0
4.95467e-12 -2.54093e-08 0
-5.27209e-08 -2.91051e-08 0
-6.46655e-08 2.30699e-08 0
-4.26078e-08 6.72721e-08 0
-3.90961e-08 7.16437e-08 0
-6.39577e-08 4.34817e-08 0
-8.43557e-08 1.03477e-08 0
-8.49501e-08 -1.03011e-08 0
-7.57748e-08 -1.77566e-08 0
-6.77653e-08 -1.77221e-08 0
-6.39691e-08 -1.47879e-08 0
-6.32504e-08 -1.12835e-08 0
-6.39564e-08 -8.15959e-09 0
-6.50553e-08 -5.70202e-09 0
-6.60895e-08 -3.90121e-09 0
-6.69182e-08 -2.63795e-09 0
-6.75354e-08 -1.77471e-09 0
-6.79787e-08 -1.1932e-09 0
-6.82919e-08 -8.03899e-10 0
-6.85118e-08 -5.43515e-10 0
-6.86665e-08 -3.68963e-10 0
-6.87759e-08 -2.51487e-10 0
-6.8854e-08 -1.72056e-10 0
-6.89104e-08 -1.18099e-10 0
-6.89517e-08 -8.12863e-11 0
-6.89825e-08 -5.60733e-11 0
-6.90058e-08 -3.87484e-11 0
-6.90238e-08 -2.68121e-11 0
-6.9038e-08 -1.85732e-11 0
-6.90494e-08 -1.28831e-11 0
-6.90586e-08 -8.96033e-12 0
-6.90662e-08 -6.27433e-12 0
-6.90725e-08 -4.47056e-12 0
-6.90778e-08 -3.32507e-12 0
-6.90823e-08 -2.72312e-12 0
-6.90859e-08 -2.65414e-12 0
-6.90889e-08 -3.21743e-12 0
-6.90915e-08 -4.76314e-12 0
-6.90931e-08 -8.16852e-12 0
-6.90957e-08 -1.40595e-11 0
0.00924962 1.4247e-07 0
0 -4.66825e-07 0
-1.27958e-11 -1.01254e-08 0
-6.38458e-09 -2.71741e-08 0
-4.04577e-08 -3.52064e-08 0
-9.90924e-08 -2.62495e-08 0
-1.34279e-07 1.2164e-10 0
-1.15689e-07 8.13522e-09 0
-9.23857e-08 -2.88056e-08 0
-5.5636e-08 -2.87287e-08 0
-4.59408e-08 -2.13204e-12 0
-5.57224e-08 1.10435e-08 0
-1.17257e-07 3.06186e-08 0
-1.32706e-07 4.03633e-08 0
-7.13711e-08 3.91063e-08 0
-1.95571e-08 3.04375e-08 0
-3.2116e-08 1.67406e-08 0
-7.09392e-08 3.28816e-09 0
-9.40402e-08 -5.62562e-09 0
-9.97255e-08 -9.13244e-09 0
-9.98987e-08 -9.0643e-09 0
-1.00572e-07 -7.52093e-09 0
-1.02398e-07 -5.71408e-09 0
-1.04599e-07 -4.13193e-09 0
-1.06585e-07 -2.90275e-09 0
-1.08145e-07 -2.00694e-09 0
-1.09286e-07 -1.37726e-09 0
-1.10089e-07 -9.43047e-10 0
-1.10643e-07 -6.46143e-10 0
-1.11024e-07 -4.4356e-10 0
-1.11286e-07 -3.05179e-10 0
-1.11467e-07 -2.10419e-10 0
-1.11593e-07 -1.4535e-10 0
-1.11682e-07 -1.00552e-10 0
-1.11746e-07 -6.96417e-11 0
-1.11792e-07 -4.82748e-11 0
-1.11826e-07 -3.34836e-11 0
-1.11852e-07 -2.32338e-11 0
-1.11871e-07 -1.61269e-11 0
-1.11886e-07 -1.11999e-11 0
-1.11898e-07 -7.78915e-12 0
-1.11908e-07 -5.43937e-12 0
-1.11916e-07 -3.84184e-12 0
-1.11923e-07 -2.79571e-12 0
-1.11928e-07 -2.18485e-12 0
-1.11933e-07 -1.96999e-12 0
-1.11937e-07 -2.20608e-12 0
-1.11941e-07 -3.05856e-12 0
-1.11944e-07 -4.92438e-12 0
-1.11948e-07 -9.05195e-12 0
-1.11954e-07 -1.70515e-11 0
0.00843376 1.39203e-07 0
0 -4.85953e-07 0
-3.44159e-12 -3.50915e-09 0
-9.72611e-09 -1.14344e-08 0
-4.94425e-08 -1.62189e-08 0
-1.0313e-07 -1.25906e-08 0
-1.36365e-07 -5.76661e-09 0
-1.23628e-07 -2.94181e-09 0
-1.05183e-07 -1.70014e-08 0
-1.21553e-07 -1.95704e-08 0
-1.10042e-07 6.33011e-09 0
-1.0006e-07 3.45155e-08 0
-1.02309e-07 4.84737e-08 0
-9.07012e-08 3.54795e-08 0
-4.51151e-08 6.00277e-09 0
-1.81212e-08 -1.9752e-08 0
-4.33402e-08 -2.7682e-08 0
-8.6138e-08 -1.90348e-08 0
-1.10993e-07 -6.47567e-09 0
-1.17125e-07 8.56391e-10 0
-1.16291e-07 2.66418e-09 0
-1.15162e-07 1.99129e-09 0
-1.15158e-07 9.34379e-10 0
-1.15893e-07 2.03921e-10 0
-1.16847e-07 -1.58113e-10 0
-1.17735e-07 -2.81926e-10 0
-1.18454e-07 -2.864e-10 0
-1.18997e-07 -2.44179e-10 0
-1.19394e-07 -1.91515e-10 0
-1.19677e-07 -1.4346e-10 0
-1.19879e-07 -1.04588e-10 0
-1.20023e-07 -7.49906e-11 0
-1.20125e-07 -5.32068e-11 0
-1.20198e-07 -3.74931e-11 0
-1.20252e-07 -2.6298e-11 0
-1.20291e-07 -1.83848e-11 0
-1.2032e-07 -1.28209e-11 0
-1.20343e-07 -8.92322e-12 0
-1.2036e-07 -6.2009e-12 0
-1.20374e-07 -4.30521e-12 0
-1.20385e-07 -2.99097e-12 0
-1.20394e-07 -2.08814e-12 0
-1.20401e-07 -1.48198e-12 0
-1.20408e-07 -1.10063e-12 0
-1.20413e-07 -9.07687e-13 0
-1.20418e-07 -9.0427e-13 0
-1.20422e-07 -1.1446e-12 0
-1.20426e-07 -1.75741e-12 0
-1.20431e-07 -2.97262e-12 0
-1.20436e-07 -5.3922e-12 0
-1.20446e-07 -1.0305e-11 0
0.00603332 6.41336e-08 0
0 0 0
1.02696e-12 0 0
-5.41923e-09 0 0
-2.45919e-08 0 0
-4.75958e-08 0 0
-6.21719e-08 0 0
-6.20124e-08 0 0
-5.53162e-08 0 0
-6.59401e-08 0 0
-6.41044e-08 0 0
-4.43316e-08 0 0
-1.91517e-08 0 0
-2.29052e-09 0 0
5.27774e-09 0 0
-2.79859e-09 0 0
-2.48949e-08 0 0
-4.57501e-08 0 0
-5.55948e-08 0 0
-5.67079e-08 0 0
-5.47334e-08 0 0
-5.28343e-08 0 0
-5.1788e-08 0 0
-5.14243e-08 0 0
-5.14294e-08 0 0
-5.1582e-08 0 0
-5.17658e-08 0 0
-5.19319e-08 0 0
-5.20659e-08 0 0
-5.21682e-08 0 0
-5.2244e-08 0 0
-5.22995e-08 0 0
-5.234e-08 0 0
-5.23697e-08 0 0
-5.23917e-08 0 0
-5.24081e-08 0 0
-5.24205e-08 0 0
-5.24302e-08 0 0
-5.24378e-08 0 0
-5.24438e-08 0 0
-5.24488e-08 0 0
-5.2453e-08 0 0
-5.24565e-08 0 0
-5.24594e-08 0 0
-5.2462e-08 0 0
-5.24643e-08 0 0
-5.24664e-08 0 0
-5.24685e-08 0 0
-5.24708e-08 0 0
-5.24739e-08 0 0
-5.24794e-08 0 0
0.00213239 0 0
0 0 5.4248e-07
-5.98389e-13 0 1.65052e-09
2.32751e-08 0 2.69839e-08
-1.41427e-09 0 8.12208e-08
-2.07771e-07 0 3.31297e-08
-8.28636e-08 0 -4.64201e-08
-3.9342e-08 0 -5.69317e-08
-1.02163e-08 0 -6.36598e-08
1.90645e-08 0 -5.17623e-08
4.69724e-08 0 -3.02351e-08
5.84988e-08 0 -8.59129e-09
4.17832e-08 0 3.29712e-09
4.46936e-09 0 4.71338e-09
-3.42549e-08 0 1.29755e-09
-6.10228e-08 0 -1.72257e-09
-7.58157e-08 0 -2.42562e-09
-8.49714e-08 0 -1.48442e-09
-9.2988e-08 0 -2.10222e-10
-1.0089e-07 0 6.44279e-10
-1.08085e-07 0 9.64413e-10
-1.13939e-07 0 9.27553e-10
-1.18263e-07 0 7.36217e-10
-1.21217e-07 0 5.20927e-10
-1.23105e-07 0 3.40308e-10
-1.24237e-07 0 2.08899e-10
-1.24871e-07 0 1.21392e-10
-1.25194e-07 0 6.67091e-11
-1.25335e-07 0 3.4265e-11
-1.25377e-07 0 1.59271e-11
-1.25369e-07 0 6.09614e-12
-1.25341e-07 0 1.17497e-12
-1.25308e-07 0 -1.0353e-12
-1.25277e-07 0 -1.82476e-12
-1.25252e-07 0 -1.92135e-12
-1.25233e-07 0 -1.71864e-12
-1.25219e-07 0 -1.41836e-12
-1.25211e-07 0 -1.11609e-12
-1.25206e-07 0 -8.51039e-13
-1.25203e-07 0 -6.33997e-13
-1.25203e-07 0 -4.62437e-13
-1.25204e-07 0 -3.28273e-13
-1.25206e-07 0 -2.21566e-13
-1.25208e-07 0 -1.31482e-13
-1.25211e-07 0 -4.65579e-14
-1.25213e-07 0 4.46798e-14
-1.25216e-07 0 1.58044e-13
-1.2522e-07 0 2.86395e-13
-1.25223e-07 0 3.95064e-13
-1.25228e-07 0 1.19079e-12
-1.25238e-07 0 5.27312e-12
0.00599994 0 -2.71502e-08
0.0036 -2.95013e-07 -5.21764e-08
0.00359982 -0.0013119 9.9159e-06
0.00674588 -0.00381462 5.65683e-05
0.0136102 -0.00630974 -0.000961133
0.0239286 -0.0143474 -0.00467998
0.046105 -0.0125914 -0.00495176
0.0494708 -0.00155545 -0.00168951
0.0491639 0.00286652 -0.000181196
0.0440427 0.00513893 0.000556317
0.0383229 0.00530538 0.000532453
0.0331808 0.00461764 0.000238156
0.0289324 0.00362418 -8.00273e-05
0.0256117 0.00258691 -0.00029949
0.0231244 0.00170227 -0.000365213
0.0213218 0.00107261 -0.000305391
0.0200465 0.000679276 -0.000196691
0.0191634 0.000443465 -0.000101218
0.0185659 0.000295882 -4.05929e-05
0.0181724 0.000197168 -1.00412e-05
0.0179206 0.000128874 2.15139e-06
0.0177646 8.18592e-05 5.36123e-06
0.0176709 5.03178e-05 5.02541e-06
0.0176165 2.98354e-05 3.72119e-06
0.0175862 1.69751e-05 2.45247e-06
0.0175702 9.17042e-06 1.49969e-06
0.0175623 4.60137e-06 8.65361e-07
0.0175589 2.03492e-06 4.7319e-07
0.0175578 6.67463e-07 2.43638e-07
0.0175578 -7.18403e-09 1.15521e-07
0.0175583 -2.97838e-07 4.7443e-08
0.017559 -3.86906e-07 1.34004e-08
0.0175596 -3.78406e-07 -2.14337e-09
0.0175601 -3.29197e-07 -8.10486e-09
0.0175606 -2.68649e-07 -9.41274e-09
0.0175609 -2.10676e-07 -8.68463e-09
0.0175612 -1.60862e-07 -7.24377e-09
0.0175613 -1.2057e-07 -5.71322e-09
0.0175615 -8.92118e-08 -4.35221e-09
0.0175616 -6.54578e-08 -3.24109e-09
0.0175617 -4.78393e-08 -2.38039e-09
0.0175617 -3.5023e-08 -1.7439e-09
0.0175618 -2.5916e-08 -1.30611e-09
0.0175618 -1.96898e-08 -1.05485e-09
0.0175618 -1.57885e-08 -1.00514e-09
0.0175618 -1.39172e-08 -1.16593e-09
0.0175619 -1.40735e-08 -1.45657e-09
0.0175619 -1.67606e-08 -1.51007e-09
0.0175619 -2.25791e-08 1.53166e-09
0.017562 -4.55093e-08 3.10421e-09
0.0175621 -1.46637e-07 -4.3842e-08
0.0175624 -2.28594e-07 -8.94385e-08
0.01 -1.41177e-07 -1.44823e-06
0.0100008 -0.0029934 -0.000537868
0.0148766 -0.00989503 -0.000742107
0.0241226 -0.0177938 -0.00156369
0.0380599 -0.0318527 -0.00357118
0.0582657 -0.0237516 -0.000840394
0.0556889 -0.00227803 0.00288809
0.0552972 0.00550738 0.00300618
0.0495833 0.010532 0.00261963
0.0441084 0.010618 0.0017618
0.0396316 0.00942352 0.000830837
0.0359024 0.00785362 6.80927e-05
0.0328441 0.00619626 -0.000428608
0.0304804 0.00463787 -0.000601762
0.0287322 0.00331532 -0.000519929
0.0274868 0.00228611 -0.000339014
0.0266303 0.001533 -0.000176633
0.0260606 0.00100376 -7.24815e-05
0.0256947 0.000642018 -1.92528e-05
0.0254687 0.000400615 2.56595e-06
0.025335 0.000243422 8.78516e-06
0.0252596 0.000143658 8.67158e-06
0.0252195 8.19936e-05 6.6805e-06
0.0251999 4.49087e-05 4.59645e-06
0.0251915 2.32553e-05 2.96128e-06
0.025189 1.10345e-05 1.826e-06
0.0251892 4.42385e-06 1.09014e-06
0.0251905 1.05231e-06 6.34105e-07
0.0251922 -5.12676e-07 3.60513e-07
0.0251937 -1.11346e-06 2.00548e-07
0.025195 -1.23078e-06 1.09064e-07
0.0251961 -1.1294e-06 5.78085e-08
0.0251969 -9.48578e-07 2.96769e-08
0.0251975 -7.56827e-07 1.45795e-08
0.025198 -5.84229e-07 6.69027e-09
0.0251983 -4.40965e-07 2.7087e-09
0.0251985 -3.27636e-07 7.98601e-10
0.0251987 -2.40793e-07 -4.30189e-11
0.0251988 -1.75756e-07 -3.53338e-10
0.0251989 -1.27943e-07 -4.14509e-10
0.025199 -9.3421e-08 -3.75192e-10
0.025199 -6.90769e-08 -3.20226e-10
0.0251991 -5.26172e-08 -3.00665e-10
0.0251991 -4.25498e-08 -3.59138e-10
0.0251991 -3.82709e-08 -4.87628e-10
0.0251991 -4.01491e-08 -2.78315e-10
0.0251992 -5.18286e-08 8.5438e-10
0.0251992 -8.70411e-08 4.97445e-09
0.0251993 -1.67357e-07 1.6651e-09
0.0251995 -3.26356e-07 -8.0578e-08
0.0251996 -4.31189e-07 -1.56262e-07
0.0148 -9.6808e-07 -1.73838e-06
0.0148023 -0.0052748 -0.00109221
0.0202415 -0.0162305 -0.00238009
0.0270445 -0.0282263 -0.004068
0.0315243 -0.0450622 -0.00562021
0.0300332 -0.0278111 -0.0011563
0.0264861 -1.20031e-05 0.00313807
0.0260996 0.00723432 0.00320026
0.0300223 0.0148942 0.00302966
0.0304946 0.014492 0.00207508
0.0296107 0.0127619 0.00108323
0.0286306 0.0108382 0.000225109
0.0278463 0.00863061 -0.000304689
0.0274837 0.00638431 -0.000484291
0.0274083 0.00446252 -0.00041181
0.0274615 0.00300031 -0.000250598
0.0275444 0.00196487 -0.000108855
0.0276171 0.00125919 -2.12971e-05
0.0276737 0.000788014 1.87997e-05
0.0277189 0.000479198 2.98914e-05
0.0277567 0.000281609 2.75605e-05
0.0277883 0.000158871 2.10364e-05
0.0278143 8.51256e-05 1.45349e-05
0.0278347 4.24137e-05 9.44065e-06
0.0278503 1.86991e-05 5.87727e-06
0.0278618 6.21591e-06 3.54563e-06
0.02787 1.31647e-07 2.08616e-06
0.0278759 -2.45939e-06 1.20157e-06
0.02788 -3.24586e-06 6.78746e-07
0.0278828 -3.174e-06 3.76162e-07
0.0278847 -2.75155e-06 2.04283e-07
0.027886 -2.23564e-06 1.08367e-07
0.027887 -1.74529e-06 5.58049e-08
0.0278876 -1.3267e-06 2.75742e-08
0.027888 -9.89963e-07 1.27753e-08
0.0278883 -7.28976e-07 5.26236e-09
0.0278885 -5.31748e-07 1.62372e-09
0.0278887 -3.85409e-07 -4.56135e-12
0.0278888 -2.78376e-07 -6.22763e-10
0.0278888 -2.01096e-07 -7.56959e-10
0.0278889 -1.46108e-07 -6.79237e-10
0.0278889 -1.07854e-07 -5.31598e-10
0.0278889 -8.24457e-08 -3.8221e-10
0.027889 -6.7485e-08 -2.26386e-10
0.027889 -6.22906e-08 3.40682e-11
0.027889 -6.92888e-08 6.97886e-10
0.027889 -9.41716e-08 1.46019e-09
0.0278891 -1.44497e-07 9.9099e-10
0.0278891 -2.27308e-07 -1.7302e-08
0.0278892 -3.43066e-07 -1.20778e-07
0.0278891 -4.0859e-07 -2.06727e-07
0.018 -1.96643e-06 -1.73266e-06
0.0180028 -0.00684455 -0.00188571
0.0205853 -0.0184393 -0.00489466
0.0204377 -0.0241437 -0.00634374
0.0159361 -0.0263096 -0.00750999
-1.53765e-06 -0.0137701 -0.00417628
9.89006e-05 2.82894e-05 8.77193e-07
-3.50495e-05 3.65874e-05 0.000585583
0.00683955 0.00442286 0.00125319
0.0141801 0.0101452 0.00117646
0.0176351 0.0111331 0.000746678
0.0192908 0.00995814 0.000189366
0.0209547 0.0078718 -0.000237324
0.0227005 0.0055595 -0.000380115
0.0242999 0.00366583 -0.000322108
0.0256206 0.00232115 -0.00019133
0.0266173 0.00143878 -6.97769e-05
0.0273164 0.000877118 8.64137e-06
0.0277844 0.000520161 4.33e-05
0.0280912 0.00029434 4.89382e-05
0.028291 0.000155014 4.11088e-05
0.0284207 7.28345e-05 2.98966e-05
0.0285044 2.72341e-05 1.99377e-05
0.0285579 3.91104e-06 1.25493e-05
0.0285918 -6.61002e-06 7.57675e-06
0.0286131 -1.02478e-05 4.42961e-06
0.0286263 -1.04896e-05 2.52111e-06
0.0286344 -9.27241e-06 1.40039e-06
0.0286394 -7.60311e-06 7.59217e-07
0.0286424 -5.95984e-06 4.0068e-07
0.0286443 -4.53651e-06 2.04518e-07
0.0286455 -3.38418e-06 9.96327e-08
0.0286462 -2.48872e-06 4.50443e-08
0.0286466 -1.81137e-06 1.76181e-08
0.0286469 -1.30848e-06 4.536e-09
0.0286471 -9.40073e-07 -1.17716e-09
0.0286472 -6.72886e-07 -3.24481e-09
0.0286472 -4.80646e-07 -3.60989e-09
0.0286473 -3.43309e-07 -3.25648e-09
0.0286473 -2.45952e-07 -2.66291e-09
0.0286473 -1.77704e-07 -2.05013e-09
0.0286474 -1.3084e-07 -1.51114e-09
0.0286474 -1.00127e-07 -1.07369e-09
0.0286474 -8.25681e-08 -7.6211e-10
0.0286474 -7.71152e-08 -6.65447e-10
0.0286474 -8.37845e-08 -1.1199e-09
0.0286474 -1.02407e-07 -3.47725e-09
0.0286474 -1.30775e-07 -9.65786e-09
0.0286474 -1.67509e-07 -3.87673e-08
0.0286473 -2.10248e-07 -1.47951e-07
0.0286472 -2.32404e-07 -2.32306e-07
0.0196 -2.76202e-06 -2.63148e-06
0.0196009 -0.00566222 -0.00273745
0.0190879 -0.0126635 -0.00643
0.0160695 -0.0155295 -0.00669045
0.0111005 -0.0144571 -0.00670428
0.00189309 -0.00593158 -0.00491964
7.41284e-05 -6.81198e-05 -0.00121071
3.30703e-05 -3.30703e-05 -3.99707e-08
-3.43163e-05 3.57827e-05 0.000207685
0.0043239 0.00322389 0.000433221
0.00999153 0.00752225 0.000360608
0.0128774 0.00768511 3.74463e-05
0.0161073 0.00555188 -0.000298187
0.0192618 0.00337248 -0.000405164
0.0219887 0.00178673 -0.000365081
0.0241812 0.000818046 -0.000255431
0.0258128 0.000315697 -0.000128836
0.0269339 8.54298e-05 -2.93424e-05
0.0276586 -1.54386e-05 2.46128e-05
0.0281105 -5.84863e-05 4.12165e-05
0.0283871 -7.29652e-05 3.78752e-05
0.0285544 -7.1943e-05 2.80543e-05
0.0286544 -6.31325e-05 1.84824e-05
0.0287133 -5.15428e-05 1.13029e-05
0.0287475 -4.00994e-05 6.55891e-06
0.0287671 -3.01828e-05 3.65316e-06
0.0287781 -2.22074e-05 1.96266e-06
0.0287842 -1.60862e-05 1.01667e-06
0.0287876 -1.15292e-05 5.04366e-07
0.0287893 -8.20461e-06 2.35522e-07
0.0287902 -5.81158e-06 9.92714e-08
0.0287906 -4.10432e-06 3.32642e-08
0.0287908 -2.89336e-06 3.40662e-09
0.0287909 -2.03764e-06 -8.48768e-09
0.0287909 -1.43439e-06 -1.18835e-08
0.0287909 -1.00979e-06 -1.15699e-08
0.0287909 -7.11297e-07 -9.88189e-09
0.0287909 -5.0172e-07 -7.89692e-09
0.0287909 -3.54857e-07 -6.06595e-09
0.0287909 -2.52321e-07 -4.54182e-09
0.0287909 -1.81275e-07 -3.3513e-09
0.0287909 -1.3287e-07 -2.48943e-09
0.0287909 -1.01112e-07 -1.97382e-09
0.0287908 -8.18581e-08 -1.94084e-09
0.0287908 -7.18696e-08 -2.6995e-09
0.0287908 -6.79631e-08 -4.67115e-09
0.0287908 -6.66501e-08 -9.16877e-09
0.0287908 -6.26402e-08 -1.7455e-08
0.0287907 -4.83857e-08 -4.87047e-08
0.0287906 -1.81086e-08 -1.56018e-07
0.0287905 1.46312e-09 -2.37242e-07
0.0196 -1.31774e-06 -3.6026e-06
0.0196 -0.00353905 -0.00309737
0.0188923 -0.00764876 -0.00646541
0.017649 -0.00748176 -0.00613054
0.0134692 -0.00366334 -0.00563749
0.00942245 0.00296261 -0.0051493
0.00625807 0.00325522 -0.00283752
7.42417e-05 -6.19979e-05 -0.000566983
2.76816e-05 -2.76816e-05 -1.29623e-07
-3.35907e-05 3.50418e-05 6.77821e-05
0.00320473 0.00252483 0.000335231
0.00779813 0.00395857 0.000309606
0.0131776 0.00176644 -4.69408e-05
0.0178122 9.86186e-08 -0.000242975
0.0213835 -0.000969469 -0.000330409
0.024024 -0.00130233 -0.000322739
0.0258766 -0.00120807 -0.000231853
0.0270764 -0.000937284 -0.000118211
0.0277946 -0.000666064 -3.58783e-05
0.0282008 -0.000457442 3.77312e-06
0.0284221 -0.000311063 1.50188e-05
0.0285392 -0.000210668 1.38697e-05
0.0285994 -0.000142033 9.56994e-06
0.0286292 -9.52977e-05 5.716e-06
0.0286432 -6.37097e-05 3.10316e-06
0.0286491 -4.2529e-05 1.55453e-06
0.0286511 -2.8412e-05 7.12487e-07
0.0286514 -1.90318e-05 2.85315e-07
0.028651 -1.27995e-05 8.34992e-08
0.0286503 -8.64924e-06 -3.10941e-09
0.0286497 -5.8743e-06 -3.41937e-08
0.0286491 -4.0096e-06 -4.0401e-08
0.0286487 -2.7497e-06 -3.6701e-08
0.0286483 -1.89382e-06 -2.99956e-08
0.0286481 -1.30943e-06 -2.32094e-08
0.0286479 -9.08605e-07 -1.7397e-08
0.0286477 -6.3265e-07 -1.27885e-08
0.0286476 -4.42136e-07 -9.28787e-09
0.0286476 -3.10416e-07 -6.70118e-09
0.0286475 -2.19389e-07 -4.83514e-09
0.0286475 -1.56689e-07 -3.54268e-09
0.0286474 -1.13761e-07 -2.75164e-09
0.0286474 -8.44808e-08 -2.47895e-09
0.0286474 -6.41484e-08 -2.85511e-09
0.0286474 -4.86983e-08 -4.10117e-09
0.0286474 -3.39485e-08 -6.39347e-09
0.0286473 -1.49668e-08 -1.09049e-08
0.0286473 1.5985e-08 -1.86639e-08
0.0286472 7.4304e-08 -4.61954e-08
0.0286472 1.73625e-07 -1.46524e-07
0.0286471 2.34363e-07 -2.24014e-07
0.018 -8.53846e-07 -3.56199e-06
0.0180009 -0.00188333 -0.00302211
0.0183806 -0.00349922 -0.00612029
0.0185476 -0.0020963 -0.00537026
0.0176695 0.00119739 -0.00436958
0.0174793 0.00740902 -0.00394061
0.0181782 0.0126649 -0.00274091
0.0112118 0.00693282 -0.00128232
7.58534e-05 -4.81424e-05 -0.000380704
-2.66061e-05 -5.57093e-05 5.58564e-07
7.82291e-06 -0.000405245 0.000765054
0.00882833 -0.00237811 0.00117241
0.016555 -0.00434925 0.00063901
0.0216421 -0.00457755 0.000336541
0.0246305 -0.0040997 7.02522e-05
0.026313 -0.00337012 -0.000155009
0.0272432 -0.00252149 -0.000240381
0.0277245 -0.00172003 -0.000199847
0.0279384 -0.00110016 -0.000120619
0.0280084 -0.000682206 -5.92221e-05
0.0280122 -0.000419255 -2.54276e-05
0.0279921 -0.000257804 -1.017e-05
0.0279675 -0.000159129 -4.08637e-06
0.027946 -9.87576e-05 -1.81323e-06
0.0279292 -6.17302e-05 -9.53847e-07
0.027917 -3.89298e-05 -5.87009e-07
0.0279083 -2.48038e-05 -3.94062e-07
0.0279023 -1.59786e-05 -2.72151e-07
0.0278982 -1.04086e-05 -1.8795e-07
0.0278954 -6.85351e-06 -1.28613e-07
0.0278934 -4.55783e-06 -8.71522e-08
0.027892 -3.05845e-06 -5.8626e-08
0.0278911 -2.06864e-06 -3.92746e-08
0.0278905 -1.40884e-06 -2.62826e-08
0.02789 -9.65247e-07 -1.76159e-08
0.0278897 -6.64823e-07 -1.18517e-08
0.0278895 -4.60126e-07 -8.02031e-09
0.0278893 -3.19991e-07 -5.47373e-09
0.0278892 -2.23723e-07 -3.7873e-09
0.0278892 -1.57416e-07 -2.69212e-09
0.0278891 -1.11573e-07 -2.0344e-09
0.0278891 -7.95267e-08 -1.75009e-09
0.027889 -5.63482e-08 -1.84131e-09
0.027889 -3.8029e-08 -2.38472e-09
0.027889 -2.07802e-08 -3.52115e-09
0.027889 -2.23426e-10 -5.29449e-09
0.0278889 2.94646e-08 -8.68516e-09
0.0278889 7.73438e-08 -1.43535e-08
0.0278889 1.65461e-07 -3.33772e-08
0.0278889 3.15511e-07 -1.19812e-07
0.0278889 4.07379e-07 -1.90563e-07
0.0148 -4.82127e-07 -3.14284e-06
0.0148015 -0.000940416 -0.00279338
0.0163106 -0.00134689 -0.00540763
0.0180635 0.000438037 -0.00441647
0.0196513 0.0036464 -0.00329136
0.0215897 0.00757133 -0.00295453
0.0253768 0.0129073 -0.00232826
0.0286125 0.0196227 -0.00135736
0.0234411 0.0114854 -0.000244198
0.0238563 5.8572e-11 0.000654535
0.0270935 -0.0066929 0.00156918
0.0309971 -0.0132187 0.00211926
0.0321838 -0.0113911 0.00176158
0.0316001 -0.00817443 0.00138141
0.0302703 -0.00551513 0.00081337
0.0288334 -0.00365024 0.000190053
0.0276294 -0.00234666 -0.000198205
0.0267587 -0.00143734 -0.000286473
0.0261789 -0.000842568 -0.000217952
0.0258082 -0.000483195 -0.00012755
0.0255761 -0.000276832 -6.48945e-05
0.0254324 -0.000160388 -3.05738e-05
0.0253441 -9.44585e-05 -1.38386e-05
0.0252898 -5.66517e-05 -6.15688e-06
0.0252565 -3.46139e-05 -2.73254e-06
0.0252358 -2.15358e-05 -1.22085e-06
0.0252229 -1.36295e-05 -5.51095e-07
0.0252147 -8.761e-06 -2.50597e-07
0.0252095 -5.71001e-06 -1.13448e-07
0.025206 -3.76679e-06 -4.98536e-08
0.0252038 -2.51096e-06 -2.0147e-08
0.0252023 -1.68886e-06 -6.41313e-09
0.0252013 -1.14463e-06 -3.30889e-10
0.0252006 -7.80859e-07 2.07628e-09
0.0252002 -5.35705e-07 2.75242e-09
0.0251998 -3.69351e-07 2.65809e-09
0.0251996 -2.55829e-07 2.26391e-09
0.0251995 -1.77994e-07 1.79145e-09
0.0251994 -1.24395e-07 1.33413e-09
0.0251993 -8.72658e-08 9.18739e-10
0.0251992 -6.12222e-08 5.34801e-10
0.0251992 -4.23729e-08 1.47028e-10
0.0251992 -2.76782e-08 -2.96263e-10
0.0251992 -1.44204e-08 -8.74759e-10
0.0251991 2.78507e-10 -1.69249e-09
0.0251991 2.00984e-08 -2.73185e-09
0.0251991 5.06062e-08 -4.52502e-09
0.0251991 9.97452e-08 -7.39336e-09
0.0251992 1.87509e-07 -1.75299e-08
0.0251993 3.35198e-07 -8.53214e-08
0.0251994 4.25512e-07 -1.44629e-07
0.01 -9.25941e-07 -2.82655e-06
0.0100008 -0.000581872 -0.00228536
0.0114355 -0.000555604 -0.00417185
0.0135625 0.000780166 -0.00306865