# vtk DataFile Version 2.0
Tobias Weinzierl: CPU, Manycore and Cluster Computing
ASCII

DATASET STRUCTURED_POINTS
DIMENSIONS  51 11 6

ORIGIN 0 0 0 

SPACING 0.1 0.1 0.1 

POINT_DATA 3366

VECTORS velocity float
0 0 0
-3.31133e-13 0 0
7.74449e-10 0 0
1.75897e-09 0 0
-3.81859e-09 0 0
4.27171e-09 0 0
5.85176e-09 0 0
5.20138e-09 0 0
4.90934e-09 0 0
4.63795e-09 0 0
3.86342e-09 0 0
2.93354e-09 0 0
2.00252e-09 0 0
5.13738e-10 0 0
-1.78664e-09 0 0
-4.17872e-09 0 0
-5.81025e-09 0 0
-6.57581e-09 0 0
-6.97983e-09 0 0
-7.52306e-09 0 0
-8.37649e-09 0 0
-9.43768e-09 0 0
-1.05155e-08 0 0
-1.14596e-08 0 0
-1.21996e-08 0 0
-1.27307e-08 0 0
-1.3084e-08 0 0
-1.33024e-08 0 0
-1.34265e-08 0 0
-1.34891e-08 0 0
-1.35142e-08 0 0
-1.35182e-08 0 0
-1.35116e-08 0 0
-1.35006e-08 0 0
-1.34888e-08 0 0
-1.3478e-08 0 0
-1.34688e-08 0 0
-1.34615e-08 0 0
-1.34559e-08 0 0
-1.34516e-08 0 0
-1.34486e-08 0 0
-1.34464e-08 0 0
-1.34448e-08 0 0
-1.34438e-08 0 0
-1.34431e-08 0 0
-1.34427e-08 0 0
-1.34425e-08 0 0
-1.34424e-08 0 0
-1.34426e-08 0 0
-1.34432e-08 0 0
0.00193812 0 0
0 3.86512e-07 0
-1.37188e-12 -9.77949e-10 0
1.14883e-09 -2.9795e-09 0
4.30897e-09 -9.51758e-10 0
-1.42732e-09 -4.92765e-09 0
1.28194e-08 -6.66226e-09 0
1.51382e-08 7.1906e-11 0
1.39139e-08 8.78756e-10 0
1.3981e-08 -1.22496e-10 0
1.42422e-08 -6.34744e-10 0
1.32503e-08 -1.02805e-09 0
1.12176e-08 -9.14982e-10 0
8.30052e-09 7.18774e-10 0
4.13548e-09 3.20007e-09 0
-9.31378e-10 4.56633e-09 0
-5.47007e-09 3.98983e-09 0
-8.49055e-09 2.42253e-09 0
-1.04085e-08 1.17294e-09 0
-1.23417e-08 7.45654e-10 0
-1.50187e-08 8.86477e-10 0
-1.84291e-08 1.1522e-09 0
-2.21076e-08 1.27572e-09 0
-2.55358e-08 1.20634e-09 0
-2.83765e-08 1.00781e-09 0
-3.05156e-08 7.63646e-10 0
-3.20007e-08 5.33126e-10 0
-3.29573e-08 3.44789e-10 0
-3.35275e-08 2.05185e-10 0
-3.38362e-08 1.09306e-10 0
-3.39798e-08 4.78988e-11 0
-3.40263e-08 1.14482e-11 0
-3.40207e-08 -8.11414e-12 0
-3.39909e-08 -1.69548e-11 0
-3.3953e-08 -1.94577e-11 0
-3.39157e-08 -1.85543e-11 0
-3.38829e-08 -1.60888e-11 0
-3.38559e-08 -1.31439e-11 0
-3.38348e-08 -1.02991e-11 0
-3.38187e-08 -7.82013e-12 0
-3.38067e-08 -5.79048e-12 0
-3.37981e-08 -4.1968e-12 0
-3.37919e-08 -2.98121e-12 0
-3.37876e-08 -2.07157e-12 0
-3.37846e-08 -1.39652e-12 0
-3.37827e-08 -8.91444e-13 0
-3.37815e-08 -5.0012e-13 0
-3.37809e-08 -1.63931e-13 0
-3.37809e-08 1.91711e-13 0
-3.37816e-08 8.22261e-13 0
-3.37833e-08 2.46657e-12 0
0.00556862 -2.45634e-08 0
0 -2.05138e-08 0
-1.16973e-12 -1.06119e-09 0
1.94118e-09 -5.45926e-09 0
8.78425e-09 -9.46411e-09 0
1.19572e-08 -1.7334e-08 0
2.26141e-08 -1.40018e-08 0
1.8915e-08 -1.28631e-09 0
1.8489e-08 -7.36936e-10 0
1.89573e-08 -4.685e-09 0
1.87558e-08 -9.21722e-09 0
1.49937e-08 -1.2459e-08 0
1.04002e-08 -1.18113e-08 0
6.65054e-09 -6.66278e-09 0
2.34339e-09 -1.02567e-10 0
-2.66322e-09 4.82085e-09 0
-7.04113e-09 7.64027e-09 0
-9.89168e-09 9.11741e-09 0
-1.16299e-08 9.73731e-09 0
-1.32965e-08 9.65823e-09 0
-1.56287e-08 8.99579e-09 0
-1.87112e-08 7.89474e-09 0
-2.21458e-08 6.52556e-09 0
-2.54068e-08 5.07488e-09 0
-2.81115e-08 3.71231e-09 0
-3.01094e-08 2.55331e-09 0
-3.14369e-08 1.64644e-09 0
-3.22274e-08 9.86028e-10 0
-3.26364e-08 5.35298e-10 0
-3.28004e-08 2.4662e-10 0
-3.28223e-08 7.42964e-11 0
-3.27715e-08 -1.95641e-11 0
-3.26913e-08 -6.36244e-11 0
-3.26062e-08 -7.81341e-11 0
-3.25285e-08 -7.65771e-11 0
-3.24629e-08 -6.74245e-11 0
-3.24106e-08 -5.56615e-11 0
-3.23702e-08 -4.39812e-11 0
-3.234e-08 -3.3653e-11 0
-3.23178e-08 -2.51176e-11 0
-3.23018e-08 -1.83719e-11 0
-3.22904e-08 -1.32058e-11 0
-3.22824e-08 -9.33619e-12 0
-3.22769e-08 -6.47874e-12 0
-3.22732e-08 -4.37851e-12 0
-3.22707e-08 -2.81508e-12 0
-3.22693e-08 -1.59468e-12 0
-3.22686e-08 -4.96481e-13 0
-3.22687e-08 8.30075e-13 0
-3.22696e-08 2.80073e-12 0
-3.22714e-08 5.80896e-12 0
0.00799597 -5.75594e-08 0
0 -6.40419e-07 0
1.0799e-12 -2.72775e-09 0
3.5137e-09 -9.64977e-09 0
1.19084e-08 -1.8307e-08 0
1.36626e-08 -2.54321e-08 0
1.40665e-08 -1.40534e-08 0
9.63138e-09 -7.12727e-12 0
9.77651e-09 -1.56681e-09 0
6.56261e-09 -8.27129e-09 0
2.79418e-09 -1.71729e-08 0
-6.4969e-10 -2.28802e-08 0
-3.77354e-09 -2.4257e-08 0
-5.69698e-09 -2.00663e-08 0
-9.63916e-09 -1.10275e-08 0
-1.54088e-08 2.07928e-10 0
-2.06861e-08 1.05371e-08 0
-2.34862e-08 1.71177e-08 0
-2.33387e-08 1.9052e-08 0
-2.11624e-08 1.75788e-08 0
-1.84489e-08 1.45727e-08 0
-1.63437e-08 1.13204e-08 0
-1.52209e-08 8.3713e-09 0
-1.48606e-08 5.8815e-09 0
-1.48571e-08 3.87992e-09 0
-1.48997e-08 2.3552e-09 0
-1.48466e-08 1.2646e-09 0
-1.46803e-08 5.38393e-10 0
-1.44398e-08 9.38638e-11 0
-1.41731e-08 -1.49376e-10 0
-1.3917e-08 -2.59389e-10 0
-1.36925e-08 -2.88206e-10 0
-1.35074e-08 -2.72442e-10 0
-1.33618e-08 -2.35992e-10 0
-1.32509e-08 -1.93259e-10 0
-1.31688e-08 -1.52109e-10 0
-1.31092e-08 -1.16212e-10 0
-1.30666e-08 -8.67498e-11 0
-1.30366e-08 -6.35603e-11 0
-1.30157e-08 -4.58567e-11 0
-1.30013e-08 -3.26488e-11 0
-1.29914e-08 -2.29651e-11 0
-1.29847e-08 -1.59529e-11 0
-1.29802e-08 -1.09092e-11 0
-1.29772e-08 -7.27247e-12 0
-1.29754e-08 -4.59206e-12 0
-1.29743e-08 -2.47649e-12 0
-1.29739e-08 -5.55095e-13 0
-1.29738e-08 1.49746e-12 0
-1.29738e-08 3.83883e-12 0
-1.29742e-08 6.33029e-12 0
0.00901856 -6.24549e-08 0
0 -1.2539e-06 0
-2.68346e-13 -5.32088e-09 0
1.34625e-09 -1.47764e-08 0
4.53298e-09 -1.95308e-08 0
3.06719e-09 -1.58786e-08 0
-1.30088e-12 -5.80715e-09 0
-2.62193e-11 -3.79964e-11 0
3.41118e-11 -3.5674e-11 0
-3.3231e-09 -6.24935e-09 0
-1.54199e-08 -2.03318e-08 0
-2.11274e-08 -3.25426e-08 0
-2.01296e-08 -3.69307e-08 0
-2.10512e-08 -3.09592e-08 0
-2.51336e-08 -1.60674e-08 0
-3.02597e-08 1.54164e-09 0
-3.42891e-08 1.59115e-08 0
-3.56541e-08 2.30962e-08 0
-3.34044e-08 2.30237e-08 0
-2.78507e-08 1.86412e-08 0
-2.06567e-08 1.31824e-08 0
-1.37693e-08 8.45516e-09 0
-8.34485e-09 4.91965e-09 0
-4.56217e-09 2.43531e-09 0
-2.05773e-09 7.62383e-10 0
-3.79126e-10 -2.91771e-10 0
8.0363e-10 -8.79268e-10 0
1.67839e-09 -1.13221e-09 0
2.34067e-09 -1.16545e-09 0
2.84145e-09 -1.07144e-09 0
3.2142e-09 -9.17501e-10 0
3.4858e-09 -7.47564e-10 0
3.67943e-09 -5.86949e-10 0
3.81472e-09 -4.47814e-10 0
3.90762e-09 -3.33971e-10 0
3.97048e-09 -2.44534e-10 0
4.0125e-09 -1.76378e-10 0
4.04031e-09 -1.25647e-10 0
4.05857e-09 -8.85777e-11 0
4.07047e-09 -6.18868e-11 0
4.07819e-09 -4.28895e-11 0
4.08315e-09 -2.94856e-11 0
4.08631e-09 -2.00808e-11 0
4.0883e-09 -1.34878e-11 0
4.08953e-09 -8.82725e-12 0
4.09025e-09 -5.44218e-12 0
4.09069e-09 -2.8492e-12 0
4.09108e-09 -7.26057e-13 0
4.09168e-09 1.07887e-12 0
4.09265e-09 2.59824e-12 0
4.09342e-09 3.90276e-12 0
0.00939809 -3.59186e-08 0
0 -1.13543e-06 0
-4.17614e-12 -5.6803e-09 0
-2.16281e-09 -1.26901e-08 0
-2.35609e-09 -1.51622e-08 0
-4.95961e-09 -1.49737e-08 0
-3.93172e-09 -6.82259e-09 0
-2.9715e-11 2.82912e-11 0
5.81937e-12 -5.81937e-12 0
3.26367e-11 -3.55884e-11 0
-9.06257e-09 -1.10467e-08 0
-2.76522e-08 -3.28384e-08 0
-3.0906e-08 -4.31385e-08 0
-3.31151e-08 -3.51023e-08 0
-3.51247e-08 -1.71979e-08 0
-3.58405e-08 2.64199e-09 0
-3.5665e-08 1.78781e-08 0
-3.48228e-08 2.43805e-08 0
-3.21064e-08 2.24273e-08 0
-2.63924e-08 1.58135e-08 0
-1.83776e-08 8.61782e-09 0
-1.00464e-08 3.0312e-09 0
-3.07381e-09 -5.55643e-10 0
1.9363e-09 -2.54713e-09 0
5.19819e-09 -3.44733e-09 0
7.21302e-09 -3.64646e-09 0
8.43609e-09 -3.42372e-09 0
9.18019e-09 -2.98034e-09 0
9.63544e-09 -2.45691e-09 0
9.91336e-09 -1.94302e-09 0
1.00806e-08 -1.48735e-09 0
1.01786e-08 -1.10942e-09 0
1.02336e-08 -8.10535e-10 0
1.02626e-08 -5.82381e-10 0
1.02764e-08 -4.12872e-10 0
1.02818e-08 -2.89549e-10 0
1.02827e-08 -2.01287e-10 0
1.02816e-08 -1.38926e-10 0
1.02797e-08 -9.53091e-11 0
1.02776e-08 -6.50402e-11 0
1.02757e-08 -4.4159e-11 0
1.02741e-08 -2.98123e-11 0
1.02729e-08 -1.99719e-11 0
1.02719e-08 -1.32083e-11 0
1.02711e-08 -8.52315e-12 0
1.02707e-08 -5.23788e-12 0
1.02705e-08 -2.91953e-12 0
1.02707e-08 -1.31278e-12 0
1.02715e-08 -2.76384e-13 0
1.02726e-08 2.11611e-13 0
1.02735e-08 3.26726e-13 0
0.00948998 6.61941e-09 0
0 -7.8305e-07 0
-2.79539e-12 -3.37588e-09 0
-2.24612e-09 -8.59565e-09 0
-1.99383e-09 -1.13029e-08 0
-6.91323e-09 -1.15177e-08 0
-9.80693e-09 -7.60169e-09 0
-4.48087e-09 -2.16674e-09 0
-2.82198e-11 2.83632e-11 0
4.2718e-12 -4.2718e-12 0
3.02179e-11 -3.50571e-11 0
-1.27815e-08 -1.9144e-08 0
-2.60902e-08 -3.95153e-08 0
-3.33519e-08 -3.27829e-08 0
-3.56515e-08 -1.46649e-08 0
-3.36679e-08 4.1621e-09 0
-2.92379e-08 1.7581e-08 0
-2.50401e-08 2.23402e-08 0
-2.15258e-08 1.901e-08 0
-1.72066e-08 1.13873e-08 0
-1.14413e-08 3.63459e-09 0
-5.27575e-09 -1.98139e-09 0
-1.38674e-10 -5.12816e-09 0
3.28381e-09 -6.37193e-09 0
5.11123e-09 -6.40227e-09 0
5.82637e-09 -5.76303e-09 0
5.9112e-09 -4.83026e-09 0
5.70555e-09 -3.84415e-09 0
5.40583e-09 -2.94096e-09 0
5.10875e-09 -2.18215e-09 0
4.85337e-09 -1.58105e-09 0
4.64947e-09 -1.12461e-09 0
4.49372e-09 -7.88676e-10 0
4.37817e-09 -5.47109e-10 0
4.29414e-09 -3.76392e-10 0
4.23389e-09 -2.57297e-10 0
4.19114e-09 -1.75012e-10 0
4.16104e-09 -1.18564e-10 0
4.13997e-09 -8.00435e-11 0
4.12527e-09 -5.38588e-11 0
4.11506e-09 -3.61076e-11 0
4.10798e-09 -2.4093e-11 0
4.10311e-09 -1.59652e-11 0
4.09979e-09 -1.04672e-11 0
4.09758e-09 -6.75804e-12 0
4.09621e-09 -4.28731e-12 0
4.09547e-09 -2.70479e-12 0
4.09528e-09 -1.8052e-12 0
4.09558e-09 -1.51095e-12 0
4.09622e-09 -1.94729e-12 0
4.09662e-09 -3.12169e-12 0
0.00939807 4.6392e-08 0
0 -5.48937e-07 0
-3.36096e-13 -2.29788e-09 0
-8.52501e-10 -6.06921e-09 0
-1.49063e-09 -8.54193e-09 0
-6.08702e-09 -8.26241e-09 0
-1.24074e-08 -4.21049e-09 0
-1.28304e-08 -3.68652e-10 0
-7.55662e-09 3.49826e-10 0
-3.16016e-11 2.51261e-11 0
3.02822e-11 2.01024e-11 0
3.88025e-12 -1.06268e-08 0
-1.60266e-08 -2.38892e-08 0
-3.10399e-08 -1.95553e-08 0
-3.80647e-08 -4.37438e-09 0
-3.54677e-08 9.02942e-09 0
-2.58527e-08 1.57925e-08 0
-1.57657e-08 1.58192e-08 0
-9.63554e-09 1.09923e-08 0
-7.01479e-09 4.32648e-09 0
-5.68163e-09 -1.42827e-09 0
-4.63069e-09 -5.01304e-09 0
-4.06693e-09 -6.53105e-09 0
-4.29575e-09 -6.63607e-09 0
-5.23852e-09 -5.96505e-09 0
-6.57085e-09 -4.96775e-09 0
-7.96824e-09 -3.91995e-09 0
-9.22334e-09 -2.97064e-09 0
-1.02488e-08 -2.18303e-09 0
-1.10366e-08 -1.56736e-09 0
-1.16173e-08 -1.10601e-09 0
-1.20336e-08 -7.70612e-10 0
-1.23263e-08 -5.31992e-10 0
-1.25296e-08 -3.64799e-10 0
-1.26696e-08 -2.48896e-10 0
-1.27655e-08 -1.69149e-10 0
-1.28309e-08 -1.14569e-10 0
-1.28755e-08 -7.73599e-11 0
-1.29059e-08 -5.20699e-11 0
-1.29266e-08 -3.49241e-11 0
-1.29406e-08 -2.33255e-11 0
-1.29501e-08 -1.54978e-11 0
-1.29565e-08 -1.02332e-11 0
-1.29609e-08 -6.71669e-12 0
-1.29637e-08 -4.40413e-12 0
-1.29656e-08 -2.94114e-12 0
-1.29667e-08 -2.11356e-12 0
-1.29674e-08 -1.82803e-12 0
-1.29676e-08 -2.12241e-12 0
-1.29677e-08 -3.26375e-12 0
-1.29682e-08 -5.46105e-12 0
0.00901854 6.56892e-08 0
0 -4.65562e-07 0
-3.54805e-13 -1.19856e-09 0
1.09576e-11 -3.37785e-09 0
-1.75955e-09 -5.15099e-09 0
-7.92941e-09 -5.35986e-09 0
-1.60986e-08 -1.34095e-09 0
-1.89039e-08 2.91855e-09 0
-1.72992e-08 -2.45791e-09 0
-1.11188e-08 -4.32937e-09 0
-9.14734e-09 -7.23821e-14 0
-8.91917e-09 -5.04174e-09 0
-2.22729e-08 -9.22577e-09 0
-3.8592e-08 -3.25191e-09 0
-4.44357e-08 6.36349e-09 0
-3.64799e-08 1.18256e-08 0
-2.08873e-08 1.09008e-08 0
-8.03697e-09 6.00219e-09 0
-3.75412e-09 3.82814e-10 0
-6.33434e-09 -3.60269e-09 0
-1.12123e-08 -5.20441e-09 0
-1.55658e-08 -5.05663e-09 0
-1.88613e-08 -4.18296e-09 0
-2.14687e-08 -3.2541e-09 0
-2.37066e-08 -2.50048e-09 0
-2.56635e-08 -1.9257e-09 0
-2.73191e-08 -1.48071e-09 0
-2.86535e-08 -1.1282e-09 0
-2.96813e-08 -8.47801e-10 0
-3.04447e-08 -6.2752e-10 0
-3.09967e-08 -4.57832e-10 0
-3.13881e-08 -3.29752e-10 0
-3.16619e-08 -2.34837e-10 0
-3.18518e-08 -1.65594e-10 0
-3.19826e-08 -1.15744e-10 0
-3.20723e-08 -8.02597e-11 0
-3.21337e-08 -5.52448e-11 0
-3.21755e-08 -3.77605e-11 0
-3.22041e-08 -2.56329e-11 0
-3.22235e-08 -1.72798e-11 0
-3.22366e-08 -1.15656e-11 0
-3.22456e-08 -7.6855e-12 0
-3.22516e-08 -5.07631e-12 0
-3.22556e-08 -3.34942e-12 0
-3.22584e-08 -2.24453e-12 0
-3.22602e-08 -1.59905e-12 0
-3.22615e-08 -1.32929e-12 0
-3.22624e-08 -1.42995e-12 0
-3.22632e-08 -1.97583e-12 0
-3.22641e-08 -3.18074e-12 0
-3.2266e-08 -5.28032e-12 0
0.00799597 5.34516e-08 0
0 -4.8008e-07 0
9.62411e-13 -1.7315e-10 0
4.99176e-10 -7.44775e-10 0
-2.05444e-09 -1.46468e-09 0
-9.19894e-09 -1.70127e-09 0
-1.8373e-08 -1.18779e-09 0
-2.21556e-08 6.27846e-10 0
-2.06677e-08 -5.02732e-10 0
-2.39494e-08 -2.21705e-09 0
-2.21691e-08 -3.48647e-10 0
-2.01059e-08 1.72259e-09 0
-2.45106e-08 4.17889e-09 0
-2.92472e-08 5.87778e-09 0
-2.79014e-08 5.55644e-09 0
-1.89288e-08 3.85484e-09 0
-7.73205e-09 1.16459e-09 0
-1.79417e-09 -1.76857e-09 0
-3.82943e-09 -3.65786e-09 0
-1.06837e-08 -3.83063e-09 0
-1.78528e-08 -2.80657e-09 0
-2.30484e-08 -1.55592e-09 0
-2.62124e-08 -6.7188e-10 0
-2.8099e-08 -2.40136e-10 0
-2.93549e-08 -1.05493e-10 0
-3.03155e-08 -1.00708e-10 0
-3.11041e-08 -1.2579e-10 0
-3.17543e-08 -1.40818e-10 0
-3.22771e-08 -1.38506e-10 0
-3.26844e-08 -1.2367e-10 0
-3.29929e-08 -1.03019e-10 0
-3.32211e-08 -8.15835e-11 0
-3.33868e-08 -6.22095e-11 0
-3.35054e-08 -4.60771e-11 0
-3.35892e-08 -3.33537e-11 0
-3.3648e-08 -2.36972e-11 0
-3.36888e-08 -1.65747e-11 0
-3.3717e-08 -1.14359e-11 0
-3.37364e-08 -7.79346e-12 0
-3.37497e-08 -5.24975e-12 0
-3.37587e-08 -3.49696e-12 0
-3.37649e-08 -2.30555e-12 0
-3.3769e-08 -1.50973e-12 0
-3.37718e-08 -9.93734e-13 0
-3.37738e-08 -6.81312e-13 0
-3.37751e-08 -5.28956e-13 0
-3.37761e-08 -5.19591e-13 0
-3.3777e-08 -6.6475e-13 0
-3.3778e-08 -9.8077e-13 0
-3.37795e-08 -1.46842e-12 0
-3.3782e-08 -2.27563e-12 0
0.00556865 1.96211e-08 0
0 0 0
1.07759e-12 0 0
3.19687e-10 0 0
-1.00662e-09 0 0
-4.37342e-09 0 0
-8.8052e-09 0 0
-1.1602e-08 0 0
-1.09252e-08 0 0
-1.28338e-08 0 0
-1.30218e-08 0 0
-1.11829e-08 0 0
-8.84021e-09 0 0
-6.45663e-09 0 0
-4.23072e-09 0 0
-1.71992e-09 0 0
2.28101e-10 0 0
7.38608e-11 0 0
-2.42853e-09 0 0
-5.92708e-09 0 0
-8.9175e-09 0 0
-1.07998e-08 0 0
-1.17533e-08 0 0
-1.21856e-08 0 0
-1.24048e-08 0 0
-1.25634e-08 0 0
-1.27115e-08 0 0
-1.28542e-08 0 0
-1.29843e-08 0 0
-1.30956e-08 0 0
-1.31859e-08 0 0
-1.32563e-08 0 0
-1.33093e-08 0 0
-1.33483e-08 0 0
-1.33765e-08 0 0
-1.33965e-08 0 0
-1.34105e-08 0 0
-1.34203e-08 0 0
-1.3427e-08 0 0
-1.34316e-08 0 0
-1.34348e-08 0 0
-1.34369e-08 0 0
-1.34384e-08 0 0
-1.34394e-08 0 0
-1.344e-08 0 0
-1.34405e-08 0 0
-1.34409e-08 0 0
-1.34413e-08 0 0
-1.34418e-08 0 0
-1.34425e-08 0 0
-1.34437e-08 0 0
0.00193814 0 0
0 0 5.36515e-07
-1.39576e-12 0 2.02922e-10
3.17319e-10 0 1.21962e-09
4.10559e-09 0 5.54422e-09
-1.35198e-08 0 2.41434e-09
6.84304e-09 0 -3.00865e-09
1.27404e-08 0 -1.00215e-09
1.25742e-08 0 6.30962e-11
1.2333e-08 0 6.85369e-10
1.31936e-08 0 1.6801e-09
1.51953e-08 0 2.73191e-09
1.81934e-08 0 2.77534e-09
2.07976e-08 0 1.70049e-09
2.04867e-08 0 5.8856e-10
1.59062e-08 0 1.25613e-10
8.61089e-09 0 3.32698e-11
1.29449e-09 0 -2.59361e-11
-4.69593e-09 0 -3.84823e-12
-9.66506e-09 0 2.01116e-10
-1.43543e-08 0 5.09719e-10
-1.90533e-08 0 7.61958e-10
-2.35626e-08 0 8.62858e-10
-2.75321e-08 0 8.15134e-10
-3.07256e-08 0 6.75834e-10
-3.30938e-08 0 5.07052e-10
-3.47272e-08 0 3.50914e-10
-3.57802e-08 0 2.26522e-10
-3.64131e-08 0 1.36892e-10
-3.67626e-08 0 7.70241e-11
-3.69325e-08 0 3.95026e-11
-3.69956e-08 0 1.73695e-11
-3.70003e-08 0 5.16625e-12
-3.69765e-08 0 -9.74364e-13
-3.6942e-08 0 -3.61285e-12
-3.69063e-08 0 -4.3561e-12
-3.68742e-08 0 -4.16424e-12
-3.68475e-08 0 -3.5818e-12
-3.68262e-08 0 -2.89829e-12
-3.68099e-08 0 -2.25357e-12
-3.67977e-08 0 -1.70404e-12
-3.67888e-08 0 -1.26236e-12
-3.67824e-08 0 -9.20292e-13
-3.6778e-08 0 -6.61692e-13
-3.67749e-08 0 -4.68846e-13
-3.67729e-08 0 -3.25286e-13
-3.67716e-08 0 -2.19872e-13
-3.67709e-08 0 -1.47498e-13
-3.67708e-08 0 -1.33262e-13
-3.67713e-08 0 -1.43054e-13
-3.6773e-08 0 3.84557e-13
0.00550753 0 -2.31288e-09
0.0036 -3.08176e-07 -6.27232e-08
0.0035998 -0.00138887 -2.30071e-05
0.00670993 -0.00392722 0.000108062
0.0136113 -0.00589587 -0.000519836
0.0235175 -0.0144481 -0.00428409
0.0463314 -0.0133651 -0.00488018
0.049844 -0.00190664 -0.00164323
0.049581 0.00265479 -0.000163394
0.0445913 0.0049812 0.000568006
0.0389836 0.00514917 0.000550522
0.0338763 0.00448208 0.000275074
0.0295785 0.00359827 -3.64458e-06
0.0261666 0.00272079 -0.000197302
0.0235819 0.00194507 -0.000290583
0.0216708 0.00132486 -0.000299899
0.020256 0.000877609 -0.000252506
0.0191959 0.000583368 -0.000178517
0.0183966 0.000400222 -0.00010464
0.017798 0.000285014 -4.75396e-05
0.0173586 0.000206846 -1.1873e-05
0.0170453 0.000149069 5.8579e-06
0.0168295 0.0001046 1.19309e-05
0.0166866 7.06764e-05 1.19274e-05
0.0165959 4.57186e-05 9.55241e-06
0.0165409 2.81764e-05 6.78257e-06
0.0165094 1.64115e-05 4.44055e-06
0.0164926 8.88021e-06 2.72912e-06
0.0164846 4.2859e-06 1.58479e-06
0.0164816 1.63302e-06 8.66831e-07
0.0164812 2.06881e-07 4.39393e-07
0.0164821 -4.79009e-07 1.9735e-07
0.0164834 -7.41271e-07 6.78699e-08
0.0164848 -7.77529e-07 3.77716e-09
0.016486 -7.05832e-07 -2.4045e-08
0.016487 -5.93122e-07 -3.28493e-08
0.0164878 -4.74786e-07 -3.24628e-08
0.0164885 -3.67556e-07 -2.82394e-08
0.0164889 -2.77688e-07 -2.29327e-08
0.0164893 -2.05963e-07 -1.78385e-08
0.0164896 -1.50613e-07 -1.3471e-08
0.0164897 -1.08943e-07 -9.94941e-09
0.0164899 -7.81732e-08 -7.21549e-09
0.01649 -5.58318e-08 -5.15064e-09
0.01649 -3.98882e-08 -3.62539e-09
0.0164901 -2.87835e-08 -2.52606e-09
0.0164901 -2.13571e-08 -1.68802e-09
0.0164901 -1.68397e-08 -7.92546e-10
0.0164902 -1.4903e-08 1.25957e-09
0.0164902 -1.81653e-08 5.07693e-09
0.0164902 -4.66732e-08 -1.31599e-09
0.0164903 -7.15862e-08 -9.98874e-09
0.01 -1.3864e-07 -1.4582e-06
0.0100007 -0.00298854 -0.000599846
0.0147863 -0.00995605 -0.000792551
0.0241708 -0.0177287 -0.00124636
0.0385465 -0.0325247 -0.00335106
0.0592149 -0.0248287 -0.000820666
0.0564571 -0.00272596 0.00317376
0.0558931 0.0051019 0.0033864
0.0501088 0.0100859 0.00300354
0.0446318 0.010241 0.00210402
0.0401284 0.00917086 0.00114661
0.0364172 0.00775761 0.000395738
0.0334463 0.00627392 -0.000122965
0.0311703 0.00489195 -0.000421541
0.0294304 0.00372008 -0.000520226
0.0280783 0.00278373 -0.000471627
0.0270238 0.00205561 -0.000347419
0.0262165 0.00149652 -0.000211924
0.0256183 0.0010716 -0.0001036
0.0251914 0.000752363 -3.38391e-05
0.0248986 0.000515882 2.72738e-06
0.0247063 0.000343923 1.71339e-05
0.0245863 0.000221893 1.94755e-05
0.0245158 0.000137836 1.66378e-05
0.0244778 8.18602e-05 1.24387e-05
0.0244599 4.59287e-05 8.58651e-06
0.0244537 2.3768e-05 5.61638e-06
0.0244535 1.07098e-05 3.53025e-06
0.0244563 3.4399e-06 2.14868e-06
0.02446 -2.94389e-07 1.27065e-06
0.0244638 -1.96468e-06 7.30119e-07
0.0244671 -2.49635e-06 4.06378e-07
0.0244698 -2.44877e-06 2.17514e-07
0.0244719 -2.14524e-06 1.10359e-07
0.0244735 -1.76224e-06 5.14989e-08
0.0244748 -1.38851e-06 2.04745e-08
0.0244756 -1.0626e-06 5.05337e-09
0.0244763 -7.95974e-07 -1.90894e-09
0.0244768 -5.86704e-07 -4.48171e-09
0.0244771 -4.27154e-07 -4.91562e-09
0.0244773 -3.08121e-07 -4.40885e-09
0.0244775 -2.20833e-07 -3.57217e-09
0.0244776 -1.57799e-07 -2.70721e-09
0.0244777 -1.13019e-07 -1.9384e-09
0.0244777 -8.19575e-08 -1.3043e-09
0.0244778 -6.14229e-08 -6.44985e-10
0.0244778 -4.97182e-08 6.10785e-10
0.0244779 -4.96924e-08 3.37847e-09
0.0244779 -6.89317e-08 6.61259e-09
0.024478 -1.25406e-07 -9.34023e-09
0.024478 -1.66374e-07 -2.66393e-08
0.0148 -9.6265e-07 -1.75123e-06
0.0148024 -0.00529507 -0.00112753
0.020383 -0.0164239 -0.00244574
0.0275442 -0.028821 -0.0039403
0.0321905 -0.0461894 -0.00576868
0.0306615 -0.0285169 -0.00141814
0.0268791 -1.23516e-05 0.00329592
0.0263201 0.00706772 0.00352184
0.0298292 0.0144338 0.00343331
0.0301777 0.0138769 0.00246119
0.0293732 0.01211 0.00148594
0.0285422 0.0102725 0.000641483
0.0279139 0.00838519 3.66829e-05
0.0275978 0.00660501 -0.000318152
0.0274713 0.00508206 -0.000439764
0.0274358 0.00382414 -0.000399696
0.0274483 0.00280358 -0.000283499
0.02749 0.00199924 -0.000157672
0.0275479 0.00138861 -5.82656e-05
0.0276111 0.000940627 4.32973e-06
0.0276727 0.000620344 3.47286e-05
0.0277298 0.000396134 4.31814e-05
0.0277814 0.000242742 3.97256e-05
0.0278269 0.000140841 3.16208e-05
0.0278659 7.56263e-05 2.30317e-05
0.0278981 3.57685e-05 1.57897e-05
0.0279239 1.27742e-05 1.03577e-05
0.0279439 5.10201e-07 6.56659e-06
0.0279589 -5.25805e-06 4.04732e-06
0.02797 -7.32009e-06 2.4327e-06
0.0279779 -7.42797e-06 1.42734e-06
0.0279836 -6.62775e-06 8.16775e-07
0.0279876 -5.50793e-06 4.54497e-07
0.0279903 -4.3743e-06 2.44493e-07
0.0279922 -3.36653e-06 1.25761e-07
0.0279935 -2.53228e-06 6.05339e-08
0.0279944 -1.87221e-06 2.59598e-08
0.027995 -1.36599e-06 8.50995e-09
0.0279954 -9.86482e-07 3.48874e-10
0.0279957 -7.06834e-07 -2.95676e-09
0.0279959 -5.03573e-07 -3.84748e-09
0.027996 -3.57544e-07 -3.6265e-09
0.0279961 -2.53821e-07 -2.97666e-09
0.0279962 -1.812e-07 -2.21004e-09
0.0279962 -1.31607e-07 -1.3993e-09
0.0279963 -1.00083e-07 -4.05253e-10
0.0279963 -8.47447e-08 1.35471e-09
0.0279963 -8.76479e-08 3.43353e-09
0.0279964 -1.13366e-07 4.18356e-10
0.0279964 -1.58408e-07 -2.55369e-08
0.0279964 -1.84331e-07 -4.75861e-08
0.018 -1.94001e-06 -1.70116e-06
0.018003 -0.00699708 -0.00187749
0.0207756 -0.0189902 -0.00492314
0.0207268 -0.0249776 -0.00633684
0.0160905 -0.0270065 -0.0076234
-1.60681e-06 -0.0140317 -0.00433321
9.74766e-05 2.62992e-05 9.23956e-07
-3.33531e-05 3.47048e-05 0.000653993
0.00657949 0.00409373 0.00143757
0.0134605 0.00929869 0.0014042
0.0168807 0.0101273 0.000992172
0.0186525 0.00916466 0.000449442
0.0203431 0.00760581 -3.95542e-05
0.0220338 0.00593806 -0.000306164
0.0235607 0.00449165 -0.000367858
0.0248581 0.00328868 -0.000310802
0.0259288 0.00231158 -0.000209238
0.0267948 0.00155463 -0.000107735
0.027478 0.00100231 -2.74812e-05
0.0280008 0.00061997 2.45456e-05
0.0283893 0.000364784 5.00461e-05
0.0286717 0.000198847 5.5748e-05
0.028874 9.41116e-05 4.98686e-05
0.0290174 3.10705e-05 3.93081e-05
0.0291179 -4.00895e-06 2.84479e-05
0.0291875 -2.10275e-05 1.93491e-05
0.0292351 -2.70721e-05 1.25499e-05
0.0292672 -2.70143e-05 7.83412e-06
0.0292885 -2.40038e-05 4.73217e-06
0.0293024 -1.99297e-05 2.77301e-06
0.0293113 -1.58224e-05 1.57638e-06
0.0293171 -1.21702e-05 8.66898e-07
0.0293207 -9.14517e-06 4.58072e-07
0.029323 -6.75186e-06 2.29371e-07
0.0293245 -4.91765e-06 1.05658e-07
0.0293254 -3.54409e-06 4.14886e-08
0.0293259 -2.53317e-06 1.01098e-08
0.0293263 -1.79897e-06 -3.82048e-09
0.0293265 -1.27125e-06 -8.86883e-09
0.0293266 -8.95074e-07 -9.67716e-09
0.0293267 -6.28814e-07 -8.6673e-09
0.0293268 -4.41606e-07 -7.04206e-09
0.0293268 -3.11001e-07 -5.36246e-09
0.0293269 -2.21041e-07 -3.83024e-09
0.0293269 -1.60835e-07 -2.43572e-09
0.0293269 -1.23472e-07 -1.20294e-09
0.0293269 -1.04833e-07 -5.0961e-11
0.0293269 -1.01064e-07 -1.18408e-10
0.0293269 -1.09165e-07 -1.03348e-08
0.0293269 -1.1527e-07 -4.03872e-08
0.0293268 -1.14534e-07 -6.08879e-08
0.0196 -2.81372e-06 -2.56723e-06
0.019601 -0.00590519 -0.00274458
0.0190582 -0.0131761 -0.0064779
0.0159481 -0.0161976 -0.00668471
0.0108991 -0.0151774 -0.00668768
0.0017323 -0.00625354 -0.0050419
7.25861e-05 -6.66492e-05 -0.00130314
3.32961e-05 -3.32961e-05 -4.12839e-08
-3.27462e-05 3.396e-05 0.00025917
0.00392597 0.00277399 0.000552698
0.00899706 0.00649705 0.000482584
0.0119156 0.0067975 0.000132056
0.0151633 0.00532041 -0.000249927
0.0183171 0.00384994 -0.000409232
0.0210179 0.00270698 -0.000399339
0.0232037 0.00180472 -0.000316622
0.0249324 0.00109101 -0.000218874
0.0262792 0.000563467 -0.000129197
0.0273048 0.000215285 -5.54445e-05
0.0280609 1.33311e-05 -2.07588e-06
0.0285988 -8.84112e-05 2.91358e-05
0.0289694 -0.000130007 4.10386e-05
0.0292181 -0.000138365 3.99467e-05
0.0293815 -0.000129387 3.25435e-05
0.0294868 -0.000112273 2.36712e-05
0.0295532 -9.2493e-05 1.5875e-05
0.0295944 -7.32596e-05 9.99935e-06
0.0296193 -5.62672e-05 5.97866e-06
0.0296339 -4.21799e-05 3.40968e-06
0.0296424 -3.10218e-05 1.85377e-06
0.0296471 -2.24778e-05 9.53653e-07
0.0296496 -1.61e-05 4.55159e-07
0.0296509 -1.14302e-05 1.91733e-07
0.0296515 -8.0604e-06 6.03579e-08
0.0296517 -5.65536e-06 1.4853e-10
0.0296518 -3.95299e-06 -2.34877e-08
0.0296518 -2.75544e-06 -2.94712e-08
0.0296517 -1.91691e-06 -2.77344e-08
0.0296517 -1.33187e-06 -2.32379e-08
0.0296516 -9.24874e-07 -1.82889e-08
0.0296516 -6.42509e-07 -1.38317e-08
0.0296516 -4.47247e-07 -1.01527e-08
0.0296515 -3.1293e-07 -7.26059e-09
0.0296515 -2.21487e-07 -5.06718e-09
0.0296515 -1.60481e-07 -3.51656e-09
0.0296515 -1.20879e-07 -2.73217e-09
0.0296515 -9.54565e-08 -2.88319e-09
0.0296515 -7.6744e-08 -4.66084e-09
0.0296514 -5.69488e-08 -1.77558e-08
0.0296514 -2.1292e-08 -4.55729e-08
0.0296513 3.29945e-09 -6.17575e-08
0.0196 -1.35434e-06 -3.57968e-06
0.0195999 -0.00368661 -0.00312611
0.0187697 -0.00808957 -0.00651771
0.0175201 -0.00811304 -0.00605146
0.0132005 -0.00427918 -0.00554481
0.00910309 0.00259167 -0.00532892
0.00615126 0.00316212 -0.00310946
7.27552e-05 -6.05432e-05 -0.000669225
2.7797e-05 -2.7797e-05 -1.27196e-07
-3.2209e-05 3.32833e-05 9.38103e-05
0.00273238 0.00196919 0.000358105
0.0070553 0.00309354 0.000260679
0.0123375 0.00154449 -0.00015862
0.0169788 0.000509918 -0.00034022
0.0205809 4.13349e-06 -0.000344722
0.0232581 -0.00030462 -0.000281643
0.0252218 -0.000533456 -0.000211471
0.026645 -0.000673742 -0.000149783
0.0276502 -0.000708425 -9.50293e-05
0.0283313 -0.000656328 -4.83047e-05
0.0287697 -0.000557383 -1.42401e-05
0.0290373 -0.000446842 5.16344e-06
0.0291919 -0.000344856 1.25228e-05
0.029276 -0.000259137 1.26462e-05
0.0293184 -0.000190736 9.77026e-06
0.0293374 -0.000137993 6.45561e-06
0.029344 -9.83942e-05 3.78763e-06
0.0293445 -6.93254e-05 1.98559e-06
0.0293424 -4.83885e-05 9.05518e-07
0.0293395 -3.35406e-05 3.20981e-07
0.0293367 -2.31365e-05 3.77943e-08
0.0293343 -1.59106e-05 -7.88438e-08
0.0293324 -1.09225e-05 -1.11722e-07
0.0293309 -7.49259e-06 -1.07254e-07
0.0293298 -5.13935e-06 -8.93638e-08
0.0293289 -3.52644e-06 -6.92452e-08
0.0293283 -2.42119e-06 -5.14162e-08
0.0293279 -1.66365e-06 -3.71702e-08
0.0293276 -1.14422e-06 -2.64091e-08
0.0293274 -7.87985e-07 -1.85466e-08
0.0293272 -5.43706e-07 -1.29134e-08
0.0293271 -3.76374e-07 -8.92847e-09
0.0293271 -2.61989e-07 -6.17446e-09
0.029327 -1.83893e-07 -4.38661e-09
0.029327 -1.30145e-07 -3.46687e-09
0.0293269 -9.15769e-08 -3.42801e-09
0.0293269 -6.05087e-08 -4.28371e-09
0.0293269 -2.91505e-08 -6.23197e-09
0.0293268 1.31699e-08 -1.7156e-08
0.0293268 7.92204e-08 -3.88173e-08
0.0293267 1.19762e-07 -5.08552e-08
0.018 -8.64028e-07 -3.57069e-06
0.0180009 -0.00200829 -0.00304868
0.0183185 -0.00387329 -0.00615828
0.0183773 -0.00265792 -0.00528654
0.0173641 0.000643683 -0.00419916
0.0170896 0.0070912 -0.00396628
0.0178254 0.0125873 -0.0029955
0.0109508 0.00693188 -0.00148896
7.42353e-05 -4.6851e-05 -0.000433706
-2.52608e-05 -5.45447e-05 5.56179e-07
7.88635e-06 -0.000692884 0.000744696
0.00830326 -0.00282535 0.00108287
0.0156394 -0.00438446 0.000455547
0.0206376 -0.00407256 0.000148789
0.0238095 -0.0032405 3.2621e-05
0.025793 -0.00253305 -1.80329e-05
0.027022 -0.002038 -5.73328e-05
0.027755 -0.0016639 -8.88038e-05
0.0281519 -0.00133347 -9.97897e-05
0.0283266 -0.00102815 -8.81847e-05
0.0283663 -0.000761257 -6.45356e-05
0.0283355 -0.00054563 -4.08687e-05
0.0282765 -0.000382319 -2.33675e-05
0.0282134 -0.000263885 -1.26253e-05
0.0281575 -0.000180295 -6.77595e-06
0.0281125 -0.000122319 -3.78463e-06
0.0280785 -8.25976e-05 -2.2581e-06
0.0280536 -5.56292e-05 -1.43315e-06
0.0280359 -3.7436e-05 -9.44971e-07
0.0280236 -2.52099e-05 -6.31592e-07
0.028015 -1.70063e-05 -4.20932e-07
0.0280092 -1.14997e-05 -2.77449e-07
0.0280051 -7.7966e-06 -1.80358e-07
0.0280024 -5.29981e-06 -1.15646e-07
0.0280005 -3.61127e-06 -7.3256e-08
0.0279992 -2.4659e-06 -4.59414e-08
0.0279983 -1.68683e-06 -2.85914e-08
0.0279977 -1.15569e-06 -1.76995e-08
0.0279973 -7.92943e-07 -1.09238e-08
0.027997 -5.44895e-07 -6.73753e-09
0.0279968 -3.75154e-07 -4.16655e-09
0.0279966 -2.58875e-07 -2.61329e-09
0.0279965 -1.78882e-07 -1.74793e-09
0.0279965 -1.23029e-07 -1.39019e-09
0.0279964 -8.23763e-08 -1.46691e-09
0.0279964 -4.98432e-08 -1.92783e-09
0.0279963 -1.90942e-08 -2.68043e-09
0.0279963 1.65663e-08 -3.76672e-09
0.0279963 6.80731e-08 -9.46202e-09
0.0279963 1.42806e-07 -2.37314e-08
0.0279963 1.85996e-07 -3.29577e-08
0.0148 -4.85088e-07 -3.16343e-06
0.0148015 -0.00103444 -0.00282768
0.0162321 -0.00163981 -0.00542321
0.0178015 -1.76845e-05 -0.00429194
0.0191355 0.00319155 -0.00307475
0.0208839 0.00736733 -0.00285349
0.0247013 0.0129806 -0.00241205
0.0279935 0.0195176 -0.00151079
0.0230149 0.0113009 -0.000339678
0.0234639 4.03784e-11 0.000626246
0.0266074 -0.00669785 0.00155823
0.0300508 -0.0130831 0.00210763
0.0309121 -0.0110264 0.00164118
0.0303622 -0.00772762 0.00115445
0.0293649 -0.00511968 0.000715043
0.0283579 -0.00340792 0.00036287
0.0274838 -0.00232589 0.000108782
0.0267636 -0.00160807 -4.88077e-05
0.0261828 -0.00110013 -0.000119105
0.0257232 -0.000734345 -0.000125778
0.0253685 -0.000479018 -0.0001003
0.0251026 -0.0003089 -6.78492e-05
0.0249088 -0.00019947 -4.11087e-05
0.0247712 -0.000130061 -2.30795e-05
0.0246757 -8.58628e-05 -1.22893e-05
0.0246104 -5.7336e-05 -6.30295e-06
0.0245665 -3.8637e-05 -3.13966e-06
0.0245371 -2.62146e-05 -1.51975e-06
0.0245175 -1.78757e-05 -7.07898e-07
0.0245045 -1.22342e-05 -3.08546e-07
0.0244958 -8.39514e-06 -1.16657e-07
0.02449 -5.77116e-06 -2.79894e-08
0.0244861 -3.97188e-06 9.97742e-09
0.0244835 -2.73529e-06 2.35862e-08
0.0244817 -1.88417e-06 2.59843e-08
0.0244805 -1.29786e-06 2.36632e-08
0.0244797 -8.93838e-07 1.97532e-08
0.0244791 -6.15462e-07 1.56913e-08
0.0244787 -4.23729e-07 1.20708e-08
0.0244784 -2.91718e-07 9.07448e-09
0.0244783 -2.00777e-07 6.69701e-09
0.0244781 -1.37888e-07 4.85259e-09
0.024478 -9.38353e-08 3.42466e-09
0.024478 -6.19177e-08 2.31572e-09
0.0244779 -3.69804e-08 1.44309e-09
0.0244779 -1.46864e-08 7.80092e-10
0.0244779 9.18388e-09 4.41968e-10
0.0244779 3.88186e-08 3.40284e-10
0.0244779 8.02273e-08 -8.98787e-10
0.0244779 1.34657e-07 -1.02565e-08
0.024478 1.64448e-07 -1.84159e-08
0.01 -9.26381e-07 -2.86532e-06
0.0100008 -0.000633965 -0.00230271
0.0113247 -0.000709581 -0.00414255
0.0131971 0.000558696 -0.00291389
0.0156477 0.00252991 -0.00182239
0.019566 0.00557599 -0.00183304
0.0254924 0.0083668 -0.00237527