# vtk DataFile Version 2.0
Tobias Weinzierl: CPU, Manycore and Cluster Computing
ASCII

DATASET STRUCTURED_POINTS
DIMENSIONS  51 11 6

ORIGIN 0 0 0 

SPACING 0.1 0.1 0.1 

POINT_DATA 3366

VECTORS velocity float
0 0 0
-2.47341e-09 0 0
1.3124e-05 0 0
2.37201e-05 0 0
3.28393e-05 0 0
4.0417e-05 0 0
4.33101e-05 0 0
4.2769e-05 0 0
3.89678e-05 0 0
3.47665e-05 0 0
3.13423e-05 0 0
2.89204e-05 0 0
2.73604e-05 0 0
2.64295e-05 0 0
2.5914e-05 0 0
2.56531e-05 0 0
2.55383e-05 0 0
2.55018e-05 0 0
2.55035e-05 0 0
2.55216e-05 0 0
2.55445e-05 0 0
2.55667e-05 0 0
2.55861e-05 0 0
2.5602e-05 0 0
2.56146e-05 0 0
2.56243e-05 0 0
2.56318e-05 0 0
2.56373e-05 0 0
2.56415e-05 0 0
2.56446e-05 0 0
2.56469e-05 0 0
2.56486e-05 0 0
2.56498e-05 0 0
2.56508e-05 0 0
2.56514e-05 0 0
2.56519e-05 0 0
2.56523e-05 0 0
2.56526e-05 0 0
2.56527e-05 0 0
2.56529e-05 0 0
2.5653e-05 0 0
2.56531e-05 0 0
2.56531e-05 0 0
2.56532e-05 0 0
2.56532e-05 0 0
2.56533e-05 0 0
2.56534e-05 0 0
2.56537e-05 0 0
2.56542e-05 0 0
2.56554e-05 0 0
0.00537289 0 0
0 -9.53726e-06 0
-3.32181e-09 -9.3845e-06 0
2.77299e-05 -1.76278e-05 0
4.85487e-05 -1.60182e-05 0
6.73496e-05 -1.46062e-05 0
8.59129e-05 -9.31655e-06 0
9.07258e-05 -1.72785e-06 0
8.95079e-05 4.67477e-06 0
7.89869e-05 8.17682e-06 0
6.93911e-05 7.71613e-06 0
6.2269e-05 5.89295e-06 0
5.75353e-05 4.00616e-06 0
5.46305e-05 2.50348e-06 0
5.29725e-05 1.45293e-06 0
5.20978e-05 7.79733e-07 0
5.16828e-05 3.77459e-07 0
5.15207e-05 1.52352e-07 0
5.14877e-05 3.53248e-08 0
5.1514e-05 -1.95765e-08 0
5.15622e-05 -4.0816e-08 0
5.1614e-05 -4.50575e-08 0
5.16612e-05 -4.15709e-08 0
5.17009e-05 -3.52413e-08 0
5.17329e-05 -2.84711e-08 0
5.17578e-05 -2.23183e-08 0
5.17769e-05 -1.71489e-08 0
5.17914e-05 -1.29972e-08 0
5.18022e-05 -9.7559e-09 0
5.18103e-05 -7.27258e-09 0
5.18163e-05 -5.39439e-09 0
5.18207e-05 -3.98673e-09 0
5.1824e-05 -2.93857e-09 0
5.18264e-05 -2.16175e-09 0
5.18282e-05 -1.58801e-09 0
5.18294e-05 -1.16534e-09 0
5.18304e-05 -8.54576e-10 0
5.18311e-05 -6.26474e-10 0
5.18316e-05 -4.59358e-10 0
5.1832e-05 -3.37279e-10 0
5.18322e-05 -2.48649e-10 0
5.18324e-05 -1.85262e-10 0
5.18326e-05 -1.4171e-10 0
5.18327e-05 -1.15193e-10 0
5.18328e-05 -1.05941e-10 0
5.18329e-05 -1.18673e-10 0
5.1833e-05 -1.66442e-10 0
5.18332e-05 -2.80661e-10 0
5.18336e-05 -5.40046e-10 0
5.18344e-05 -1.16539e-09 0
5.18362e-05 -2.81552e-09 0
0.0107999 -8.3906e-07 0
0 -1.58377e-05 0
-4.08668e-09 -1.53899e-05 0
3.00039e-05 -3.0005e-05 0
4.88266e-05 -3.02395e-05 0
6.78025e-05 -3.25021e-05 0
0.0001021 -2.08143e-05 0
0.000100612 -2.26213e-06 0
0.000101861 1.24292e-05 0
7.9122e-05 2.04701e-05 0
6.66321e-05 1.68994e-05 0
5.9429e-05 1.19488e-05 0
5.53802e-05 7.68632e-06 0
5.3281e-05 4.5875e-06 0
5.22961e-05 2.5456e-06 0
5.19049e-05 1.29647e-06 0
5.18059e-05 5.80651e-07 0
5.18365e-05 1.96996e-07 0
5.19144e-05 7.77283e-09 0
5.2001e-05 -7.39446e-08 0
5.208e-05 -9.97804e-08 0
5.21462e-05 -9.88635e-08 0
5.21991e-05 -8.68293e-08 0
5.22401e-05 -7.15946e-08 0
5.22714e-05 -5.68452e-08 0
5.22949e-05 -4.40496e-08 0
5.23125e-05 -3.35788e-08 0
5.23256e-05 -2.53071e-08 0
5.23353e-05 -1.89197e-08 0
5.23424e-05 -1.40628e-08 0
5.23476e-05 -1.04088e-08 0
5.23515e-05 -7.68065e-09 0
5.23543e-05 -5.6548e-09 0
5.23564e-05 -4.1564e-09 0
5.23579e-05 -3.05133e-09 0
5.2359e-05 -2.23811e-09 0
5.23599e-05 -1.64065e-09 0
5.23605e-05 -1.20234e-09 0
5.23609e-05 -8.8129e-10 0
5.23612e-05 -6.4672e-10 0
5.23614e-05 -4.76233e-10 0
5.23616e-05 -3.53898e-10 0
5.23617e-05 -2.69014e-10 0
5.23618e-05 -2.15597e-10 0
5.23619e-05 -1.92773e-10 0
5.2362e-05 -2.06557e-10 0
5.23621e-05 -2.74067e-10 0
5.23621e-05 -4.32148e-10 0
5.23623e-05 -7.52585e-10 0
5.23626e-05 -1.35668e-09 0
5.23634e-05 -2.40125e-09 0
0.010854 -6.2767e-07 0
0 -1.78368e-05 0
-8.4359e-09 -1.71916e-05 0
3.04366e-05 -3.47622e-05 0
4.3466e-05 -4.00145e-05 0
5.00686e-05 -6.1405e-05 0
5.66042e-05 -3.89811e-05 0
5.32249e-05 -1.52173e-08 0
5.51219e-05 2.68863e-05 0
6.60385e-05 4.37483e-05 0
5.75245e-05 2.75814e-05 0
5.26736e-05 1.72315e-05 0
5.06794e-05 1.01985e-05 0
5.02549e-05 5.61056e-06 0
5.04835e-05 2.84112e-06 0
5.0888e-05 1.27632e-06 0
5.1273e-05 4.49223e-07 0
5.15808e-05 4.56747e-08 0
5.18088e-05 -1.28191e-07 0
5.19719e-05 -1.8471e-07 0
5.20867e-05 -1.85781e-07 0
5.21673e-05 -1.63937e-07 0
5.22239e-05 -1.35364e-07 0
5.22638e-05 -1.07498e-07 0
5.22921e-05 -8.32799e-08 0
5.23123e-05 -6.34598e-08 0
5.23267e-05 -4.78089e-08 0
5.23372e-05 -3.57301e-08 0
5.23447e-05 -2.65501e-08 0
5.23501e-05 -1.96471e-08 0
5.23541e-05 -1.4495e-08 0
5.2357e-05 -1.06703e-08 0
5.23591e-05 -7.84201e-09 0
5.23606e-05 -5.75651e-09 0
5.23617e-05 -4.2219e-09 0
5.23626e-05 -3.09443e-09 0
5.23631e-05 -2.26707e-09 0
5.23636e-05 -1.66056e-09 0
5.23639e-05 -1.21646e-09 0
5.23641e-05 -8.91868e-10 0
5.23643e-05 -6.55512e-10 0
5.23644e-05 -4.84968e-10 0
5.23645e-05 -3.64758e-10 0
5.23646e-05 -2.85312e-10 0
5.23646e-05 -2.42839e-10 0
5.23646e-05 -2.40277e-10 0
5.23646e-05 -2.89614e-10 0
5.23646e-05 -4.15485e-10 0
5.23646e-05 -6.58303e-10 0
5.23647e-05 -1.07081e-09 0
5.23651e-05 -1.68156e-09 0
0.010854 -4.16078e-07 0
0 -1.53322e-05 0
-1.2201e-08 -1.46975e-05 0
2.98799e-05 -2.95026e-05 0
3.68683e-05 -3.14506e-05 0
2.95147e-05 -3.71371e-05 0
-1.70125e-10 -2.05001e-05 0
1.25906e-07 5.72275e-08 0
-6.05001e-08 6.62989e-08 0
2.69356e-05 1.83178e-05 0
4.38483e-05 3.03945e-05 0
4.29321e-05 1.88631e-05 0
4.43557e-05 1.01418e-05 0
4.65557e-05 4.80307e-06 0
4.84848e-05 1.92307e-06 0
4.98855e-05 5.12574e-07 0
5.08144e-05 -1.09105e-07 0
5.14023e-05 -3.37105e-07 0
5.17657e-05 -3.82416e-07 0
5.19885e-05 -3.51386e-07 0
5.21252e-05 -2.94925e-07 0
5.22097e-05 -2.35846e-07 0
5.22627e-05 -1.83236e-07 0
5.22964e-05 -1.39769e-07 0
5.23183e-05 -1.05318e-07 0
5.23327e-05 -7.86969e-08 0
5.23423e-05 -5.84611e-08 0
5.23489e-05 -4.32482e-08 0
5.23535e-05 -3.18984e-08 0
5.23567e-05 -2.34762e-08 0
5.2359e-05 -1.72504e-08 0
5.23606e-05 -1.26609e-08 0
5.23617e-05 -9.28451e-09 0
5.23626e-05 -6.80424e-09 0
5.23632e-05 -4.98424e-09 0
5.23636e-05 -3.64981e-09 0
5.23639e-05 -2.67202e-09 0
5.23642e-05 -1.95593e-09 0
5.23643e-05 -1.4318e-09 0
5.23644e-05 -1.04853e-09 0
5.23645e-05 -7.68781e-10 0
5.23646e-05 -5.65536e-10 0
5.23646e-05 -4.19567e-10 0
5.23647e-05 -3.17839e-10 0
5.23647e-05 -2.52643e-10 0
5.23646e-05 -2.21448e-10 0
5.23646e-05 -2.27398e-10 0
5.23645e-05 -2.80057e-10 0
5.23644e-05 -3.95066e-10 0
5.23643e-05 -5.89413e-10 0
5.23646e-05 -8.63288e-10 0
0.0108539 -2.07433e-07 0
0 -9.99256e-06 0
-1.3681e-08 -9.54605e-06 0
3.00236e-05 -1.87157e-05 0
3.55286e-05 -1.76919e-05 0
2.8027e-05 -1.44231e-05 0
9.20233e-06 -5.90281e-06 0
1.01873e-07 -9.36047e-08 0
3.31046e-08 -3.31046e-08 0
-5.84788e-08 6.25214e-08 0
1.83312e-05 1.16629e-05 0
3.04268e-05 1.67709e-05 0
3.72173e-05 6.60274e-06 0
4.31032e-05 1.49734e-06 0
4.70114e-05 -4.79758e-07 0
4.93561e-05 -1.04829e-06 0
5.06984e-05 -1.06474e-06 0
5.14492e-05 -9.0407e-07 0
5.1864e-05 -7.13574e-07 0
5.20916e-05 -5.43713e-07 0
5.22161e-05 -4.06756e-07 0
5.22839e-05 -3.01292e-07 0
5.23209e-05 -2.21953e-07 0
5.23409e-05 -1.63006e-07 0
5.23519e-05 -1.19509e-07 0
5.23578e-05 -8.7534e-08 0
5.2361e-05 -6.4079e-08 0
5.23627e-05 -4.68945e-08 0
5.23637e-05 -3.43125e-08 0
5.23642e-05 -2.51039e-08 0
5.23645e-05 -1.83657e-08 0
5.23646e-05 -1.34357e-08 0
5.23647e-05 -9.82887e-09 0
5.23647e-05 -7.19023e-09 0
5.23648e-05 -5.2599e-09 0
5.23648e-05 -3.84775e-09 0
5.23648e-05 -2.81468e-09 0
5.23648e-05 -2.0589e-09 0
5.23648e-05 -1.50597e-09 0
5.23648e-05 -1.1014e-09 0
5.23648e-05 -8.05353e-10 0
5.23648e-05 -5.88654e-10 0
5.23648e-05 -4.29953e-10 0
5.23648e-05 -3.13607e-10 0
5.23647e-05 -2.28122e-10 0
5.23647e-05 -1.65002e-10 0
5.23646e-05 -1.17874e-10 0
5.23645e-05 -8.18673e-11 0
5.23643e-05 -5.32935e-11 0
5.23642e-05 -2.972e-11 0
5.23644e-05 -9.33655e-12 0
0.0108539 -1.76888e-10 0
0 -4.09462e-06 0
-1.18716e-08 -3.89131e-06 0
3.06783e-05 -7.46625e-06 0
3.77635e-05 -5.70687e-06 0
3.45725e-05 -2.29703e-07 0
2.7088e-05 1.20815e-05 0
1.79642e-05 1.01805e-05 0
1.0286e-07 -8.43494e-08 0
2.58706e-08 -2.58706e-08 0
-5.66253e-08 6.03323e-08 0
1.1666e-05 7.5987e-09 0
3.08162e-05 -2.51349e-06 0
4.16246e-05 -4.97757e-06 0
4.71113e-05 -4.32167e-06 0
4.98352e-05 -3.16977e-06 0
5.11775e-05 -2.19958e-06 0
5.18341e-05 -1.50116e-06 0
5.21505e-05 -1.02395e-06 0
5.22985e-05 -7.02927e-07 0
5.23637e-05 -4.86917e-07 0
5.23891e-05 -3.40487e-07 0
5.23959e-05 -2.40191e-07 0
5.23947e-05 -1.70737e-07 0
5.23905e-05 -1.2214e-07 0
5.23856e-05 -8.7826e-08 0
5.23811e-05 -6.34097e-08 0
5.23774e-05 -4.59268e-08 0
5.23743e-05 -3.33455e-08 0
5.23719e-05 -2.42559e-08 0
5.23701e-05 -1.7669e-08 0
5.23687e-05 -1.28846e-08 0
5.23677e-05 -9.40317e-09 0
5.23669e-05 -6.86654e-09 0
5.23664e-05 -5.01641e-09 0
5.23659e-05 -3.66592e-09 0
5.23656e-05 -2.67952e-09 0
5.23654e-05 -1.95865e-09 0
5.23652e-05 -1.43148e-09 0
5.23651e-05 -1.04555e-09 0
5.2365e-05 -7.62407e-10 0
5.2365e-05 -5.53623e-10 0
5.23649e-05 -3.9783e-10 0
5.23649e-05 -2.78326e-10 0
5.23648e-05 -1.80989e-10 0
5.23648e-05 -9.22386e-11 0
5.23647e-05 3.12584e-12 0
5.23646e-05 1.23942e-10 0
5.23644e-05 2.9311e-10 0
5.23643e-05 5.32449e-10 0
5.23646e-05 8.45405e-10 0
0.0108539 2.07099e-07 0
0 6.72465e-07 0
-8.29752e-09 6.89382e-07 0
3.0846e-05 1.22283e-06 0
4.04091e-05 2.18422e-06 0
4.18761e-05 6.55073e-06 0
4.16819e-05 1.58524e-05 0
4.41259e-05 2.94018e-05 0
2.86863e-05 1.84487e-05 0
1.05769e-07 -6.29298e-08 0
-5.04748e-08 -6.30837e-08 0
2.33111e-09 -1.40298e-05 0
3.30219e-05 -2.33365e-05 0
4.54448e-05 -1.47834e-05 0
4.99797e-05 -8.68148e-06 0
5.17017e-05 -5.1093e-06 0
5.23455e-05 -3.06072e-06 0
5.25607e-05 -1.87541e-06 0
5.26061e-05 -1.17703e-06 0
5.25884e-05 -7.56422e-07 0
5.25514e-05 -4.97076e-07 0
5.25129e-05 -3.33297e-07 0
5.2479e-05 -2.2744e-07 0
5.24514e-05 -1.57523e-07 0
5.24297e-05 -1.10437e-07 0
5.24131e-05 -7.81892e-08 0
5.24006e-05 -5.57881e-08 0
5.23912e-05 -4.00456e-08 0
5.23842e-05 -2.88791e-08 0
5.23791e-05 -2.09003e-08 0
5.23753e-05 -1.51666e-08 0
5.23725e-05 -1.10282e-08 0
5.23704e-05 -8.03118e-09 0
5.23689e-05 -5.8553e-09 0
5.23678e-05 -4.27251e-09 0
5.2367e-05 -3.11945e-09 0
5.23664e-05 -2.27845e-09 0
5.2366e-05 -1.66442e-09 0
5.23656e-05 -1.21555e-09 0
5.23654e-05 -8.8677e-10 0
5.23652e-05 -6.44981e-10 0
5.23651e-05 -4.65499e-10 0
5.2365e-05 -3.2932e-10 0
5.23649e-05 -2.2076e-10 0
5.23649e-05 -1.25111e-10 0
5.23648e-05 -2.5864e-11 0
5.23648e-05 9.89817e-11 0
5.23647e-05 2.8174e-10 0
5.23647e-05 5.69515e-10 0
5.23647e-05 1.02042e-09 0
5.23652e-05 1.66568e-09 0
0.010854 4.15802e-07 0
0 3.21791e-06 0
-4.1229e-09 3.16314e-06 0
3.005e-05 5.66324e-06 0
4.20071e-05 5.46259e-06 0
4.73821e-05 8.12203e-06 0
5.1892e-05 1.44932e-05 0
5.9051e-05 2.56878e-05 0
7.04411e-05 4.52615e-05 0
6.1187e-05 2.89081e-05 0
6.00158e-05 4.0435e-14 0
6.26628e-05 -3.30032e-05 0
5.91297e-05 -4.79332e-05 0
5.70463e-05 -2.19159e-05 0
5.56434e-05 -1.05671e-05 0
5.46427e-05 -5.52922e-06 0
5.39395e-05 -3.0551e-06 0
5.34541e-05 -1.75982e-06 0
5.31219e-05 -1.05055e-06 0
5.28944e-05 -6.4766e-07 0
5.27378e-05 -4.11124e-07 0
5.26292e-05 -2.67888e-07 0
5.25531e-05 -1.78586e-07 0
5.24993e-05 -1.21387e-07 0
5.24611e-05 -8.38472e-08 0
5.24338e-05 -5.86773e-08 0
5.24141e-05 -4.14916e-08 0
5.23999e-05 -2.95788e-08 0
5.23896e-05 -2.12194e-08 0
5.23822e-05 -1.5296e-08 0
5.23767e-05 -1.10667e-08 0
5.23728e-05 -8.02893e-09 0
5.23699e-05 -5.83719e-09 0
5.23678e-05 -4.25037e-09 0
5.23663e-05 -3.09848e-09 0
5.23651e-05 -2.26064e-09 0
5.23643e-05 -1.65023e-09 0
5.23637e-05 -1.20488e-09 0
5.23633e-05 -8.79419e-10 0
5.2363e-05 -6.4093e-10 0
5.23627e-05 -4.65199e-10 0
5.23626e-05 -3.34039e-10 0
5.23624e-05 -2.33167e-10 0
5.23623e-05 -1.50262e-10 0
5.23623e-05 -7.279e-11 0
5.23623e-05 1.50245e-11 0
5.23623e-05 1.37229e-10 0
5.23623e-05 3.35215e-10 0
5.23624e-05 6.83885e-10 0
5.23627e-05 1.31365e-09 0
5.23635e-05 2.38706e-09 0
0.010854 6.27483e-07 0
0 2.88856e-06 0
-1.65802e-09 2.88765e-06 0
2.83959e-05 5.036e-06 0
4.20795e-05 4.29208e-06 0
5.01569e-05 5.31272e-06 0
5.78166e-05 8.3912e-06 0
6.845e-05 1.30681e-05 0
8.55147e-05 1.75526e-05 0
0.000114816 1.09586e-05 0
0.000115009 -1.3537e-06 0
0.000115105 -1.30729e-05 0
8.21473e-05 -1.76733e-05 0
6.72409e-05 -1.12687e-05 0
6.02671e-05 -6.26292e-06 0
5.6692e-05 -3.39752e-06 0
5.47471e-05 -1.86791e-06 0
5.36416e-05 -1.05562e-06 0
5.29897e-05 -6.16199e-07 0
5.25923e-05 -3.71766e-07 0
5.23427e-05 -2.31479e-07 0
5.21815e-05 -1.4835e-07 0
5.2075e-05 -9.75346e-08 0
5.20031e-05 -6.5547e-08 0
5.19536e-05 -4.48648e-08 0
5.19192e-05 -3.11713e-08 0
5.1895e-05 -2.1918e-08 0
5.18777e-05 -1.55573e-08 0
5.18654e-05 -1.11236e-08 0
5.18565e-05 -7.99822e-09 0
5.18501e-05 -5.77566e-09 0
5.18455e-05 -4.18425e-09 0
5.18421e-05 -3.03873e-09 0
5.18396e-05 -2.21086e-09 0
5.18378e-05 -1.61071e-09 0
5.18365e-05 -1.17461e-09 0
5.18356e-05 -8.5712e-10 0
5.18349e-05 -6.25593e-10 0
5.18344e-05 -4.5642e-10 0
5.1834e-05 -3.32416e-10 0
5.18337e-05 -2.40917e-10 0
5.18335e-05 -1.72363e-10 0
5.18334e-05 -1.19134e-10 0
5.18333e-05 -7.44426e-11 0
5.18332e-05 -3.09577e-11 0
5.18332e-05 2.13855e-11 0
5.18333e-05 9.97796e-11 0
5.18334e-05 2.38989e-10 0
5.18337e-05 5.20282e-10 0
5.18345e-05 1.16388e-09 0
5.18363e-05 2.8185e-09 0
0.0107999 8.38902e-07 0
0 0 0
-6.387e-10 0 0
1.36958e-05 0 0
2.08463e-05 0 0
2.53673e-05 0 0
2.97209e-05 0 0
3.55648e-05 0 0
4.37507e-05 0 0
5.36501e-05 0 0
5.49999e-05 0 0
5.2445e-05 0 0
4.19989e-05 0 0
3.48064e-05 0 0
3.07491e-05 0 0
2.85532e-05 0 0
2.73565e-05 0 0
2.66878e-05 0 0
2.63021e-05 0 0
2.60722e-05 0 0
2.59307e-05 0 0
2.58409e-05 0 0
2.57824e-05 0 0
2.57434e-05 0 0
2.57169e-05 0 0
2.56986e-05 0 0
2.56857e-05 0 0
2.56767e-05 0 0
2.56702e-05 0 0
2.56655e-05 0 0
2.56622e-05 0 0
2.56598e-05 0 0
2.5658e-05 0 0
2.56567e-05 0 0
2.56558e-05 0 0
2.56551e-05 0 0
2.56546e-05 0 0
2.56543e-05 0 0
2.5654e-05 0 0
2.56538e-05 0 0
2.56537e-05 0 0
2.56536e-05 0 0
2.56535e-05 0 0
2.56534e-05 0 0
2.56534e-05 0 0
2.56534e-05 0 0
2.56534e-05 0 0
2.56535e-05 0 0
2.56537e-05 0 0
2.56542e-05 0 0
2.56555e-05 0 0
0.0053729 0 0
0 0 -3.73713e-06
-5.44576e-09 0 -3.73948e-06
2.79125e-05 0 -6.09469e-06
4.8971e-05 0 -3.69713e-06
6.69639e-05 0 -2.09082e-06
8.2013e-05 0 -1.15429e-06
8.77041e-05 0 -6.24124e-07
8.65236e-05 0 -3.32462e-07
7.87933e-05 0 -1.74277e-07
7.02764e-05 0 -9.06098e-08
6.33428e-05 0 -4.6872e-08
5.84415e-05 0 -2.42321e-08
5.52856e-05 0 -1.25622e-08
5.34027e-05 0 -6.54386e-09
5.23603e-05 0 -3.42942e-09
5.18328e-05 0 -1.8093e-09
5.16007e-05 0 -9.61176e-10
5.15267e-05 0 -5.1414e-10
5.15303e-05 0 -2.7687e-10
5.15668e-05 0 -1.50087e-10
5.16131e-05 0 -8.19081e-11
5.16581e-05 0 -4.50206e-11
5.16972e-05 0 -2.49438e-11
5.17294e-05 0 -1.39498e-11
5.17548e-05 0 -7.88967e-12
5.17745e-05 0 -4.52425e-12
5.17895e-05 0 -2.63885e-12
5.18008e-05 0 -1.57142e-12
5.18092e-05 0 -9.59354e-13
5.18155e-05 0 -6.02974e-13
5.18201e-05 0 -3.91672e-13
5.18235e-05 0 -2.63743e-13
5.1826e-05 0 -1.84494e-13
5.18279e-05 0 -1.34261e-13
5.18293e-05 0 -1.01857e-13
5.18303e-05 0 -8.10185e-14
5.1831e-05 0 -6.85977e-14
5.18315e-05 0 -6.39574e-14
5.18319e-05 0 -6.96762e-14
5.18322e-05 0 -9.48345e-14
5.18324e-05 0 -1.65132e-13
5.18326e-05 0 -3.53017e-13
5.18327e-05 0 -8.68416e-13
5.18328e-05 0 -2.33612e-12
5.18329e-05 0 -6.65623e-12
5.18331e-05 0 -1.9715e-11
5.18333e-05 0 -6.01013e-11
5.18337e-05 0 -1.87994e-10
5.18345e-05 0 -6.05167e-10
5.18363e-05 0 -1.96948e-09
0.0107999 0 -6.3333e-07
0.0029952 -3.85511e-05 -2.69955e-05
0.00306235 -0.00502291 -0.00261821
0.0131411 -0.00876025 -0.0038707
0.021148 -0.00711681 -0.0019315
0.0286397 -0.00621103 -0.000996986
0.0361516 -0.00395165 -0.000525297
0.0382134 -0.000748829 -0.000274467
0.0375964 0.00199699 -0.000142054
0.0331233 0.0034623 -7.23314e-05
0.0290717 0.0032471 -3.68772e-05
0.026097 0.0024662 -1.8859e-05
0.0241305 0.00166814 -9.70768e-06
0.0229298 0.00103694 -5.0333e-06
0.0222489 0.000597703 -2.62848e-06
0.0218933 0.00031747 -1.38213e-06
0.0217278 0.000150881 -7.315e-07
0.0216659 5.83112e-05 -3.8947e-07
0.0216565 1.06972e-05 -2.08487e-07
0.0216707 -1.12127e-05 -1.12147e-07
0.0216932 -1.92958e-05 -6.05902e-08
0.0217165 -2.04744e-05 -3.28708e-08
0.0217375 -1.85784e-05 -1.79067e-08
0.0217549 -1.56111e-05 -9.79915e-09
0.0217689 -1.25462e-05 -5.39197e-09
0.0217798 -9.80254e-06 -2.98851e-09
0.0217882 -7.51614e-06 -1.67332e-09
0.0217945 -5.68874e-06 -9.50831e-10
0.0217992 -4.26642e-06 -5.52019e-10
0.0218027 -3.17884e-06 -3.30469e-10
0.0218053 -2.3573e-06 -2.06307e-10
0.0218072 -1.74206e-06 -1.35852e-10
0.0218087 -1.28414e-06 -9.51573e-11
0.0218097 -9.44838e-07 -7.10582e-11
0.0218105 -6.94244e-07 -5.63011e-11
0.021811 -5.09614e-07 -4.68926e-11
0.0218114 -3.73839e-07 -4.0671e-11
0.0218117 -2.74152e-07 -3.65756e-11
0.021812 -2.0109e-07 -3.43887e-11
0.0218121 -1.47691e-07 -3.49992e-11
0.0218122 -1.08894e-07 -4.17331e-11
0.0218123 -8.11093e-08 -6.46178e-11
0.0218124 -6.19615e-08 -1.33407e-10
0.0218124 -5.0202e-08 -3.37332e-10
0.0218125 -4.58783e-08 -9.47173e-10
0.0218125 -5.09549e-08 -2.79309e-09
0.0218126 -7.09388e-08 -8.44576e-09
0.0218126 -1.19127e-07 -2.59638e-08
0.0218128 -2.28712e-07 -8.10636e-08
0.021813 -4.91448e-07 -2.58089e-07
0.0218135 -1.18476e-06 -8.34744e-07
0.0217087 -1.68738e-06 -1.27317e-06
0.00832 -4.78632e-05 -6.28159e-05
0.00836876 -0.00761005 -0.00471309
0.0155597 -0.0140839 -0.00658518
0.0216042 -0.0131616 -0.0028127
0.0288766 -0.0136649 -0.00131773
0.0429768 -0.00881894 -0.00064503
0.0423983 -0.00103267 -0.000306944
0.0427148 0.00530915 -0.000148641
0.0329706 0.00863819 -6.96663e-05
0.0277575 0.00708476 -3.43277e-05
0.0247751 0.00497127 -1.72883e-05
0.0231131 0.00318282 -8.87778e-06
0.0222564 0.00188973 -4.62822e-06
0.0218598 0.00104065 -2.43911e-06
0.021707 0.000523371 -1.2961e-06
0.0216731 0.000228589 -6.93229e-07
0.0216911 7.18662e-05 -3.72691e-07
0.0217273 -4.41227e-06 -2.01178e-07
0.021766 -3.64719e-05 -1.08943e-07
0.0218008 -4.5739e-05 -5.91472e-08
0.0218298 -4.42472e-05 -3.21831e-08
0.0218528 -3.84176e-05 -1.75486e-08
0.0218706 -3.14728e-05 -9.59172e-09
0.0218841 -2.48907e-05 -5.2592e-09
0.0218944 -1.92397e-05 -2.89713e-09
0.021902 -1.46428e-05 -1.60766e-09
0.0219076 -1.10245e-05 -9.02648e-10
0.0219118 -8.23697e-06 -5.16376e-10
0.0219149 -6.12042e-06 -3.04068e-10
0.0219172 -4.52958e-06 -1.86787e-10
0.0219188 -3.34246e-06 -1.21465e-10
0.0219201 -2.46119e-06 -8.45911e-11
0.021921 -1.80942e-06 -6.33267e-11
0.0219216 -1.32871e-06 -5.06653e-11
0.0219221 -9.74901e-07 -4.28008e-11
0.0219224 -7.149e-07 -3.7713e-11
0.0219227 -5.24096e-07 -3.44472e-11
0.0219229 -3.84283e-07 -3.2866e-11
0.021923 -2.82076e-07 -3.39212e-11
0.0219231 -2.07733e-07 -4.09975e-11
0.0219232 -1.54311e-07 -6.42054e-11
0.0219233 -1.17127e-07 -1.33488e-10
0.0219233 -9.35192e-08 -3.3861e-10
0.0219233 -8.29919e-08 -9.51965e-10
0.0219234 -8.79327e-08 -2.80861e-09
0.0219234 -1.15325e-07 -8.49405e-09
0.0219234 -1.80252e-07 -2.61116e-08
0.0219235 -3.12218e-07 -8.15125e-08
0.0219235 -5.625e-07 -2.59444e-07
0.0219235 -9.9574e-07 -8.38734e-07
0.0218177 -1.26319e-06 -1.27909e-06
0.0123136 -4.75623e-05 -9.1162e-05
0.0123605 -0.00812904 -0.00662977
0.0170904 -0.0157985 -0.00914403
0.0197431 -0.0172276 -0.00374147
0.0215445 -0.0258741 -0.00173125
0.0239259 -0.0165648 -0.000705712
0.0229749 -3.08662e-05 -0.000163405
0.0231631 0.0116516 -8.75767e-05
0.0276695 0.0185281 -5.22197e-05
0.0240046 0.0114966 -2.66525e-05
0.0219771 0.00713805 -1.39144e-05
0.0211633 0.004201 -7.36772e-06
0.0210042 0.00229766 -3.95088e-06
0.0211125 0.00115107 -2.13816e-06
0.0212899 0.000506217 -1.16418e-06
0.0214561 0.000167871 -6.36268e-07
0.0215881 4.75523e-06 -3.48473e-07
0.0216856 -6.38698e-05 -1.91034e-07
0.0217553 -8.45964e-05 -1.04754e-07
0.0218044 -8.29806e-05 -5.74405e-08
0.0218389 -7.23787e-05 -3.1495e-08
0.0218632 -5.93822e-05 -1.72722e-08
0.0218803 -4.69768e-05 -9.47935e-09
0.0218925 -3.63059e-05 -5.21153e-09
0.0219011 -2.76231e-05 -2.87499e-09
0.0219074 -2.07907e-05 -1.59589e-09
0.0219119 -1.55293e-05 -8.95413e-10
0.0219151 -1.15361e-05 -5.11419e-10
0.0219175 -8.53588e-06 -3.00461e-10
0.0219192 -6.29779e-06 -1.84097e-10
0.0219204 -4.63674e-06 -1.19447e-10
0.0219213 -3.4085e-06 -8.30793e-11
0.021922 -2.50276e-06 -6.21993e-11
0.0219225 -1.83616e-06 -4.98284e-11
0.0219228 -1.34628e-06 -4.21821e-11
0.0219231 -9.86693e-07 -3.72569e-11
0.0219233 -7.22997e-07 -3.41117e-11
0.0219234 -5.2983e-07 -3.26193e-11
0.0219235 -3.88567e-07 -3.37396e-11
0.0219236 -2.85628e-07 -4.0862e-11
0.0219236 -2.11259e-07 -6.40988e-11
0.0219237 -1.58702e-07 -1.33385e-10
0.0219237 -1.2374e-07 -3.38447e-10
0.0219237 -1.04608e-07 -9.51538e-10
0.0219237 -1.02379e-07 -2.80721e-09
0.0219237 -1.21903e-07 -8.48921e-09
0.0219237 -1.73316e-07 -2.60949e-08
0.0219237 -2.73366e-07 -8.14556e-08
0.0219236 -4.43568e-07 -2.59258e-07
0.0219235 -6.94333e-07 -8.38209e-07
0.0218177 -8.3756e-07 -1.27832e-06
0.014976 -3.79574e-05 -0.000110656
0.0150199 -0.0067268 -0.00800516
0.017829 -0.0131022 -0.0110106
0.0173057 -0.0134537 -0.0044568
0.0129917 -0.0156352 -0.0020694
8.03691e-06 -0.00863004 -0.000731319
0.00327626 0.0022421 -2.71061e-06
-0.00218215 0.00237233 -1.22045e-05
0.0114045 0.0078777 -2.29725e-05
0.0184056 0.0128191 -1.70368e-05
0.0179435 0.00783463 -9.78875e-06
0.0185495 0.00416752 -5.62764e-06
0.0194806 0.00194685 -3.21884e-06
0.0202943 0.000758357 -1.83325e-06
0.020883 0.000181668 -1.03961e-06
0.0212727 -6.8567e-05 -5.86541e-07
0.0215191 -0.000157102 -3.29172e-07
0.0216714 -0.000171356 -1.83824e-07
0.0217649 -0.000155128 -1.02216e-07
0.0218223 -0.00012924 -5.6638e-08
0.0218579 -0.000102919 -3.12991e-08
0.0218803 -7.97619e-05 -1.72659e-08
0.0218946 -6.07484e-05 -9.51803e-09
0.0219039 -4.57331e-05 -5.25066e-09
0.02191 -3.41556e-05 -2.90441e-09
0.0219141 -2.53669e-05 -1.61583e-09
0.021917 -1.87648e-05 -9.08365e-10
0.0219189 -1.38414e-05 -5.19717e-10
0.0219203 -1.01886e-05 -3.05792e-10
0.0219213 -7.4885e-06 -1.87562e-10
0.021922 -5.49783e-06 -1.21738e-10
0.0219225 -4.03305e-06 -8.46222e-11
0.0219228 -2.95675e-06 -6.32572e-11
0.0219231 -2.16672e-06 -5.05654e-11
0.0219233 -1.58726e-06 -4.27028e-11
0.0219234 -1.16251e-06 -3.76296e-11
0.0219235 -8.51306e-07 -3.43824e-11
0.0219236 -6.23426e-07 -3.28205e-11
0.0219236 -4.56697e-07 -3.38956e-11
0.0219237 -3.34926e-07 -4.09935e-11
0.0219237 -2.46368e-07 -6.42249e-11
0.0219237 -1.82657e-07 -1.33523e-10
0.0219237 -1.38094e-07 -3.38598e-10
0.0219237 -1.09265e-07 -9.51624e-10
0.0219237 -9.49633e-08 -2.80686e-09
0.0219237 -9.6389e-08 -8.48705e-09
0.0219237 -1.17446e-07 -2.60865e-08
0.0219236 -1.64527e-07 -8.14286e-08
0.0219235 -2.44244e-07 -2.59186e-07
0.0219233 -3.558e-07 -8.38058e-07
0.0218175 -4.17591e-07 -1.27812e-06
0.0163072 -2.24712e-05 -0.0001207
0.0163504 -0.0041959 -0.00871764
0.0184144 -0.00809061 -0.0119834
0.0169911 -0.0074705 -0.00482254
0.0125484 -0.00594368 -0.00217292
0.00411519 -0.00239037 -0.000942045
0.0028541 -0.00273454 -0.00020569
0.000552385 -0.000552385 -5.27195e-07
-0.00211936 0.00224495 -4.06415e-06
0.0077259 0.00498436 -8.00291e-06
0.012744 0.00700968 -6.56697e-06
0.0156041 0.0026729 -4.28729e-06
0.0180702 0.000558103 -2.71407e-06
0.0197001 -0.00024843 -1.65629e-06
0.0206752 -0.00047053 -9.82748e-07
0.0212326 -0.000467222 -5.70871e-07
0.0215442 -0.000393452 -3.2646e-07
0.0217162 -0.000309405 -1.84542e-07
0.0218105 -0.000235351 -1.03427e-07
0.0218621 -0.000175941 -5.76012e-08
0.0218902 -0.000130297 -3.19356e-08
0.0219055 -9.59955e-05 -1.76539e-08
0.0219139 -7.05193e-05 -9.74521e-09
0.0219184 -5.17199e-05 -5.38107e-09
0.0219209 -3.78974e-05 -2.97878e-09
0.0219222 -2.77547e-05 -1.65838e-09
0.0219229 -2.03206e-05 -9.32992e-10
0.0219233 -1.48752e-05 -5.34228e-10
0.0219235 -1.08881e-05 -3.14543e-10
0.0219237 -7.96921e-06 -1.92982e-10
0.0219237 -5.83266e-06 -1.25188e-10
0.0219238 -4.26884e-06 -8.68791e-11
0.0219238 -3.12426e-06 -6.47699e-11
0.0219238 -2.28655e-06 -5.16011e-11
0.0219238 -1.67343e-06 -4.34247e-11
0.0219238 -1.22468e-06 -3.8141e-11
0.0219238 -8.96234e-07 -3.47508e-11
0.0219238 -6.55824e-07 -3.30924e-11
0.0219238 -4.79835e-07 -3.41052e-11
0.0219238 -3.50981e-07 -4.11691e-11
0.0219238 -2.56605e-07 -6.43937e-11
0.0219238 -1.87436e-07 -1.33714e-10
0.0219238 -1.36678e-07 -3.38839e-10
0.0219238 -9.93403e-08 -9.51919e-10
0.0219237 -7.17412e-08 -2.8071e-09
0.0219237 -5.11439e-08 -8.48676e-09
0.0219236 -3.54858e-08 -2.60842e-08
0.0219236 -2.32054e-08 -8.14212e-08
0.0219234 -1.31649e-08 -2.59169e-07
0.0219232 -4.47372e-09 -8.38029e-07
0.0218174 -3.59755e-10 -1.27809e-06
0.0163072 -5.82606e-06 -0.000120999
0.0163519 -0.00145385 -0.00873749
0.0187053 -0.00288455 -0.0120148
0.0179557 -0.00227916 -0.00482723
0.015384 -4.52857e-06 -0.0021117
0.0118234 0.00518172 -0.00106143
0.0077776 0.00434362 -0.000482889
0.00283429 -0.00263479 -0.000104448
0.000515426 -0.000515426 -2.63982e-07
-0.00209485 0.00214387 -1.54782e-06
0.00489941 -3.31549e-05 -3.67847e-06
0.0130212 -0.00115175 -3.79172e-06
0.0174952 -0.00214475 -2.73945e-06
0.0197616 -0.00184393 -1.74797e-06
0.0208856 -0.00134931 -1.0512e-06
0.0214388 -0.000936617 -6.11736e-07
0.0217089 -0.000640113 -3.48874e-07
0.0218386 -0.000437437 -1.96343e-07
0.021899 -0.0003009 -1.09509e-07
0.0219253 -0.000208849 -6.07006e-08
0.0219353 -0.000146316 -3.35069e-08
0.0219378 -0.000103391 -1.84495e-08
0.021937 -7.36051e-05 -1.01488e-08
0.021935 -5.27245e-05 -5.58661e-09
0.0219329 -3.79558e-05 -3.08413e-09
0.0219309 -2.74315e-05 -1.71285e-09
0.0219292 -1.98859e-05 -9.61474e-10
0.0219279 -1.44497e-05 -5.49339e-10
0.0219269 -1.05184e-05 -3.22706e-10
0.0219261 -7.66708e-06 -1.9749e-10
0.0219255 -5.59437e-06 -1.27744e-10
0.021925 -4.08511e-06 -8.83709e-11
0.0219247 -2.98472e-06 -6.56689e-11
0.0219245 -2.18165e-06 -5.21608e-11
0.0219243 -1.59512e-06 -4.37847e-11
0.0219242 -1.16649e-06 -3.83801e-11
0.0219241 -8.53073e-07 -3.49154e-11
0.021924 -6.23761e-07 -3.32114e-11
0.0219239 -4.55808e-07 -3.41986e-11
0.0219239 -3.32534e-07 -4.12536e-11
0.0219239 -2.41613e-07 -6.44874e-11
0.0219238 -1.7378e-07 -1.33842e-10
0.0219238 -1.21812e-07 -3.39044e-10
0.0219238 -7.96355e-08 -9.52281e-10
0.0219238 -4.14634e-08 -2.80779e-09
0.0219237 -9.00585e-10 -8.48819e-09
0.0219237 4.98809e-08 -2.60874e-08
0.0219236 1.20288e-07 -8.14286e-08
0.0219235 2.19129e-07 -2.59185e-07
0.0219233 3.4727e-07 -8.38057e-07
0.0218175 4.16912e-07 -1.27812e-06
0.014976 8.47039e-06 -0.000111619
0.0150221 0.000812893 -0.00808808
0.0183023 0.00120646 -0.0111463
0.0189198 0.00116544 -0.00451159
0.0184012 0.00286069 -0.00197033
0.0179114 0.0066933 -0.000956973
0.0188042 0.0123709 -0.000518225
0.0122646 0.00777491 -0.00024281
0.00282518 -0.0024444 -5.30686e-05
-0.00197108 -0.00267017 -1.46403e-07
0.000197019 -0.00625574 -2.28927e-06
0.014133 -0.00991647 -4.3883e-06
0.0191245 -0.0061778 -3.52987e-06
0.020966 -0.00363597 -2.18827e-06
0.0216674 -0.00214604 -1.2659e-06
0.0219285 -0.00128953 -7.12635e-07
0.0220141 -0.000792702 -3.95743e-07
0.0220305 -0.00049917 -2.18054e-07
0.0220215 -0.00032186 -1.19572e-07
0.0220049 -0.000212181 -6.5374e-08
0.021988 -0.000142689 -3.56807e-08
0.0219732 -9.76279e-05 -1.94608e-08
0.0219612 -6.77731e-05 -1.06177e-08
0.0219519 -4.76101e-05 -5.80213e-09
0.0219447 -3.37655e-05 -3.1813e-09
0.0219393 -2.41268e-05 -1.75502e-09
0.0219352 -1.73402e-05 -9.78404e-10
0.0219322 -1.25183e-05 -5.54969e-10
0.02193 -9.06816e-06 -3.23522e-10
0.0219283 -6.58584e-06 -1.96461e-10
0.0219271 -4.79232e-06 -1.26185e-10
0.0219262 -3.49231e-06 -8.68282e-11
0.0219256 -2.54771e-06 -6.43385e-11
0.0219251 -1.86009e-06 -5.10856e-11
0.0219247 -1.35883e-06 -4.29465e-11
0.0219245 -9.93016e-07 -3.77406e-11
0.0219243 -7.25771e-07 -3.44345e-11
0.0219242 -5.30309e-07 -3.28533e-11
0.0219241 -3.8708e-07 -3.39349e-11
0.021924 -2.81718e-07 -4.10632e-11
0.0219239 -2.03516e-07 -6.43585e-11
0.0219239 -1.44244e-07 -1.33779e-10
0.0219239 -9.71367e-08 -3.39091e-10
0.0219238 -5.58995e-08 -9.52602e-10
0.0219238 -1.3538e-08 -2.8089e-09
0.0219238 3.91767e-08 -8.49163e-09
0.0219238 1.15681e-07 -2.60976e-08
0.0219237 2.35377e-07 -8.14568e-08
0.0219236 4.2187e-07 -2.59256e-07
0.0219235 6.86966e-07 -8.38206e-07
0.0218177 8.36999e-07 -1.27832e-06
0.0123136 1.80134e-05 -9.30138e-05
0.0123603 0.00211386 -0.00686733
0.0170597 0.00339039 -0.00953431
0.0193098 0.0026155 -0.00396056
0.0206062 0.00350376 -0.00176976
0.0221545 0.00611191 -0.000861614
0.02503 0.0107564 -0.000454105
0.029792 0.0188829 -0.000256636
0.0258866 0.0120556 -0.000116099
0.0251685 -4.86801e-10 -3.17144e-05
0.0262543 -0.0139884 -1.63678e-05
0.0247226 -0.0200704 -9.28382e-06
0.0238868 -0.00897177 -5.39544e-06
0.0233074 -0.00438324 -2.93206e-06
0.0228887 -0.00230975 -1.57504e-06
0.0225929 -0.0012822 -8.43846e-07
0.0223881 -0.000741568 -4.52029e-07
0.0222475 -0.000444424 -2.42314e-07
0.022151 -0.000275045 -1.30025e-07
0.0220844 -0.000175247 -6.98441e-08
0.022038 -0.000114591 -3.75562e-08
0.0220055 -7.6635e-05 -2.02155e-08
0.0219825 -5.22367e-05 -1.08943e-08
0.0219661 -3.61702e-05 -5.88055e-09
0.0219544 -2.53652e-05 -3.18246e-09
0.0219459 -1.79678e-05 -1.73016e-09
0.0219398 -1.28282e-05 -9.4836e-10
0.0219353 -9.2145e-06 -5.27477e-10
0.0219321 -6.64953e-06 -3.00825e-10
0.0219298 -4.81547e-06 -1.78634e-10
0.0219281 -3.49656e-06 -1.12559e-10
0.0219268 -2.54395e-06 -7.65794e-11
0.0219259 -1.85363e-06 -5.67037e-11
0.0219252 -1.35212e-06 -4.54324e-11
0.0219247 -9.87071e-07 -3.87762e-11
0.0219244 -7.20944e-07 -3.46711e-11
0.0219241 -5.26664e-07 -3.21771e-11
0.0219239 -3.8461e-07 -3.1192e-11
0.0219238 -2.80476e-07 -3.2708e-11
0.0219237 -2.03734e-07 -4.01494e-11
0.0219236 -1.46485e-07 -6.36676e-11
0.0219236 -1.02539e-07 -1.33252e-10
0.0219235 -6.65876e-08 -3.38732e-10
0.0219235 -3.32806e-08 -9.52597e-10
0.0219235 4.0544e-09 -2.81005e-09
0.0219235 5.55187e-08 -8.49681e-09
0.0219235 1.38416e-07 -2.61163e-08
0.0219235 2.83874e-07 -8.15186e-08
0.0219235 5.45605e-07 -2.59447e-07
0.0219236 9.89927e-07 -8.38729e-07
0.0218178 1.26282e-06 -1.27908e-06
0.00832 2.06162e-05 -6.67256e-05
0.00838183 0.00201227 -0.00536349
0.0152582 0.00310254 -0.00759598
0.0190871 0.00206632 -0.00335292
0.0217384 0.0022836 -0.00156884
0.0246338 0.00347598 -0.000781908
0.0289546 0.00540639 -0.000412055
0.0360033 0.007311 -0.000226362
0.0481852 0.0047377 -0.000122781
0.0482518 -0.000309965 -6.29201e-05
0.0482864 -0.00548257 -3.08948e-05