# vtk DataFile Version 2.0
Tobias Weinzierl: CPU, Manycore and Cluster Computing
ASCII

DATASET STRUCTURED_POINTS
DIMENSIONS  51 11 6

ORIGIN 0 0 0 

SPACING 0.1 0.1 0.1 

POINT_DATA 3366

VECTORS velocity float
0 0 0
-1.26805e-12 0 0
5.23566e-09 0 0
6.13841e-09 0 0
-1.46982e-08 0 0
1.74108e-09 0 0
3.42598e-09 0 0
1.87851e-09 0 0
2.05795e-10 0 0
-1.76823e-09 0 0
-1.96583e-09 0 0
-1.61152e-09 0 0
-3.87003e-09 0 0
-9.14293e-09 0 0
-1.45608e-08 0 0
-1.76013e-08 0 0
-1.83198e-08 0 0
-1.82274e-08 0 0
-1.84973e-08 0 0
-1.94098e-08 0 0
-2.07075e-08 0 0
-2.20415e-08 0 0
-2.31837e-08 0 0
-2.405e-08 0 0
-2.46502e-08 0 0
-2.50355e-08 0 0
-2.5265e-08 0 0
-2.539e-08 0 0
-2.54497e-08 0 0
-2.54712e-08 0 0
-2.54722e-08 0 0
-2.54636e-08 0 0
-2.54517e-08 0 0
-2.54397e-08 0 0
-2.54292e-08 0 0
-2.54207e-08 0 0
-2.54142e-08 0 0
-2.54094e-08 0 0
-2.5406e-08 0 0
-2.54037e-08 0 0
-2.54023e-08 0 0
-2.54014e-08 0 0
-2.5401e-08 0 0
-2.54009e-08 0 0
-2.54009e-08 0 0
-2.54011e-08 0 0
-2.54015e-08 0 0
-2.5402e-08 0 0
-2.54026e-08 0 0
-2.54041e-08 0 0
0.00200356 0 0
0 3.8705e-07 0
-5.65807e-12 -4.7215e-09 0
8.37612e-09 -9.97288e-09 0
1.36155e-08 -2.39143e-09 0
-1.29828e-08 -1.44386e-08 0
1.68249e-08 -1.87419e-08 0
1.62206e-08 3.45807e-09 0
9.1239e-09 1.09191e-08 0
5.40652e-09 1.18972e-08 0
1.31503e-09 9.21395e-09 0
-1.23719e-09 5.16558e-09 0
-2.82082e-09 5.14709e-09 0
-7.93699e-09 8.63778e-09 0
-1.73035e-08 1.03773e-08 0
-2.61912e-08 7.97776e-09 0
-3.09629e-08 3.86565e-09 0
-3.26848e-08 1.09599e-09 0
-3.43438e-08 4.08815e-10 0
-3.75739e-08 8.68136e-10 0
-4.21777e-08 1.44389e-09 0
-4.71683e-08 1.67987e-09 0
-5.16716e-08 1.57143e-09 0
-5.52444e-08 1.27433e-09 0
-5.78181e-08 9.31892e-10 0
-5.95317e-08 6.26507e-10 0
-6.0594e-08 3.89069e-10 0
-6.12047e-08 2.20779e-10 0
-6.15235e-08 1.10082e-10 0
-6.16655e-08 4.23223e-11 0
-6.17079e-08 4.17157e-12 0
-6.16992e-08 -1.48669e-11 0
-6.16681e-08 -2.23647e-11 0
-6.16308e-08 -2.3429e-11 0
-6.15952e-08 -2.13012e-11 0
-6.15648e-08 -1.79104e-11 0
-6.15405e-08 -1.43181e-11 0
-6.15219e-08 -1.10444e-11 0
-6.15083e-08 -8.29252e-12 0
-6.14986e-08 -6.09386e-12 0
-6.14919e-08 -4.39681e-12 0
-6.14875e-08 -3.11783e-12 0
-6.14847e-08 -2.1685e-12 0
-6.14831e-08 -1.46797e-12 0
-6.14823e-08 -9.46312e-13 0
-6.14821e-08 -5.44623e-13 0
-6.14824e-08 -2.0774e-13 0
-6.14831e-08 1.29043e-13 0
-6.14844e-08 5.50676e-13 0
-6.14864e-08 1.55217e-12 0
-6.14904e-08 4.54149e-12 0
0.0057299 -4.21082e-08 0
0 -2.2405e-08 0
-6.88684e-12 -4.04714e-09 0
8.86035e-09 -1.47435e-08 0
2.4226e-08 -2.35323e-08 0
1.99326e-08 -4.80357e-08 0
4.72164e-08 -4.02413e-08 0
3.79489e-08 -2.06516e-09 0
2.60875e-08 2.24382e-09 0
9.76629e-09 -4.80555e-09 0
-4.25006e-09 -8.16988e-09 0
-1.16012e-08 -5.15686e-09 0
-1.20789e-08 1.37457e-09 0
-1.41191e-08 6.70383e-09 0
-2.16341e-08 9.19658e-09 0
-2.92344e-08 1.06588e-08 0
-3.26668e-08 1.24647e-08 0
-3.30448e-08 1.40341e-08 0
-3.35199e-08 1.44584e-08 0
-3.58925e-08 1.356e-08 0
-4.00378e-08 1.16889e-08 0
-4.48786e-08 9.34656e-09 0
-4.93705e-08 6.98218e-09 0
-5.29354e-08 4.89942e-09 0
-5.54472e-08 3.2385e-09 0
-5.70461e-08 2.01327e-09 0
-5.79656e-08 1.16624e-09 0
-5.84307e-08 6.14029e-10 0
-5.86183e-08 2.74685e-10 0
-5.86516e-08 7.98706e-11 0
-5.86088e-08 -2.21008e-11 0
-5.85364e-08 -6.77244e-11 0
-5.84593e-08 -8.13536e-11 0
-5.83894e-08 -7.84013e-11 0
-5.83313e-08 -6.80939e-11 0
-5.82855e-08 -5.56005e-11 0
-5.82508e-08 -4.3562e-11 0
-5.82253e-08 -3.31295e-11 0
-5.8207e-08 -2.46325e-11 0
-5.81941e-08 -1.79874e-11 0
-5.81854e-08 -1.29348e-11 0
-5.81796e-08 -9.16696e-12 0
-5.81758e-08 -6.38994e-12 0
-5.81736e-08 -4.34818e-12 0
-5.81724e-08 -2.82629e-12 0
-5.81721e-08 -1.63823e-12 0
-5.81723e-08 -6.04474e-13 0
-5.81731e-08 5.49115e-13 0
-5.81746e-08 2.30897e-12 0
-5.81769e-08 5.21134e-12 0
-5.81805e-08 9.69946e-12 0
0.00814925 -9.17306e-08 0
0 -6.41825e-07 0
-1.56398e-12 -6.7747e-09 0
1.1408e-08 -2.31983e-08 0
2.9594e-08 -4.27922e-08 0
2.08726e-08 -5.75412e-08 0
3.21329e-08 -3.11885e-08 0
2.5164e-08 -1.80224e-11 0
1.88418e-08 -3.77698e-09 0
-8.01955e-09 -1.52449e-08 0
-2.61417e-08 -2.69561e-08 0
-2.93529e-08 -3.27466e-08 0
-2.7974e-08 -3.19349e-08 0
-3.11681e-08 -2.11244e-08 0
-4.13869e-08 -2.97974e-09 0
-5.03553e-08 1.43579e-08 0
-5.25553e-08 2.47721e-08 0
-4.84078e-08 2.72883e-08 0
-4.1509e-08 2.47675e-08 0
-3.54001e-08 2.03664e-08 0
-3.17434e-08 1.57909e-08 0
-3.03634e-08 1.16429e-08 0
-3.02893e-08 8.12035e-09 0
-3.06392e-08 5.30743e-09 0
-3.09312e-08 3.20744e-09 0
-3.10175e-08 1.74555e-09 0
-3.09218e-08 7.98516e-10 0
-3.07195e-08 2.31722e-10 0
-3.04792e-08 -7.5038e-11 0
-3.0246e-08 -2.16376e-10 0
-3.00429e-08 -2.60276e-10 0
-2.98778e-08 -2.52095e-10 0
-2.97497e-08 -2.20072e-10 0
-2.96538e-08 -1.80526e-10 0
-2.95837e-08 -1.42028e-10 0
-2.95337e-08 -1.08435e-10 0
-2.94986e-08 -8.09413e-11 0
-2.94743e-08 -5.93682e-11 0
-2.94578e-08 -4.29366e-11 0
-2.94469e-08 -3.06893e-11 0
-2.94397e-08 -2.17044e-11 0
-2.94352e-08 -1.51836e-11 0
-2.94325e-08 -1.04754e-11 0
-2.9431e-08 -7.06278e-12 0
-2.94304e-08 -4.53622e-12 0
-2.94303e-08 -2.54854e-12 0
-2.94307e-08 -7.53393e-13 0
-2.94314e-08 1.19474e-12 0
-2.94321e-08 3.5262e-12 0
-2.94326e-08 6.29162e-12 0
-2.94336e-08 9.44735e-12 0
0.00908861 -9.46653e-08 0
0 -1.24941e-06 0
-4.90585e-12 -1.2488e-08 0
4.77393e-09 -3.3843e-08 0
1.03208e-08 -4.36586e-08 0
-5.49277e-10 -3.49733e-08 0
-4.77184e-12 -1.26805e-08 0
-9.53161e-11 -1.32349e-10 0
1.17299e-10 -1.29123e-10 0
-1.25854e-08 -1.42282e-08 0
-4.0132e-08 -4.0767e-08 0
-4.79714e-08 -5.57863e-08 0
-4.73334e-08 -5.20241e-08 0
-5.37855e-08 -3.07107e-08 0
-6.35098e-08 -1.39726e-09 0
-7.01161e-08 2.15943e-08 0
-7.05199e-08 3.15678e-08 0
-6.38098e-08 3.01051e-08 0
-5.18838e-08 2.33027e-08 0
-3.88408e-08 1.61663e-08 0
-2.81101e-08 1.05661e-08 0
-2.08052e-08 6.4999e-09 0
-1.63323e-08 3.5761e-09 0
-1.3638e-08 1.53007e-09 0
-1.19123e-08 1.98352e-10 0
-1.07065e-08 -5.68966e-10 0
-9.81356e-09 -9.27215e-10 0
-9.14174e-09 -1.01953e-09 0
-8.64176e-09 -9.6007e-10 0
-8.27778e-09 -8.29054e-10 0
-8.0191e-09 -6.76767e-10 0
-7.83931e-09 -5.31023e-10 0
-7.71677e-09 -4.04677e-10 0
-7.63465e-09 -3.01622e-10 0
-7.58042e-09 -2.20972e-10 0
-7.5451e-09 -1.59704e-10 0
-7.52243e-09 -1.14178e-10 0
-7.50813e-09 -8.09135e-11 0
-7.4993e-09 -5.6918e-11 0
-7.49405e-09 -3.97774e-11 0
-7.4911e-09 -2.76195e-11 0
-7.48962e-09 -1.90309e-11 0
-7.48907e-09 -1.29626e-11 0
-7.48908e-09 -8.63939e-12 0
-7.48941e-09 -5.47935e-12 0
-7.48989e-09 -3.04273e-12 0
-7.49033e-09 -1.02473e-12 0
-7.49049e-09 7.35954e-13 0
-7.4902e-09 2.27758e-12 0
-7.48928e-09 3.66545e-12 0
-7.4887e-09 5.27624e-12 0
0.0093997 -5.4486e-08 0
0 -1.12771e-06 0
-1.4275e-11 -1.37295e-08 0
-3.33974e-09 -2.93788e-08 0
-4.09795e-09 -3.42002e-08 0
-1.41378e-08 -3.57457e-08 0
-1.2739e-08 -1.71985e-08 0
-1.06642e-10 1.02703e-10 0
1.45733e-11 -1.45733e-11 0
1.09013e-10 -1.25596e-10 0
-2.13239e-08 -2.27494e-08 0
-5.72707e-08 -5.87386e-08 0
-5.96252e-08 -6.27358e-08 0
-6.2195e-08 -3.5429e-08 0
-6.40406e-08 -7.50961e-10 0
-6.55954e-08 2.50697e-08 0
-6.71914e-08 3.4463e-08 0
-6.46725e-08 2.94948e-08 0
-5.50566e-08 1.85223e-08 0
-4.0947e-08 8.59703e-09 0
-2.72623e-08 2.10537e-09 0
-1.69334e-08 -1.47712e-09 0
-1.02445e-08 -3.22762e-09 0
-6.23692e-09 -3.89073e-09 0
-3.88015e-09 -3.89838e-09 0
-2.47059e-09 -3.52999e-09 0
-1.60646e-09 -2.98544e-09 0
-1.06946e-09 -2.4017e-09 0
-7.36711e-10 -1.86036e-09 0
-5.33999e-10 -1.39987e-09 0
-4.13892e-10 -1.03014e-09 0
-3.45403e-10 -7.4517e-10 0
-3.08368e-10 -5.31975e-10 0
-2.89925e-10 -3.75956e-10 0
-2.82078e-10 -2.63641e-10 0
-2.79999e-10 -1.83778e-10 0
-2.80865e-10 -1.2751e-10 0
-2.83082e-10 -8.81361e-11 0
-2.85785e-10 -6.07229e-11 0
-2.88528e-10 -4.17041e-11 0
-2.91101e-10 -2.85365e-11 0
-2.93413e-10 -1.94225e-11 0
-2.95435e-10 -1.30969e-11 0
-2.97157e-10 -8.67377e-12 0
-2.98559e-10 -5.5458e-12 0
-2.99604e-10 -3.3189e-12 0
-3.00227e-10 -1.75014e-12 0
-3.00315e-10 -6.89068e-13 0
-2.9993e-10 -6.27521e-14 0
-2.9909e-10 1.46104e-13 0
-2.98588e-10 3.04535e-13 0
0.00946797 5.25842e-09 0
0 -7.80472e-07 0
-1.06865e-11 -8.77642e-09 0
-3.65051e-09 -2.22674e-08 0
-3.95954e-09 -2.85997e-08 0
-2.15798e-08 -2.72232e-08 0
-3.18355e-08 -1.50793e-08 0
-1.32149e-08 -2.9639e-09 0
-1.03823e-10 1.01589e-10 0
7.3987e-12 -7.3987e-12 0
9.68394e-11 -1.21195e-10 0
-2.63226e-08 -3.43359e-08 0
-4.36756e-08 -6.0658e-08 0
-5.07255e-08 -3.38662e-08 0
-4.91581e-08 1.82791e-09 0
-4.49559e-08 2.78946e-08 0
-4.51488e-08 3.63913e-08 0
-4.75693e-08 2.87847e-08 0
-4.50849e-08 1.43617e-08 0
-3.62191e-08 1.86372e-09 0
-2.52574e-08 -5.53295e-09 0
-1.63177e-08 -8.6221e-09 0
-1.07023e-08 -9.11651e-09 0
-7.8174e-09 -8.30546e-09 0
-6.61443e-09 -6.9586e-09 0
-6.2757e-09 -5.50889e-09 0
-6.31784e-09 -4.1837e-09 0
-6.49583e-09 -3.07985e-09 0
-6.69872e-09 -2.21515e-09 0
-6.88233e-09 -1.56623e-09 0
-7.03325e-09 -1.09386e-09 0
-7.15116e-09 -7.57384e-10 0
-7.24054e-09 -5.21315e-10 0
-7.30704e-09 -3.57415e-10 0
-7.35595e-09 -2.44415e-10 0
-7.39168e-09 -1.6686e-10 0
-7.41772e-09 -1.13782e-10 0
-7.4367e-09 -7.75151e-11 0
-7.45058e-09 -5.27551e-11 0
-7.46079e-09 -3.58547e-11 0
-7.46835e-09 -2.43155e-11 0
-7.474e-09 -1.64299e-11 0
-7.47824e-09 -1.1037e-11 0
-7.48141e-09 -7.35518e-12 0
-7.48377e-09 -4.86482e-12 0
-7.48545e-09 -3.22663e-12 0
-7.48658e-09 -2.23123e-12 0
-7.48717e-09 -1.77393e-12 0
-7.48736e-09 -1.88462e-12 0
-7.48722e-09 -2.7921e-12 0
-7.48728e-09 -4.45265e-12 0
0.00939967 6.24959e-08 0
0 -5.47622e-07 0
-5.07115e-12 -6.62931e-09 0
-1.84728e-09 -1.6587e-08 0
-5.72244e-09 -2.13345e-08 0
-2.24105e-08 -1.83903e-08 0
-3.96989e-08 -7.38833e-09 0
-3.56339e-08 -6.2856e-10 0
-1.87862e-08 -2.5471e-10 0
-1.11823e-10 9.13659e-11 0
9.45519e-11 8.36537e-11 0
3.01336e-12 -1.85341e-08 0
-2.75928e-08 -3.22602e-08 0
-4.9003e-08 -1.35137e-08 0
-5.07803e-08 1.13187e-08 0
-3.58623e-08 2.6879e-08 0
-2.24837e-08 2.95431e-08 0
-2.11082e-08 2.11566e-08 0
-2.53228e-08 8.19628e-09 0
-2.68732e-08 -2.64733e-09 0
-2.50288e-08 -8.64862e-09 0
-2.27091e-08 -1.05267e-08 0
-2.17293e-08 -9.99688e-09 0
-2.2149e-08 -8.41966e-09 0
-2.33307e-08 -6.59532e-09 0
-2.46967e-08 -4.92047e-09 0
-2.59294e-08 -3.54838e-09 0
-2.6917e-08 -2.49966e-09 0
-2.76577e-08 -1.73365e-09 0
-2.8192e-08 -1.19062e-09 0
-2.85688e-08 -8.12997e-10 0
-2.88312e-08 -5.53461e-10 0
-2.90127e-08 -3.76269e-10 0
-2.9138e-08 -2.55697e-10 0
-2.92245e-08 -1.73757e-10 0
-2.92845e-08 -1.18082e-10 0
-2.93261e-08 -8.02382e-11 0
-2.93553e-08 -5.4502e-11 0
-2.93758e-08 -3.69913e-11 0
-2.93903e-08 -2.50734e-11 0
-2.94008e-08 -1.6963e-11 0
-2.94083e-08 -1.14502e-11 0
-2.94138e-08 -7.71708e-12 0
-2.94178e-08 -5.21355e-12 0
-2.94208e-08 -3.57641e-12 0
-2.9423e-08 -2.57947e-12 0
-2.94247e-08 -2.11186e-12 0
-2.94258e-08 -2.17024e-12 0
-2.94267e-08 -2.89274e-12 0
-2.94274e-08 -4.77246e-12 0
-2.94285e-08 -8.25197e-12 0
0.00908857 9.53607e-08 0
0 -4.66073e-07 0
-4.32859e-12 -3.55732e-09 0
-9.20785e-10 -9.76842e-09 0
-8.89315e-09 -1.40149e-08 0
-2.87612e-08 -1.29198e-08 0
-4.84938e-08 -1.92007e-09 0
-4.91734e-08 5.57235e-09 0
-4.16555e-08 -9.31865e-09 0
-2.60129e-08 -1.16956e-08 0
-2.37188e-08 -6.29957e-13 0
-2.66462e-08 -3.67911e-09 0
-4.8688e-08 -3.27187e-10 0
-6.8288e-08 1.34962e-08 0
-6.4017e-08 2.0617e-08 0
-3.66247e-08 1.71471e-08 0
-1.24392e-08 8.96845e-09 0
-1.00528e-08 1.27896e-09 0
-2.22121e-08 -3.74028e-09 0
-3.43674e-08 -5.83655e-09 0
-4.11976e-08 -5.94109e-09 0
-4.45146e-08 -5.19926e-09 0
-4.67742e-08 -4.28619e-09 0
-4.89412e-08 -3.42954e-09 0
-5.10401e-08 -2.67504e-09 0
-5.28846e-08 -2.0333e-09 0
-5.43681e-08 -1.50915e-09 0
-5.54886e-08 -1.09837e-09 0
-5.63007e-08 -7.87502e-10 0
-5.68743e-08 -5.58426e-10 0
-5.72735e-08 -3.92793e-10 0
-5.7549e-08 -2.74607e-10 0
-5.77386e-08 -1.91058e-10 0
-5.7869e-08 -1.32395e-10 0
-5.79589e-08 -9.14198e-11 0
-5.80211e-08 -6.29207e-11 0
-5.80642e-08 -4.31713e-11 0
-5.80943e-08 -2.953e-11 0
-5.81154e-08 -2.01364e-11 0
-5.81304e-08 -1.36878e-11 0
-5.81411e-08 -9.27667e-12 0
-5.81488e-08 -6.27438e-12 0
-5.81544e-08 -4.24939e-12 0
-5.81586e-08 -2.91117e-12 0
-5.81617e-08 -2.07403e-12 0
-5.81641e-08 -1.63387e-12 0
-5.8166e-08 -1.563e-12 0
-5.81676e-08 -1.92616e-12 0
-5.81692e-08 -2.88722e-12 0
-5.81711e-08 -4.95339e-12 0
-5.81744e-08 -8.82871e-12 0
0.00814923 8.38222e-08 0
0 -4.81853e-07 0
-2.60393e-13 -8.08983e-10 0
-5.44777e-10 -3.05822e-09 0
-1.11897e-08 -5.32392e-09 0
-3.22013e-08 -5.39868e-09 0
-5.24852e-08 -3.30209e-09 0
-5.47489e-08 -2.17438e-10 0
-4.81235e-08 -4.32786e-09 0
-5.54946e-08 -5.77638e-09 0
-5.25345e-08 3.63204e-09 0
-4.8419e-08 1.12928e-08 0
-4.84167e-08 1.44417e-08 0
-4.70628e-08 1.33544e-08 0
-3.59643e-08 8.97017e-09 0
-1.62408e-08 2.21123e-09 0
-5.35509e-09 -5.17699e-09 0
-1.31402e-08 -9.37323e-09 0
-3.04854e-08 -8.54418e-09 0
-4.47889e-08 -4.93054e-09 0
-5.21751e-08 -1.66896e-09 0
-5.49797e-08 -1.82082e-12 0
-5.60567e-08 4.22541e-10 0
-5.68158e-08 2.99361e-10 0
-5.76161e-08 7.16495e-11 0
-5.84258e-08 -9.25017e-11 0
-5.91573e-08 -1.70022e-10 0
-5.97626e-08 -1.85796e-10 0
-6.02343e-08 -1.68772e-10 0
-6.05876e-08 -1.39199e-10 0
-6.08455e-08 -1.08296e-10 0
-6.10305e-08 -8.1098e-11 0
-6.1162e-08 -5.91578e-11 0
-6.12547e-08 -4.23508e-11 0
-6.132e-08 -2.98989e-11 0
-6.13658e-08 -2.08817e-11 0
-6.13981e-08 -1.44578e-11 0
-6.1421e-08 -9.93678e-12 0
-6.14372e-08 -6.78547e-12 0
-6.14488e-08 -4.60668e-12 0
-6.14572e-08 -3.11215e-12 0
-6.14633e-08 -2.09703e-12 0
-6.14679e-08 -1.41912e-12 0
-6.14714e-08 -9.83453e-13 0
-6.1474e-08 -7.32626e-13 0
-6.14762e-08 -6.39756e-13 0
-6.14781e-08 -7.11996e-13 0
-6.14799e-08 -1.00138e-12 0
-6.14819e-08 -1.56907e-12 0
-6.14845e-08 -2.53556e-12 0
-6.14893e-08 -4.35545e-12 0
0.00572993 3.35323e-08 0
0 0 0
1.24722e-12 0 0
-2.46339e-10 0 0
-5.63313e-09 0 0
-1.52039e-08 0 0
-2.45887e-08 0 0
-2.79961e-08 0 0
-2.52535e-08 0 0
-2.94917e-08 0 0
-2.88183e-08 0 0
-2.17695e-08 0 0
-1.3042e-08 0 0
-6.57778e-09 0 0
-2.01374e-09 0 0
1.24691e-09 0 0
-1.7247e-10 0 0
-7.21704e-09 0 0
-1.57895e-08 0 0
-2.1766e-08 0 0
-2.43746e-08 0 0
-2.49302e-08 0 0
-2.47706e-08 0 0
-2.45697e-08 0 0
-2.45122e-08 0 0
-2.45791e-08 0 0
-2.47084e-08 0 0
-2.48514e-08 0 0
-2.49819e-08 0 0
-2.50895e-08 0 0
-2.51733e-08 0 0
-2.52361e-08 0 0
-2.52822e-08 0 0
-2.53155e-08 0 0
-2.53393e-08 0 0
-2.53562e-08 0 0
-2.53683e-08 0 0
-2.5377e-08 0 0
-2.53832e-08 0 0
-2.53877e-08 0 0
-2.5391e-08 0 0
-2.53935e-08 0 0
-2.53953e-08 0 0
-2.53968e-08 0 0
-2.53979e-08 0 0
-2.53989e-08 0 0
-2.53997e-08 0 0
-2.54006e-08 0 0
-2.54016e-08 0 0
-2.5403e-08 0 0
-2.54054e-08 0 0
0.00200358 0 0
0 0 5.37311e-07
-5.75619e-12 0 -5.19194e-10
8.17527e-09 0 3.82818e-09
1.79657e-08 0 2.23203e-08
-4.16424e-08 0 1.8831e-08
-1.14184e-09 0 6.12718e-10
5.98064e-09 0 -3.60037e-09
8.59239e-09 0 -7.70376e-09
1.30784e-08 0 -8.25522e-09
1.66167e-08 0 -7.047e-09
2.23734e-08 0 -5.32691e-09
2.82825e-08 0 -3.24744e-09
2.70849e-08 0 -1.11085e-09
1.57838e-08 0 3.09115e-10
-4.81077e-10 0 4.76244e-10
-1.46475e-08 0 -1.1098e-10
-2.43251e-08 0 -4.74077e-10
-3.12377e-08 0 -2.3538e-10
-3.74863e-08 0 3.10274e-10
-4.3751e-08 0 7.62315e-10
-4.96772e-08 0 9.47857e-10
-5.47321e-08 0 9.00925e-10
-5.86431e-08 0 7.30522e-10
-6.143e-08 0 5.31071e-10
-6.3281e-08 0 3.5551e-10
-6.44331e-08 0 2.22274e-10
-6.51027e-08 0 1.30418e-10
-6.54598e-08 0 7.14315e-11
-6.56263e-08 0 3.57414e-11
-6.56837e-08 0 1.53531e-11
-6.56837e-08 0 4.44597e-12
-6.56575e-08 0 -8.7866e-13
-6.56225e-08 0 -3.08554e-12
-6.55879e-08 0 -3.66028e-12
-6.55576e-08 0 -3.45836e-12
-6.5533e-08 0 -2.94804e-12
-6.5514e-08 0 -2.36928e-12
-6.55e-08 0 -1.8331e-12
-6.54899e-08 0 -1.38118e-12
-6.54829e-08 0 -1.02031e-12
-6.54782e-08 0 -7.41395e-13
-6.54752e-08 0 -5.29539e-13
-6.54735e-08 0 -3.68984e-13
-6.54726e-08 0 -2.44384e-13
-6.54723e-08 0 -1.42905e-13
-6.54725e-08 0 -5.39917e-14
-6.54731e-08 0 2.7237e-14
-6.54743e-08 0 4.62004e-14
-6.54761e-08 0 1.77629e-13
-6.54801e-08 0 1.66901e-12
0.00568105 0 -8.56479e-09
0.0036 -3.10958e-07 -6.41187e-08
0.0035998 -0.00137314 -1.69333e-05
0.0067242 -0.00388344 0.000105786
0.0135978 -0.00596475 -0.000604642
0.0235855 -0.014396 -0.0043616
0.046208 -0.0131592 -0.00488818
0.0496727 -0.00181226 -0.00165958
0.0494196 0.00272754 -0.000182118
0.0444168 0.00504379 0.000537137
0.0387715 0.00520413 0.000498974
0.0336112 0.00454189 0.000218746
0.0292822 0.00365099 -4.92986e-05
0.0258831 0.00273063 -0.000232769
0.0233371 0.00189491 -0.000318338
0.0214686 0.00123727 -0.000312488
0.0200988 0.000789439 -0.000243267
0.0190947 0.00051442 -0.000153466
0.0183659 0.000349444 -7.73643e-05
0.0178476 0.000244031 -2.80955e-05
0.0174896 0.000170282 -2.78646e-06
0.0172504 0.000116107 7.0075e-06
0.0170965 7.64579e-05 8.83477e-06
0.0170012 4.83641e-05 7.48595e-06
0.0169446 2.92697e-05 5.39085e-06
0.0169126 1.68326e-05 3.5291e-06
0.0168956 9.06556e-06 2.15904e-06
0.0168874 4.42286e-06 1.24816e-06
0.0168841 1.78348e-06 6.82112e-07
0.0168833 3.77695e-07 3.48435e-07
0.0168837 -2.9991e-07 1.61015e-07
0.0168847 -5.68394e-07 6.11423e-08
0.0168857 -6.21613e-07 1.14639e-08
0.0168866 -5.72613e-07 -1.0669e-08
0.0168874 -4.84133e-07 -1.84525e-08
0.0168881 -3.88731e-07 -1.9287e-08
0.0168886 -3.01592e-07 -1.71515e-08
0.0168889 -2.28382e-07 -1.4074e-08
0.0168892 -1.6991e-07 -1.10081e-08
0.0168894 -1.24767e-07 -8.34082e-09
0.0168896 -9.0761e-08 -6.17612e-09
0.0168897 -6.56308e-08 -4.49081e-09
0.0168897 -4.73737e-08 -3.2189e-09
0.0168898 -3.43562e-08 -2.28966e-09
0.0168898 -2.53319e-08 -1.64668e-09
0.0168899 -1.94232e-08 -1.24893e-09
0.0168899 -1.60363e-08 -9.51023e-10
0.0168899 -1.49871e-08 -4.32242e-10
0.0168899 -1.6381e-08 1.98016e-09
0.01689 -2.62191e-08 6.0064e-09
0.0168901 -7.92377e-08 -1.14972e-08
0.0168902 -1.23748e-07 -3.09827e-08
0.01 -1.40993e-07 -1.46079e-06
0.0100007 -0.00299074 -0.000590538
0.0148028 -0.00992108 -0.000771073
0.0241476 -0.0176987 -0.00130008
0.0383939 -0.0323082 -0.00339081
0.0589203 -0.0245324 -0.000808986
0.0561972 -0.00261696 0.00313787
0.0556603 0.00520506 0.00332722
0.0498899 0.0102448 0.00290139
0.0443955 0.0104414 0.00196413
0.039879 0.00937235 0.00100463
0.0361645 0.00789578 0.000269439
0.0331881 0.00631096 -0.000237969
0.0308962 0.00483419 -0.000511822
0.0291415 0.00359178 -0.000556709
0.0278041 0.00260877 -0.000446858
0.0268065 0.00185666 -0.000285811
0.0260865 0.00129489 -0.000146981
0.0255853 0.000883774 -5.63362e-05
0.0252494 0.000588689 -8.90245e-06
0.0250334 0.000381443 1.0344e-05
0.0249009 0.00023962 1.48503e-05
0.0248241 0.000145397 1.32284e-05
0.0247827 8.47549e-05 9.92296e-06
0.0247625 4.70048e-05 6.79205e-06
0.0247543 2.43279e-05 4.38849e-06
0.0247526 1.12461e-05 2.72272e-06
0.0247538 4.06994e-06 1.63675e-06
0.0247562 4.02208e-07 9.57543e-07
0.0247588 -1.26398e-06 5.45842e-07
0.0247612 -1.84523e-06 3.02754e-07
0.0247632 -1.87994e-06 1.62669e-07
0.0247648 -1.67166e-06 8.39079e-08
0.024766 -1.38277e-06 4.08212e-08
0.0247669 -1.09373e-06 1.80198e-08
0.0247675 -8.39388e-07 6.47748e-09
0.024768 -6.30552e-07 1.01318e-09
0.0247684 -4.66339e-07 -1.28163e-09
0.0247686 -3.40981e-07 -1.99956e-09
0.0247688 -2.47338e-07 -1.98628e-09
0.0247689 -1.78587e-07 -1.67442e-09
0.024769 -1.28907e-07 -1.28198e-09
0.0247691 -9.36739e-08 -9.16014e-10
0.0247692 -6.94049e-08 -6.17898e-10
0.0247692 -5.37328e-08 -4.05002e-10
0.0247692 -4.53028e-08 3.09043e-11
0.0247693 -4.46265e-08 1.36777e-09
0.0247693 -5.88934e-08 4.77517e-09
0.0247694 -1.01604e-07 6.94385e-09
0.0247695 -1.98234e-07 -2.8425e-08
0.0247696 -2.64596e-07 -6.3547e-08
0.0148 -9.64255e-07 -1.74925e-06
0.0148024 -0.0052855 -0.00112572
0.0203354 -0.0163529 -0.00242461
0.0273854 -0.0286077 -0.00395359
0.0319632 -0.045816 -0.00574182
0.0304692 -0.0282954 -0.00136557
0.0267484 -1.22689e-05 0.00327964
0.0262076 0.00712429 0.00347153
0.0298206 0.0146068 0.00333291
0.0302169 0.0141269 0.00233513
0.0294163 0.012384 0.00134866
0.0285672 0.0105363 0.000497552
0.0278869 0.00856916 -0.000102423
0.0275322 0.00663381 -0.000419906
0.0274052 0.00493194 -0.000472645
0.0274061 0.00353766 -0.000366555
0.0274681 0.00245974 -0.000215591
0.027548 0.00166728 -8.89817e-05
0.0276229 0.00110497 -9.22208e-06
0.0276864 0.000714591 2.87076e-05
0.0277395 0.000448363 3.92858e-05
0.0277847 0.000270824 3.60721e-05
0.0278234 0.000155908 2.80567e-05
0.0278558 8.41925e-05 1.98569e-05
0.0278821 4.13075e-05 1.32201e-05
0.0279027 1.69345e-05 8.43157e-06
0.0279183 3.96663e-06 5.20618e-06
0.0279299 -2.28209e-06 3.13125e-06
0.0279383 -4.77207e-06 1.84047e-06
0.0279442 -5.2964e-06 1.05858e-06
0.0279484 -4.89384e-06 5.95605e-07
0.0279513 -4.13566e-06 3.27134e-07
0.0279533 -3.31495e-06 1.74613e-07
0.0279547 -2.56646e-06 8.98176e-08
0.0279556 -1.93942e-06 4.38145e-08
0.0279563 -1.44006e-06 1.95962e-08
0.0279567 -1.05545e-06 7.35288e-09
0.027957 -7.6612e-07 1.53144e-09
0.0279572 -5.52215e-07 -9.50019e-10
0.0279574 -3.96227e-07 -1.76338e-09
0.0279575 -2.83817e-07 -1.79145e-09
0.0279576 -2.03808e-07 -1.49117e-09
0.0279576 -1.4783e-07 -1.09177e-09
0.0279576 -1.09899e-07 -6.5933e-10
0.0279577 -8.61529e-08 -1.46688e-10
0.0279577 -7.54865e-08 7.6989e-10
0.0279577 -7.9961e-08 2.53758e-09
0.0279578 -1.05073e-07 3.94276e-09
0.0279578 -1.57088e-07 -4.02517e-09
0.0279578 -2.32472e-07 -5.40603e-08
0.0279578 -2.74508e-07 -9.58698e-08
0.018 -1.94789e-06 -1.70889e-06
0.0180029 -0.00694926 -0.00188468
0.0207151 -0.0188132 -0.00491404
0.0206295 -0.0246879 -0.00631987
0.0160275 -0.0267635 -0.00759488
-1.59413e-06 -0.0139492 -0.00430539
9.79118e-05 2.68969e-05 9.12722e-07
-3.38807e-05 3.52713e-05 0.000637159
0.00666152 0.00420491 0.0013842
0.0137127 0.00960587 0.00133087
0.0171635 0.0105368 0.00091028
0.0188828 0.00956129 0.00035407
0.0205407 0.00785881 -0.000129051
0.0222382 0.00593996 -0.000361489
0.0237969 0.00424976 -0.000377434
0.0251303 0.00289942 -0.000282546
0.0262153 0.00189825 -0.000159453
0.027055 0.00120412 -5.39016e-05
0.0276733 0.000743695 1.5581e-05
0.0281107 0.000443952 4.88306e-05
0.0284128 0.000250766 5.58694e-05
0.0286191 0.000128924 4.88889e-05
0.0287592 5.5338e-05 3.71778e-05
0.0288536 1.38424e-05 2.58706e-05
0.0289166 -7.22973e-06 1.69317e-05
0.0289582 -1.60911e-05 1.05926e-05
0.0289853 -1.82126e-05 6.39674e-06
0.0290027 -1.70071e-05 3.7498e-06
0.0290138 -1.44569e-05 2.13956e-06
0.0290208 -1.16219e-05 1.18856e-06
0.0290252 -9.00657e-06 6.41348e-07
0.0290279 -6.80401e-06 3.34176e-07
0.0290296 -5.04634e-06 1.66115e-07
0.0290307 -3.69219e-06 7.68076e-08
0.0290313 -2.67405e-06 3.10587e-08
0.0290317 -1.92184e-06 8.80632e-09
0.029032 -1.3733e-06 -1.14102e-09
0.0290322 -9.77219e-07 -4.88842e-09
0.0290323 -6.93472e-07 -5.68288e-09
0.0290324 -4.91577e-07 -5.19615e-09
0.0290324 -3.48911e-07 -4.25201e-09
0.0290324 -2.49e-07 -3.23434e-09
0.0290325 -1.80103e-07 -2.2941e-09
0.0290325 -1.34241e-07 -1.44448e-09
0.0290325 -1.06581e-07 -6.73028e-10
0.0290325 -9.46792e-08 -3.86537e-11
0.0290325 -9.72592e-08 9.42297e-11
0.0290325 -1.11627e-07 -2.39132e-09
0.0290325 -1.34884e-07 -2.00551e-08
0.0290325 -1.56408e-07 -7.50138e-08
0.0290324 -1.64274e-07 -1.14668e-07
0.0196 -2.80178e-06 -2.58625e-06
0.019601 -0.00583052 -0.00274474
0.0190676 -0.0130091 -0.00645837
0.0159925 -0.015975 -0.00666465
0.0109831 -0.0149449 -0.00668156
0.00178602 -0.00615129 -0.00501926
7.30624e-05 -6.71044e-05 -0.00128623
3.32237e-05 -3.32237e-05 -3.99209e-08
-3.32423e-05 3.4519e-05 0.000242273
0.00406168 0.00293834 0.00051174
0.0093633 0.00691536 0.000438999
0.0122839 0.00724855 9.45289e-05
0.0155288 0.00557713 -0.000274233
0.0186819 0.00381946 -0.000412254
0.0213801 0.00241873 -0.00039079
0.0235644 0.00137772 -0.000304434
0.0252791 0.000672985 -0.000198973
0.0265746 0.000254995 -9.77965e-05
0.0275061 3.88133e-05 -1.95574e-05
0.0281441 -6.02476e-05 2.62281e-05
0.0285652 -9.92902e-05 4.30535e-05
0.0288361 -0.000108382 4.1759e-05
0.0290073 -0.000102198 3.28422e-05
0.0291137 -8.86704e-05 2.28732e-05
0.0291788 -7.2649e-05 1.4688e-05
0.029218 -5.70617e-05 8.88925e-06
0.029241 -4.34225e-05 5.13254e-06
0.0292544 -3.22697e-05 2.84367e-06
0.0292619 -2.3563e-05 1.51257e-06
0.029266 -1.69842e-05 7.68097e-07
0.0292683 -1.21276e-05 3.66691e-07
0.0292694 -8.6015e-06 1.58537e-07
0.02927 -6.07164e-06 5.56428e-08
0.0292702 -4.27172e-06 8.17005e-09
0.0292703 -2.99866e-06 -1.12335e-08
0.0292703 -2.10197e-06 -1.71323e-08
0.0292703 -1.47222e-06 -1.70312e-08
0.0292703 -1.03092e-06 -1.4644e-08
0.0292703 -7.22257e-07 -1.17057e-08
0.0292702 -5.06834e-07 -8.95017e-09
0.0292702 -3.56972e-07 -6.62646e-09
0.0292702 -2.53359e-07 -4.77682e-09
0.0292702 -1.82674e-07 -3.3726e-09
0.0292702 -1.35808e-07 -2.4066e-09
0.0292702 -1.06348e-07 -2.02991e-09
0.0292701 -8.90448e-08 -2.47081e-09
0.0292701 -7.8974e-08 -4.23441e-09
0.0292701 -7.01783e-08 -8.91322e-09
0.0292701 -5.47952e-08 -2.95592e-08
0.02927 -2.09628e-08 -8.20863e-08
0.0292699 2.459e-09 -1.17342e-07
0.0196 -1.34109e-06 -3.58615e-06
0.0195999 -0.00364528 -0.00311871
0.0188105 -0.00796297 -0.00649408
0.0175707 -0.00792231 -0.00605238
0.013294 -0.00407668 -0.00556134
0.00920212 0.00273179 -0.00529366
0.00618288 0.00320519 -0.0030458
7.32115e-05 -6.09973e-05 -0.000640219
2.7755e-05 -2.7755e-05 -1.27605e-07
-3.26583e-05 3.38263e-05 8.46481e-05
0.0029072 0.00220197 0.00034489
0.00735947 0.00351499 0.000267681
0.0127026 0.00178787 -0.000120247
0.0173622 0.00047553 -0.000284672
0.0209453 -0.000279919 -0.000306222
0.0235801 -0.000722091 -0.000279858
0.0254863 -0.00092564 -0.000230554
0.0268302 -0.000924963 -0.000160428
0.0277326 -0.000796255 -8.5982e-05
0.0283034 -0.000625824 -2.8766e-05
0.0286446 -0.000467492 2.88773e-06
0.0288386 -0.000339867 1.41581e-05
0.0289442 -0.00024306 1.44007e-05
0.0289988 -0.000171644 1.07476e-05
0.0290252 -0.00011989 6.83439e-06
0.0290367 -8.29717e-05 3.89154e-06
0.0290407 -5.70205e-05 2.01517e-06
0.0290412 -3.90051e-05 9.39816e-07
0.0290402 -2.66172e-05 3.74218e-07
0.0290388 -1.81526e-05 1.01467e-07
0.0290374 -1.23891e-05 -1.57829e-08
0.0290362 -8.46929e-06 -5.64111e-08
0.0290352 -5.80207e-06 -6.25344e-08
0.0290345 -3.9842e-06 -5.52028e-08
0.0290339 -2.74242e-06 -4.41863e-08
0.0290335 -1.89203e-06 -3.35636e-08
0.0290332 -1.30825e-06 -2.47166e-08
0.029033 -9.06632e-07 -1.78523e-08
0.0290329 -6.299e-07 -1.27324e-08
0.0290328 -4.39087e-07 -9.00266e-09
0.0290327 -3.07617e-07 -6.33021e-09
0.0290326 -2.1729e-07 -4.46993e-09
0.0290326 -1.55486e-07 -3.28733e-09
0.0290325 -1.13154e-07 -2.75528e-09
0.0290325 -8.33595e-08 -3.0058e-09
0.0290325 -6.01712e-08 -4.0766e-09
0.0290325 -3.78465e-08 -6.2246e-09
0.0290324 -9.33989e-09 -1.06909e-08
0.0290324 3.79767e-08 -2.82938e-08
0.0290323 1.18188e-07 -7.38353e-08
0.0290322 1.67927e-07 -1.04823e-07
0.018 -8.63985e-07 -3.56675e-06
0.0180009 -0.00197585 -0.00304094
0.018335 -0.00376998 -0.00613976
0.018424 -0.00248948 -0.00529122
0.0174498 0.000826556 -0.00423645
0.017201 0.00721586 -0.00396857
0.0179317 0.0126299 -0.00293317
0.0110342 0.00693512 -0.00142886
7.47333e-05 -4.72613e-05 -0.000416393
-2.57051e-05 -5.49111e-05 5.54016e-07
7.85854e-06 -0.000569175 0.000745806
0.00849188 -0.00258599 0.0010998
0.0159908 -0.00425668 0.000508507
0.0210753 -0.00415185 0.000233622
0.0242371 -0.00348948 0.000107124
0.0261243 -0.00285563 -3.868e-06
0.0272131 -0.00231362 -0.000105134
0.0278053 -0.00180457 -0.000153089
0.0280897 -0.00132974 -0.000140096
0.0281924 -0.00092996 -9.73703e-05
0.0281996 -0.000627479 -5.59793e-05
0.0281656 -0.000414921 -2.82658e-05
0.0281207 -0.000271599 -1.32506e-05
0.0280787 -0.000176945 -6.14022e-06
0.0280445 -0.000115099 -3.01402e-06
0.0280187 -7.4934e-05 -1.64722e-06
0.028 -4.89315e-05 -1.00211e-06
0.0279869 -3.21038e-05 -6.52551e-07
0.0279778 -2.11889e-05 -4.36457e-07
0.0279715 -1.4077e-05 -2.92399e-07
0.0279672 -9.41469e-06 -1.94091e-07
0.0279642 -6.33662e-06 -1.27306e-07
0.0279622 -4.28967e-06 -8.25946e-08
0.0279608 -2.91885e-06 -5.31382e-08
0.0279599 -1.99491e-06 -3.40005e-08
0.0279592 -1.36864e-06 -2.16992e-08
0.0279588 -9.42124e-07 -1.38498e-08
0.0279584 -6.50529e-07 -8.86312e-09
0.0279582 -4.50603e-07 -5.70287e-09
0.0279581 -3.13258e-07 -3.70748e-09
0.027958 -2.1875e-07 -2.46908e-09
0.0279579 -1.5349e-07 -1.76222e-09
0.0279578 -1.07889e-07 -1.48494e-09
0.0279578 -7.48759e-08 -1.6003e-09
0.0279577 -4.88171e-08 -2.17133e-09
0.0279577 -2.45848e-08 -3.13165e-09
0.0279577 3.41945e-09 -4.60294e-09
0.0279577 4.24854e-08 -7.51352e-09
0.0279576 1.07681e-07 -1.8073e-08
0.0279576 2.12034e-07 -5.32744e-08
0.0279576 2.74566e-07 -7.99086e-08
0.0148 -4.85149e-07 -3.15887e-06
0.0148015 -0.0010102 -0.00281576
0.0162497 -0.00156099 -0.00540769
0.0178681 0.000115313 -0.00430907
0.0192781 0.00334229 -0.00312926
0.0210916 0.00745638 -0.00289565
0.024912 0.0129728 -0.00240384
0.0281924 0.0195505 -0.00146864
0.0231516 0.0113584 -0.000309077
0.0235831 1.44599e-10 0.000633255
0.0267403 -0.00665744 0.00156327
0.030353 -0.0130373 0.00211585
0.031383 -0.0110841 0.00166816
0.0308692 -0.00788954 0.00122238
0.0297857 -0.00530737 0.000797283
0.0286361 -0.00354681 0.000388283
0.0276219 -0.00237652 5.08935e-05
0.0268032 -0.00157018 -0.000142588
0.02618 -0.00100703 -0.000190703
0.0257263 -0.000627731 -0.000156158
0.0254072 -0.000385649 -0.000101618
0.0251889 -0.00023705 -5.76942e-05
0.0250429 -0.000147157 -3.00913e-05
0.0249469 -9.25812e-05 -1.48957e-05
0.0248845 -5.90438e-05 -7.14818e-06
0.0248443 -3.81389e-05 -3.36881e-06
0.0248184 -2.49253e-05 -1.5684e-06
0.0248016 -1.64624e-05 -7.20088e-07
0.0247908 -1.09744e-05 -3.22136e-07
0.0247837 -7.37456e-06 -1.36176e-07
0.024779 -4.98881e-06 -5.02065e-08
0.0247758 -3.39351e-06 -1.159e-08
0.0247737 -2.31869e-06 4.59817e-09
0.0247723 -1.59004e-06 1.02818e-08
0.0247714 -1.09358e-06 1.12136e-08
0.0247707 -7.53983e-07 1.01701e-08
0.0247703 -5.20962e-07 8.47134e-09
0.0247699 -3.60698e-07 6.71705e-09
0.0247697 -2.50266e-07 5.15092e-09
0.0247696 -1.74009e-07 3.84353e-09
0.0247695 -1.21123e-07 2.78397e-09
0.0247694 -8.40173e-08 1.92161e-09
0.0247694 -5.71898e-08 1.19323e-09
0.0247693 -3.63905e-08 5.44412e-10
0.0247693 -1.79548e-08 -1.06026e-10
0.0247693 1.76766e-09 -7.04244e-10
0.0247693 2.72621e-08 -1.23762e-09
0.0247693 6.40338e-08 -2.29172e-09
0.0247693 1.22517e-07 -6.24125e-09
0.0247693 2.09822e-07 -3.18183e-08
0.0247694 2.60594e-07 -5.42325e-08
0.01 -9.25895e-07 -2.85561e-06
0.0100008 -0.000620841 -0.00229434
0.0113504 -0.000668972 -0.00414077
0.0132894 0.000622767 -0.00294828