# vtk DataFile Version 2.0
Tobias Weinzierl: CPU, Manycore and Cluster Computing
ASCII

DATASET STRUCTURED_POINTS
DIMENSIONS  51 11 6

ORIGIN 0 0 0 

SPACING 0.1 0.1 0.1 

POINT_DATA 3366

VECTORS velocity float
0 0 0
-1.58314e-10 0 0
-9.60071e-08 0 0
-2.41243e-07 0 0
-3.19084e-07 0 0
-1.06613e-07 0 0
-2.18213e-08 0 0
8.28054e-09 0 0
-1.07842e-08 0 0
-7.3211e-08 0 0
-1.33109e-07 0 0
-1.64235e-07 0 0
-1.70058e-07 0 0
-1.64634e-07 0 0
-1.58354e-07 0 0
-1.55224e-07 0 0
-1.55093e-07 0 0
-1.56546e-07 0 0
-1.58419e-07 0 0
-1.60106e-07 0 0
-1.6141e-07 0 0
-1.62337e-07 0 0
-1.62967e-07 0 0
-1.63389e-07 0 0
-1.63679e-07 0 0
-1.63888e-07 0 0
-1.64053e-07 0 0
-1.64194e-07 0 0
-1.64324e-07 0 0
-1.64449e-07 0 0
-1.64572e-07 0 0
-1.64694e-07 0 0
-1.64815e-07 0 0
-1.64934e-07 0 0
-1.65051e-07 0 0
-1.65165e-07 0 0
-1.65274e-07 0 0
-1.65378e-07 0 0
-1.65477e-07 0 0
-1.65571e-07 0 0
-1.65657e-07 0 0
-1.65738e-07 0 0
-1.65811e-07 0 0
-1.65877e-07 0 0
-1.65935e-07 0 0
-1.65986e-07 0 0
-1.66031e-07 0 0
-1.6607e-07 0 0
-1.66106e-07 0 0
-1.66146e-07 0 0
0.00254665 0 0
0 4.5218e-07 0
-2.70844e-10 4.15669e-08 0
-1.6975e-07 8.93831e-08 0
-4.51865e-07 8.9143e-08 0
-5.59077e-07 6.14594e-08 0
-2.13344e-07 7.8008e-08 0
-1.02197e-07 1.19301e-07 0
-5.65333e-08 1.05676e-07 0
-4.1666e-08 9.3183e-08 0
-1.11473e-07 9.25867e-08 0
-2.04894e-07 7.09134e-08 0
-2.63307e-07 3.80464e-08 0
-2.82036e-07 1.18035e-08 0
-2.82711e-07 -9.19969e-10 0
-2.83164e-07 -3.20346e-09 0
-2.89026e-07 -1.16139e-09 0
-2.9841e-07 1.02375e-09 0
-3.08161e-07 2.05864e-09 0
-3.16404e-07 2.13759e-09 0
-3.22583e-07 1.75051e-09 0
-3.26875e-07 1.24761e-09 0
-3.2971e-07 7.99998e-10 0
-3.31529e-07 4.62913e-10 0
-3.32685e-07 2.34854e-10 0
-3.33434e-07 9.34883e-11 0
-3.33944e-07 1.33622e-11 0
-3.34321e-07 -2.70307e-11 0
-3.34629e-07 -4.35035e-11 0
-3.34901e-07 -4.66881e-11 0
-3.35158e-07 -4.32465e-11 0
-3.35407e-07 -3.70865e-11 0
-3.35653e-07 -3.03369e-11 0
-3.35895e-07 -2.40447e-11 0
-3.36134e-07 -1.86372e-11 0
-3.36368e-07 -1.42101e-11 0
-3.36595e-07 -1.06986e-11 0
-3.36813e-07 -7.97243e-12 0
-3.37022e-07 -5.88629e-12 0
-3.3722e-07 -4.30234e-12 0
-3.37406e-07 -3.0981e-12 0
-3.3758e-07 -2.16514e-12 0
-3.3774e-07 -1.40141e-12 0
-3.37886e-07 -6.96967e-13 0
-3.38017e-07 9.10951e-14 0
-3.38134e-07 1.18821e-12 0
-3.38236e-07 2.99023e-12 0
-3.38324e-07 6.2035e-12 0
-3.384e-07 1.2187e-11 0
-3.38469e-07 2.38533e-11 0
-3.38542e-07 4.63795e-11 0
0.00692695 -2.14524e-07 0
0 1.76678e-08 0
-1.95652e-10 4.67893e-08 0
-8.11301e-08 4.27139e-08 0
-3.10113e-07 -7.8133e-08 0
-3.07092e-07 -1.0524e-07 0
-6.54984e-08 5.34641e-08 0
-1.28952e-07 1.79043e-07 0
-1.47912e-07 1.13013e-07 0
-1.15554e-07 2.04185e-08 0
-1.20291e-07 4.7141e-09 0
-1.76177e-07 1.66097e-08 0
-2.16946e-07 4.14626e-08 0
-2.3064e-07 6.0477e-08 0
-2.29194e-07 6.2104e-08 0
-2.29101e-07 5.27395e-08 0
-2.36428e-07 4.09198e-08 0
-2.48293e-07 3.01045e-08 0
-2.60369e-07 2.1179e-08 0
-2.70246e-07 1.42778e-08 0
-2.77365e-07 9.23347e-09 0
-2.82099e-07 5.72573e-09 0
-2.85087e-07 3.39371e-09 0
-2.86917e-07 1.90738e-09 0
-2.88031e-07 9.98952e-10 0
-2.88728e-07 4.6804e-10 0
-2.89193e-07 1.7365e-10 0
-2.89537e-07 2.14621e-11 0
-2.89823e-07 -4.89095e-11 0
-2.90083e-07 -7.45856e-11 0
-2.90332e-07 -7.74942e-11 0
-2.90578e-07 -7.00477e-11 0
-2.90822e-07 -5.8922e-11 0
-2.91064e-07 -4.74633e-11 0
-2.91303e-07 -3.71644e-11 0
-2.91537e-07 -2.85363e-11 0
-2.91764e-07 -2.16062e-11 0
-2.91983e-07 -1.61892e-11 0
-2.92192e-07 -1.20303e-11 0
-2.92391e-07 -8.87122e-12 0
-2.92577e-07 -6.47728e-12 0
-2.92751e-07 -4.64128e-12 0
-2.92911e-07 -3.17304e-12 0
-2.93057e-07 -1.87628e-12 0
-2.93188e-07 -5.11345e-13 0
-2.93303e-07 1.26947e-12 0
-2.93404e-07 4.06625e-12 0
-2.93489e-07 8.97959e-12 0
-2.9356e-07 1.77658e-11 0
-2.93619e-07 3.23815e-11 0
-2.93676e-07 5.62687e-11 0
0.00923588 -3.30527e-07 0
0 -6.10651e-07 0
-1.5455e-10 5.0412e-09 0
-1.72273e-10 -7.99309e-08 0
-2.00975e-07 -2.73976e-07 0
-2.06773e-07 -3.32094e-07 0
4.12524e-08 -1.42736e-07 0
-4.93182e-08 5.95198e-11 0
-8.31178e-08 -6.00467e-08 0
-1.92177e-07 -1.54174e-07 0
-2.18404e-07 -1.62143e-07 0
-2.56949e-07 -8.82582e-08 0
-2.84551e-07 8.24585e-09 0
-2.84203e-07 7.66084e-08 0
-2.60363e-07 9.2743e-08 0
-2.32707e-07 8.04715e-08 0
-2.15335e-07 6.19368e-08 0
-2.09053e-07 4.47463e-08 0
-2.08998e-07 3.06456e-08 0
-2.10994e-07 1.99395e-08 0
-2.13e-07 1.23448e-08 0
-2.14418e-07 7.26631e-09 0
-2.15274e-07 4.04135e-09 0
-2.15756e-07 2.08895e-09 0
-2.16036e-07 9.62797e-10 0
-2.1623e-07 3.48068e-10 0
-2.16401e-07 3.60775e-11 0
-2.16579e-07 -1.04775e-10 0
-2.16774e-07 -1.5395e-10 0
-2.16986e-07 -1.57478e-10 0
-2.17213e-07 -1.40881e-10 0
-2.17449e-07 -1.17581e-10 0
-2.1769e-07 -9.41313e-11 0
-2.17933e-07 -7.33439e-11 0
-2.18174e-07 -5.60998e-11 0
-2.1841e-07 -4.23553e-11 0
-2.18639e-07 -3.16813e-11 0
-2.1886e-07 -2.35373e-11 0
-2.1907e-07 -1.73988e-11 0
-2.1927e-07 -1.2808e-11 0
-2.19457e-07 -9.38411e-12 0
-2.19631e-07 -6.81525e-12 0
-2.19792e-07 -4.83889e-12 0
-2.19937e-07 -3.21373e-12 0
-2.20068e-07 -1.67498e-12 0
-2.20183e-07 1.14957e-13 0
-2.20283e-07 2.58063e-12 0
-2.20365e-07 6.27551e-12 0
-2.20431e-07 1.21803e-11 0
-2.20482e-07 2.22515e-11 0
-2.20528e-07 3.91732e-11 0
0.00980313 -2.76305e-07 0
0 -1.17458e-06 0
-2.10079e-10 -5.18731e-08 0
-1.6751e-08 -1.65359e-07 0
-2.26796e-07 -2.48681e-07 0
-3.15494e-07 -2.04791e-07 0
3.42518e-11 -6.94826e-08 0
-8.73362e-09 -7.12653e-09 0
6.99491e-09 -7.3428e-09 0
-1.07525e-07 -1.08232e-07 0
-2.697e-07 -2.02767e-07 0
-3.05161e-07 -1.2418e-07 0
-3.2854e-07 -2.37199e-09 0
-3.3897e-07 7.08305e-08 0
-3.17946e-07 8.05525e-08 0
-2.7766e-07 6.4403e-08 0
-2.40996e-07 4.77005e-08 0
-2.17382e-07 3.41234e-08 0
-2.04599e-07 2.29808e-08 0
-1.97977e-07 1.43082e-08 0
-1.9436e-07 8.16333e-09 0
-1.92212e-07 4.19562e-09 0
-1.90871e-07 1.84039e-09 0
-1.90043e-07 5.54342e-10 0
-1.8957e-07 -8.03935e-11 0
-1.89346e-07 -3.46526e-10 0
-1.89297e-07 -4.19371e-10 0
-1.89366e-07 -4.00455e-10 0
-1.89511e-07 -3.44962e-10 0
-1.89706e-07 -2.80821e-10 0
-1.8993e-07 -2.20805e-10 0
-1.90171e-07 -1.69716e-10 0
-1.90419e-07 -1.2845e-10 0
-1.90668e-07 -9.61797e-11 0
-1.90914e-07 -7.14751e-11 0
-1.91155e-07 -5.28348e-11 0
-1.91388e-07 -3.8913e-11 0
-1.91612e-07 -2.85915e-11 0
-1.91825e-07 -2.09807e-11 0
-1.92026e-07 -1.53914e-11 0
-1.92214e-07 -1.12982e-11 0
-1.92389e-07 -8.3021e-12 0
-1.9255e-07 -6.09715e-12 0
-1.92696e-07 -4.44399e-12 0
-1.92827e-07 -3.15322e-12 0
-1.92942e-07 -2.04956e-12 0
-1.93041e-07 -8.73958e-13 0
-1.93123e-07 8.77991e-13 0
-1.93187e-07 4.06884e-12 0
-1.93237e-07 9.83938e-12 0
-1.93281e-07 1.90721e-11 0
0.0099089 -1.47679e-07 0
0 -1.04913e-06 0
-2.52767e-10 -6.45988e-08 0
-4.75345e-08 -1.48984e-07 0
-2.47565e-07 -2.01818e-07 0
-3.8414e-07 -2.22771e-07 0
-1.47134e-07 -1.05309e-07 0
-7.89211e-09 8.05168e-09 0
-1.05728e-09 1.05728e-09 0
6.74903e-09 -7.23994e-09 0
-1.33344e-07 -9.14738e-08 0
-2.51871e-07 -1.23495e-07 0
-2.76898e-07 9.37115e-09 0
-3.34391e-07 9.43276e-08 0
-3.58245e-07 8.57066e-08 0
-3.26969e-07 5.01426e-08 0
-2.7666e-07 2.6261e-08 0
-2.37116e-07 1.37953e-08 0
-2.13195e-07 6.52388e-09 0
-1.9994e-07 1.97224e-09 0
-1.92601e-07 -6.00821e-10 0
-1.8845e-07 -1.75612e-09 0
-1.86093e-07 -2.04793e-09 0
-1.84796e-07 -1.90537e-09 0
-1.84141e-07 -1.59648e-09 0
-1.83876e-07 -1.26212e-09 0
-1.83845e-07 -9.63754e-10 0
-1.83952e-07 -7.20414e-10 0
-1.8414e-07 -5.31507e-10 0
-1.84371e-07 -3.8904e-10 0
-1.84626e-07 -2.83448e-10 0
-1.84889e-07 -2.06e-10 0
-1.85155e-07 -1.4954e-10 0
-1.85417e-07 -1.08522e-10 0
-1.85673e-07 -7.87744e-11 0
-1.85921e-07 -5.7217e-11 0
-1.8616e-07 -4.15989e-11 0
-1.86387e-07 -3.02852e-11 0
-1.86603e-07 -2.2093e-11 0
-1.86806e-07 -1.61688e-11 0
-1.86996e-07 -1.18987e-11 0
-1.87172e-07 -8.8449e-12 0
-1.87333e-07 -6.70055e-12 0
-1.8748e-07 -5.25431e-12 0
-1.87612e-07 -4.35379e-12 0
-1.87727e-07 -3.87295e-12 0
-1.87826e-07 -3.68917e-12 0
-1.87908e-07 -3.64576e-12 0
-1.87973e-07 -3.42849e-12 0
-1.88022e-07 -2.52531e-12 0
-1.88066e-07 -7.53296e-13 0
0.0099227 1.00844e-09 0
0 -7.40288e-07 0
-2.32755e-10 -6.12752e-08 0
-5.13346e-08 -1.43975e-07 0
-2.44037e-07 -1.5171e-07 0
-4.04494e-07 -1.20685e-07 0
-3.27656e-07 -7.96278e-08 0
-9.64552e-08 -2.80158e-08 0
-7.99364e-09 8.10967e-09 0
-1.36075e-09 1.36075e-09 0
6.35765e-09 -7.13922e-09 0
-9.92877e-08 -2.0452e-08 0
-1.34861e-07 6.69943e-08 0
-2.57836e-07 1.73323e-07 0
-3.68893e-07 1.22627e-07 0
-3.71629e-07 4.08995e-08 0
-3.10985e-07 -1.29664e-09 0
-2.5398e-07 -1.3396e-08 0
-2.19723e-07 -1.45852e-08 0
-2.02452e-07 -1.28049e-08 0
-1.94281e-07 -1.02815e-08 0
-1.90521e-07 -7.77269e-09 0
-1.88875e-07 -5.62684e-09 0
-1.88255e-07 -3.95759e-09 0
-1.88137e-07 -2.73674e-09 0
-1.88263e-07 -1.87749e-09 0
-1.88503e-07 -1.28595e-09 0
-1.88795e-07 -8.83053e-10 0
-1.89105e-07 -6.09467e-10 0
-1.89417e-07 -4.23313e-10 0
-1.89726e-07 -2.96002e-10 0
-1.90026e-07 -2.08348e-10 0
-1.90315e-07 -1.47552e-10 0
-1.90594e-07 -1.05076e-10 0
-1.90862e-07 -7.51963e-11 0
-1.91118e-07 -5.40491e-11 0
-1.91361e-07 -3.90048e-11 0
-1.91592e-07 -2.82588e-11 0
-1.91811e-07 -2.05635e-11 0
-1.92016e-07 -1.50519e-11 0
-1.92207e-07 -1.11211e-11 0
-1.92384e-07 -8.35399e-12 0
-1.92547e-07 -6.46798e-12 0
-1.92694e-07 -5.28269e-12 0
-1.92826e-07 -4.70635e-12 0
-1.92943e-07 -4.73836e-12 0
-1.93043e-07 -5.4925e-12 0
-1.93126e-07 -7.23856e-12 0
-1.93192e-07 -1.03105e-11 0
-1.93242e-07 -1.47699e-11 0
-1.93286e-07 -2.07817e-11 0
0.00990889 1.48981e-07 0
0 -5.26507e-07 0
-2.2846e-10 -5.81919e-08 0
-6.44241e-08 -1.28359e-07 0
-2.50832e-07 -1.19368e-07 0
-3.89886e-07 -6.29911e-08 0
-3.52874e-07 -2.6452e-08 0
-2.26349e-07 -5.72673e-08 0
-1.1535e-07 -4.45929e-08 0
-8.8162e-09 7.40258e-09 0
5.97533e-09 8.06477e-09 0
-7.68322e-10 6.20721e-09 0
-3.24629e-08 1.51079e-07 0
-1.03502e-07 2.80808e-07 0
-2.50749e-07 1.78879e-07 0
-3.29079e-07 3.40305e-08 0
-3.09268e-07 -3.03947e-08 0
-2.63183e-07 -3.89684e-08 0
-2.31809e-07 -3.15175e-08 0
-2.17398e-07 -2.26882e-08 0
-2.12488e-07 -1.5516e-08 0
-2.11616e-07 -1.02766e-08 0
-2.12137e-07 -6.67587e-09 0
-2.12994e-07 -4.3013e-09 0
-2.13827e-07 -2.77328e-09 0
-2.14546e-07 -1.8005e-09 0
-2.1515e-07 -1.18152e-09 0
-2.15664e-07 -7.85122e-10 0
-2.1611e-07 -5.28544e-10 0
-2.16507e-07 -3.60318e-10 0
-2.16867e-07 -2.48505e-10 0
-2.172e-07 -1.73181e-10 0
-2.17511e-07 -1.21792e-10 0
-2.17804e-07 -8.63285e-11 0
-2.18081e-07 -6.16064e-11 0
-2.18343e-07 -4.42223e-11 0
-2.18591e-07 -3.19103e-11 0
-2.18825e-07 -2.31422e-11 0
-2.19045e-07 -1.68758e-11 0
-2.19251e-07 -1.23949e-11 0
-2.19444e-07 -9.20597e-12 0
-2.19622e-07 -6.97232e-12 0
-2.19785e-07 -5.475e-12 0
-2.19933e-07 -4.59418e-12 0
-2.20066e-07 -4.31218e-12 0
-2.20183e-07 -4.74243e-12 0
-2.20284e-07 -6.19581e-12 0
-2.20369e-07 -9.32696e-12 0
-2.20437e-07 -1.52761e-11 0
-2.2049e-07 -2.52977e-11 0
-2.20537e-07 -4.08897e-11 0
0.00980308 2.74388e-07 0
0 -4.69353e-07 0
-2.24329e-10 -4.85064e-08 0
-9.50705e-08 -1.07485e-07 0
-2.81699e-07 -9.60871e-08 0
-4.02721e-07 -4.47278e-08 0
-3.78633e-07 -1.45205e-09 0
-2.77505e-07 -2.22364e-08 0
-2.23745e-07 -1.1838e-07 0
-1.2274e-07 -9.00206e-08 0
-1.7463e-07 -4.1993e-11 0
-3.21266e-07 4.96237e-08 0
-3.10714e-07 1.71496e-07 0
-1.24355e-07 2.46994e-07 0
-1.15092e-07 1.77172e-07 0
-2.34816e-07 4.94155e-08 0
-2.93297e-07 -2.12462e-08 0
-2.90857e-07 -3.52462e-08 0
-2.80115e-07 -2.78333e-08 0
-2.7653e-07 -1.81771e-08 0
-2.7772e-07 -1.11808e-08 0
-2.80308e-07 -6.80374e-09 0
-2.82767e-07 -4.18215e-09 0
-2.84699e-07 -2.61977e-09 0
-2.86128e-07 -1.6767e-09 0
-2.87181e-07 -1.09558e-09 0
-2.87976e-07 -7.29239e-10 0
-2.886e-07 -4.93236e-10 0
-2.89112e-07 -3.38218e-10 0
-2.89549e-07 -2.34658e-10 0
-2.89935e-07 -1.64449e-10 0
-2.90284e-07 -1.1624e-10 0
-2.90605e-07 -8.27682e-11 0
-2.90905e-07 -5.93058e-11 0
-2.91186e-07 -4.27252e-11 0
-2.91452e-07 -3.09276e-11 0
-2.91702e-07 -2.24866e-11 0
-2.91938e-07 -1.64222e-11 0
-2.92159e-07 -1.20547e-11 0
-2.92367e-07 -8.91083e-12 0
-2.9256e-07 -6.6613e-12 0
-2.92738e-07 -5.08231e-12 0
-2.92902e-07 -4.0335e-12 0
-2.93051e-07 -3.45224e-12 0
-2.93184e-07 -3.36847e-12 0
-2.93301e-07 -3.95092e-12 0
-2.93403e-07 -5.59811e-12 0
-2.9349e-07 -9.14435e-12 0
-2.93562e-07 -1.63875e-11 0
-2.93621e-07 -3.05945e-11 0
-2.93677e-07 -5.66351e-11 0
0.00923581 3.21084e-07 0
0 -4.99022e-07 0
-2.26975e-10 -2.68822e-08 0
-1.21774e-07 -6.04435e-08 0
-2.92578e-07 -5.2303e-08 0
-3.90144e-07 -2.67156e-08 0
-3.96848e-07 -2.54755e-08 0
-3.36374e-07 -5.5392e-08 0
-2.98158e-07 -1.08152e-07 0
-3.30851e-07 -4.49171e-08 0
-3.27426e-07 1.45839e-07 0
-3.76982e-07 2.12011e-07 0
-3.04792e-07 7.36323e-08 0
-1.54783e-07 -8.34955e-08 0
-1.57989e-07 -1.12644e-07 0
-2.79271e-07 -5.73095e-08 0
-3.45551e-07 -1.28857e-09 0
-3.47246e-07 1.94007e-08 0
-3.35166e-07 1.68066e-08 0
-3.28356e-07 9.30284e-09 0
-3.26715e-07 3.94898e-09 0
-3.27416e-07 1.20938e-09 0
-3.28769e-07 6.46128e-11 0
-3.30099e-07 -3.1417e-10 0
-3.31215e-07 -3.78311e-10 0
-3.32111e-07 -3.34196e-10 0
-3.32832e-07 -2.65268e-10 0
-3.33423e-07 -2.0087e-10 0
-3.33922e-07 -1.48772e-10 0
-3.34356e-07 -1.09058e-10 0
-3.34742e-07 -7.96026e-11 0
-3.35094e-07 -5.80325e-11 0
-3.35419e-07 -4.23235e-11 0
-3.35722e-07 -3.09045e-11 0
-3.36005e-07 -2.26058e-11 0
-3.36273e-07 -1.65706e-11 0
-3.36525e-07 -1.21775e-11 0
-3.36762e-07 -8.97731e-12 0
-3.36984e-07 -6.64647e-12 0
-3.37193e-07 -4.95271e-12 0
-3.37386e-07 -3.73141e-12 0
-3.37565e-07 -2.87007e-12 0
-3.3773e-07 -2.30054e-12 0
-3.37879e-07 -2.00015e-12 0
-3.38012e-07 -2.00522e-12 0
-3.3813e-07 -2.44889e-12 0
-3.38234e-07 -3.64226e-12 0
-3.38322e-07 -6.245e-12 0
-3.38398e-07 -1.17899e-11 0
-3.38465e-07 -2.37987e-11 0
-3.38535e-07 -4.75021e-11 0
0.00692695 1.99691e-07 0
0 0 0
-1.12468e-10 0 0
-6.33623e-08 0 0
-1.39926e-07 0 0
-1.81134e-07 0 0
-1.9058e-07 0 0
-1.88664e-07 0 0
-1.89841e-07 0 0
-2.08798e-07 0 0
-1.53199e-07 0 0
-5.64636e-08 0 0
-6.71451e-09 0 0
-3.70549e-08 0 0
-1.14298e-07 0 0
-1.79629e-07 0 0
-1.98909e-07 0 0
-1.89403e-07 0 0
-1.75978e-07 0 0
-1.67468e-07 0 0
-1.63556e-07 0 0
-1.62225e-07 0 0
-1.62047e-07 0 0
-1.62293e-07 0 0
-1.62649e-07 0 0
-1.63001e-07 0 0
-1.63315e-07 0 0
-1.63589e-07 0 0
-1.63829e-07 0 0
-1.64042e-07 0 0
-1.64235e-07 0 0
-1.6441e-07 0 0
-1.64573e-07 0 0
-1.64725e-07 0 0
-1.64868e-07 0 0
-1.65002e-07 0 0
-1.65128e-07 0 0
-1.65247e-07 0 0
-1.65359e-07 0 0
-1.65463e-07 0 0
-1.6556e-07 0 0
-1.6565e-07 0 0
-1.65732e-07 0 0
-1.65807e-07 0 0
-1.65874e-07 0 0
-1.65933e-07 0 0
-1.65985e-07 0 0
-1.6603e-07 0 0
-1.66069e-07 0 0
-1.66104e-07 0 0
-1.66144e-07 0 0
0.00254669 0 0
0 0 5.52473e-07
-2.32928e-10 0 5.41382e-08
-1.67035e-07 0 1.514e-07
-5.04389e-07 0 1.33631e-07
-8.75203e-07 0 -1.96393e-07
-2.61994e-07 0 -3.75574e-07
1.92007e-08 0 -2.34497e-07
1.482e-07 0 -1.17013e-07
1.55113e-07 0 -1.19902e-08
5.92126e-08 0 2.944e-08
-6.35866e-08 0 1.98111e-08
-1.60159e-07 0 -1.39905e-09
-2.19535e-07 0 -1.17078e-08
-2.52284e-07 0 -1.10898e-08
-2.71561e-07 0 -6.51343e-09
-2.86241e-07 0 -2.40725e-09
-2.99285e-07 0 -1.118e-11
-3.10552e-07 0 9.56335e-10
-3.19498e-07 0 1.1115e-09
-3.26068e-07 0 9.29681e-10
-3.30614e-07 0 6.71418e-10
-3.33628e-07 0 4.44969e-10
-3.35574e-07 0 2.78543e-10
-3.3682e-07 0 1.6738e-10
-3.3763e-07 0 9.75182e-11
-3.38181e-07 0 5.54505e-11
-3.38584e-07 0 3.09218e-11
-3.38907e-07 0 1.69832e-11
-3.39189e-07 0 9.23223e-12
-3.39451e-07 0 5.00339e-12
-3.39703e-07 0 2.73557e-12
-3.3995e-07 0 1.53802e-12
-3.40193e-07 0 9.1352e-13
-3.40432e-07 0 5.9002e-13
-3.40665e-07 0 4.21495e-13
-3.40892e-07 0 3.311e-13
-3.4111e-07 0 2.79271e-13
-3.41319e-07 0 2.4618e-13
-3.41517e-07 0 2.22286e-13
-3.41703e-07 0 2.0338e-13
-3.41877e-07 0 1.88202e-13
-3.42037e-07 0 1.77773e-13
-3.42183e-07 0 1.76309e-13
-3.42314e-07 0 1.95934e-13
-3.42431e-07 0 2.75425e-13
-3.42534e-07 0 5.23024e-13
-3.42623e-07 0 1.2121e-12
-3.427e-07 0 3.19108e-12
-3.4277e-07 0 9.07122e-12
-3.42844e-07 0 2.39318e-11
0.0069146 0 -1.05949e-07
0.0036 -5.52871e-08 1.02307e-07
0.00359974 -0.0013991 -0.000123607
0.00710959 -0.00445356 -0.000763392
0.0147257 -0.00792773 -0.00252092
0.0262202 -0.0137273 -0.00511675
0.0463716 -0.0102819 -0.00419843
0.0490507 -0.000651142 -0.00101801
0.0484835 0.00330849 0.00042808
0.0432136 0.00529903 0.000858218
0.0375722 0.00513004 0.000445019
0.0325615 0.00415936 -7.64019e-05
0.0284216 0.00305791 -0.000353648
0.0252668 0.00209666 -0.000374077
0.0230527 0.0013727 -0.000267654
0.0215855 0.000880687 -0.000150518
0.0206449 0.000561217 -6.996e-05
0.0200562 0.000354568 -2.66761e-05
0.0196958 0.000220751 -7.27673e-06
0.0194801 0.000134918 -7.83336e-08
0.0193538 8.08319e-05 1.83347e-06
0.0192815 4.74509e-05 1.82916e-06
0.0192412 2.72769e-05 1.32725e-06
0.0192194 1.53318e-05 8.31748e-07
0.019208 8.40135e-06 4.70994e-07
0.0192023 4.4638e-06 2.42133e-07
0.0191997 2.27713e-06 1.09481e-07
0.0191987 1.0945e-06 3.83735e-08
0.0191985 4.75696e-07 3.50389e-09
0.0191985 1.66189e-07 -1.14127e-08
0.0191987 2.17017e-08 -1.60721e-08
0.019199 -3.78459e-08 -1.59113e-08
0.0191992 -5.58421e-08 -1.38129e-08
0.0191993 -5.5112e-08 -1.12075e-08
0.0191995 -4.72004e-08 -8.73918e-09
0.0191996 -3.76185e-08 -6.64811e-09
0.0191997 -2.87523e-08 -4.9808e-09
0.0191997 -2.14409e-08 -3.70121e-09
0.0191998 -1.58115e-08 -2.74674e-09
0.0191998 -1.17091e-08 -2.05519e-09
0.0191998 -8.91112e-09 -1.57774e-09
0.0191998 -7.235e-09 -1.28604e-09
0.0191998 -6.60197e-09 -1.17871e-09
0.0191999 -7.09947e-09 -1.29051e-09
0.0191999 -9.07509e-09 -1.69838e-09
0.0191999 -1.33138e-08 -2.5158e-09
0.0191999 -2.15374e-08 -3.9866e-09
0.0191999 -3.70231e-08 -6.10238e-09
0.0192 -6.62787e-08 -7.91482e-09
0.0192002 -1.49092e-07 -3.53107e-08
0.0192005 -4.01073e-07 -1.92461e-07
0.019201 -5.8949e-07 -3.22904e-07
0.01 -3.50126e-08 -1.13711e-06
0.0100011 -0.00327504 -0.000580538
0.0150333 -0.0106131 -0.00151126
0.0240415 -0.018441 -0.00315699
0.0370859 -0.0296515 -0.00434862
0.0564883 -0.0206037 -0.00122576
0.0547268 -0.00137658 0.00200378
0.05494 0.00580956 0.0023897
0.0494155 0.0107061 0.00217428
0.0437806 0.0106567 0.00114587
0.0389503 0.00936021 8.67805e-05
0.0348114 0.00756509 -0.000476118
0.0316124 0.0055913 -0.000572363
0.0294309 0.00382137 -0.000429847
0.0280369 0.00247895 -0.000248293
0.0271749 0.00155841 -0.000117894
0.0266559 0.00095764 -4.61297e-05
0.0263525 0.000576566 -1.32138e-05
0.0261805 0.000340215 -5.63743e-07
0.0260865 0.000196648 3.08551e-06
0.026037 0.00011118 3.32901e-06
0.0260124 6.13079e-05 2.58563e-06
0.026001 3.28011e-05 1.75921e-06
0.0259964 1.68669e-05 1.11247e-06
0.0259951 8.18684e-06 6.7097e-07
0.0259954 3.60699e-06 3.91128e-07
0.0259962 1.2927e-06 2.21954e-07
0.025997 1.97179e-07 1.23059e-07
0.0259979 -2.64637e-07 6.67256e-08
0.0259985 -4.12288e-07 3.53267e-08
0.0259991 -4.15477e-07 1.81696e-08
0.0259995 -3.61081e-07 8.97951e-09
0.0259998 -2.91273e-07 4.16481e-09
0.026 -2.248e-07 1.71039e-09
0.0260001 -1.68617e-07 5.05155e-10
0.0260002 -1.24094e-07 -5.38417e-11
0.0260003 -9.02312e-08 -2.88962e-10
0.0260004 -6.52438e-08 -3.70607e-10
0.0260004 -4.73111e-08 -3.89398e-10
0.0260005 -3.48911e-08 -3.97255e-10
0.0260005 -2.68441e-08 -4.32049e-10
0.0260005 -2.24922e-08 -5.33638e-10
0.0260005 -2.17085e-08 -7.57436e-10
0.0260005 -2.51403e-08 -1.1843e-09
0.0260006 -3.46301e-08 -1.85518e-09
0.0260006 -5.42321e-08 -2.74004e-09
0.0260006 -9.52518e-08 -4.14564e-09
0.0260007 -1.84832e-07 -7.03786e-09
0.0260009 -3.58212e-07 -5.29922e-08
0.0260011 -6.66184e-07 -2.99407e-07
0.0260013 -8.6243e-07 -5.01914e-07
0.0148 -9.60978e-07 -1.46179e-06
0.0148025 -0.00542659 -0.00110588
0.0198149 -0.0163375 -0.00293778
0.0259289 -0.0273302 -0.00496569
0.0303117 -0.042302 -0.00519873
0.0288254 -0.0259015 -0.000824955
0.0261647 -1.11036e-05 0.00224443
0.0262498 0.00756571 0.00233136
0.0307969 0.0157517 0.00225885
0.0310333 0.0154604 0.00132499
0.0297573 0.0134002 0.000359001
0.0285431 0.0107873 -0.000234597
0.0277467 0.00780907 -0.000393871
0.0274637 0.00516299 -0.000317405
0.0274211 0.00324925 -0.000178347
0.0274513 0.00199029 -7.16356e-05
0.0274966 0.00119253 -1.41431e-05
0.0275418 0.000698211 8.79633e-06
0.0275825 0.000398732 1.40877e-05
0.0276164 0.000221615 1.24642e-05
0.0276431 0.000119415 9.12272e-06
0.0276631 6.19116e-05 6.05962e-06
0.0276775 3.04244e-05 3.79196e-06
0.0276876 1.3721e-05 2.27819e-06
0.0276945 5.21542e-06 1.32818e-06
0.0276992 1.13435e-06 7.56099e-07
0.0277024 -6.35754e-07 4.21748e-07
0.0277045 -1.25093e-06 2.30811e-07
0.027706 -1.3265e-06 1.2385e-07
0.0277069 -1.17892e-06 6.49604e-08
0.0277076 -9.6321e-07 3.30849e-08
0.027708 -7.49619e-07 1.61483e-08
0.0277083 -5.65515e-07 7.34776e-09
0.0277085 -4.17699e-07 2.90872e-09
0.0277086 -3.0399e-07 7.65456e-10
0.0277087 -2.18984e-07 -1.96929e-10
0.0277088 -1.56756e-07 -5.71446e-10
0.0277089 -1.11998e-07 -6.68746e-10
0.0277089 -8.03991e-08 -6.49848e-10
0.0277089 -5.86836e-08 -5.99886e-10
0.0277089 -4.45462e-08 -5.70228e-10
0.0277089 -3.65886e-08 -6.03662e-10
0.0277089 -3.43458e-08 -7.4602e-10
0.027709 -3.85198e-08 -1.04935e-09
0.027709 -5.1915e-08 -1.61972e-09
0.027709 -8.10455e-08 -2.89633e-09
0.027709 -1.35116e-07 -6.59645e-09
0.027709 -2.24772e-07 -1.74308e-08
0.0277091 -3.6503e-07 -8.42668e-08
0.0277091 -5.75579e-07 -3.7163e-07
0.027709 -7.01102e-07 -6.00274e-07
0.018 -2.03255e-06 -1.67924e-06
0.0180026 -0.00660485 -0.00193505
0.0201733 -0.0176019 -0.00525954
0.0199452 -0.0229616 -0.0068477
0.0158676 -0.0249398 -0.00681604
-1.26084e-06 -0.0129841 -0.00329403
0.000102331 3.2672e-05 6.80868e-07
-3.85314e-05 4.05438e-05 0.000445208
0.00734727 0.00508133 0.00091166
0.0153973 0.0114329 0.000779735
0.0187853 0.0119698 0.000383153
0.0203937 0.00984085 -3.75711e-05
0.0221256 0.00691756 -0.000247658
0.0238714 0.00431262 -0.000232572
0.0252921 0.00257504 -0.000128853
0.0262954 0.00151223 -3.73058e-05
0.0269519 0.000869461 1.20462e-05
0.0273673 0.00048346 2.79462e-05
0.0276262 0.000257194 2.69208e-05
0.0277861 0.000129265 2.03873e-05
0.0278839 5.98998e-05 1.36986e-05
0.0279432 2.40432e-05 8.56283e-06
0.0279788 6.60065e-06 5.09844e-06
0.028 -1.13525e-06 2.92933e-06
0.0280125 -3.99455e-06 1.63571e-06
0.02802 -4.55912e-06 8.90494e-07
0.0280243 -4.15558e-06 4.72576e-07
0.0280269 -3.43279e-06 2.43516e-07
0.0280285 -2.68564e-06 1.2069e-07
0.0280294 -2.03125e-06 5.63814e-08
0.0280299 -1.50199e-06 2.36905e-08
0.0280303 -1.09319e-06 7.74585e-09
0.0280305 -7.86619e-07 4.65865e-10
0.0280306 -5.61289e-07 -2.46724e-09
0.0280307 -3.98069e-07 -3.31677e-09
0.0280307 -2.81155e-07 -3.24132e-09
0.0280308 -1.98197e-07 -2.81518e-09
0.0280308 -1.39885e-07 -2.31019e-09
0.0280308 -9.93897e-08 -1.84708e-09
0.0280308 -7.18396e-08 -1.47685e-09
0.0280308 -5.38975e-08 -1.22583e-09
0.0280308 -4.34787e-08 -1.12474e-09
0.0280308 -3.96541e-08 -1.2429e-09
0.0280308 -4.2688e-08 -1.73957e-09
0.0280308 -5.37497e-08 -2.98519e-09
0.0280308 -7.433e-08 -6.06789e-09
0.0280308 -1.0631e-07 -1.33154e-08
0.0280308 -1.52065e-07 -2.91609e-08
0.0280307 -2.18256e-07 -1.04907e-07
0.0280306 -3.14146e-07 -4.05018e-07
0.0280305 -3.705e-07 -6.40269e-07
0.0196 -2.58965e-06 -2.66341e-06
0.0196008 -0.00525543 -0.00275564
0.0190982 -0.0118927 -0.00668875
0.0162384 -0.0143687 -0.00721461
0.0115135 -0.012939 -0.006517
0.0023367 -0.00521018 -0.00410753
7.74326e-05 -7.13017e-05 -0.00086945
3.27703e-05 -3.27703e-05 -4.79219e-08
-3.7487e-05 3.95759e-05 0.000125345
0.00504263 0.00383073 0.00025952
0.01137 0.00837892 0.000206802
0.014143 0.00755051 -3.60859e-05
0.0175071 0.00448862 -0.000276139
0.0208532 0.00212435 -0.000301368
0.0235376 0.000893171 -0.000200358
0.0253692 0.000349783 -8.10932e-05
0.0265023 0.000114518 -5.5834e-06
0.0271724 9.82151e-06 2.33538e-05
0.0275616 -3.34719e-05 2.63423e-05
0.0277854 -4.59869e-05 2.03186e-05
0.0279129 -4.41176e-05 1.33865e-05
0.0279848 -3.68413e-05 8.07947e-06
0.028025 -2.86145e-05 4.60672e-06
0.0280472 -2.13014e-05 2.5179e-06
0.0280594 -1.54479e-05 1.3267e-06
0.028066 -1.10195e-05 6.72933e-07
0.0280695 -7.77816e-06 3.25333e-07
0.0280713 -5.45333e-06 1.46164e-07
0.0280723 -3.80679e-06 5.71107e-08
0.0280728 -2.64991e-06 1.50399e-08
0.028073 -1.84117e-06 -3.22552e-09
0.0280731 -1.27764e-06 -9.86994e-09
0.0280731 -8.85835e-07 -1.11533e-08
0.0280731 -6.13846e-07 -1.02022e-08
0.0280731 -4.25288e-07 -8.51692e-09
0.0280731 -2.94763e-07 -6.77247e-09
0.0280731 -2.046e-07 -5.23783e-09
0.0280731 -1.42538e-07 -3.99224e-09
0.0280731 -1.00106e-07 -3.03558e-09
0.0280731 -7.14865e-08 -2.34562e-09
0.0280731 -5.2739e-08 -1.91172e-09
0.0280731 -4.12536e-08 -1.76332e-09
0.0280731 -3.52948e-08 -2.01261e-09
0.0280731 -3.35571e-08 -2.92436e-09
0.0280731 -3.48163e-08 -4.96455e-09
0.028073 -3.75431e-08 -9.10849e-09
0.028073 -3.93858e-08 -1.74511e-08
0.0280729 -3.62733e-08 -3.38967e-08
0.0280729 -2.51883e-08 -1.10581e-07
0.0280728 -8.55222e-09 -4.12751e-07
0.0280726 4.50148e-10 -6.49192e-07
0.0196 -1.28955e-06 -3.5628e-06
0.0196002 -0.00318392 -0.00309246
0.01903 -0.00670229 -0.00675134
0.0177636 -0.00629984 -0.00677193
0.0141192 -0.00264031 -0.00569501
0.0103002 0.00350724 -0.00423964
0.0065486 0.00336737 -0.00202958
7.74824e-05 -6.5121e-05 -0.000375611
2.7634e-05 -2.7634e-05 -1.33024e-07
-3.62718e-05 3.87022e-05 3.43889e-05
0.0038191 0.00283716 0.000337864
0.00843533 0.00377025 0.000374967
0.0140009 0.000383056 -6.76e-05
0.0190756 -0.00153857 -0.00034645
0.0228953 -0.00182272 -0.000353982
0.0252947 -0.00140201 -0.000210381
0.026621 -0.000926104 -7.92255e-05
0.027313 -0.000585296 -1.32913e-05
0.0276688 -0.000367903 7.60493e-06
0.0278511 -0.000231559 9.85169e-06
0.027944 -0.000145759 7.16363e-06
0.0279907 -9.17399e-05 4.30983e-06
0.0280137 -5.78248e-05 2.33699e-06
0.0280247 -3.65819e-05 1.17069e-06
0.0280296 -2.32751e-05 5.38704e-07
0.0280317 -1.49147e-05 2.17691e-07
0.0280323 -9.63336e-06 6.48063e-08
0.0280324 -6.273e-06 -1.93561e-09
0.0280322 -4.11716e-06 -2.67235e-08
0.0280319 -2.72207e-06 -3.23207e-08
0.0280317 -1.81154e-06 -2.99833e-08
0.0280314 -1.21249e-06 -2.50202e-08
0.0280313 -8.15519e-07 -1.9769e-08
0.0280312 -5.50801e-07 -1.51353e-08
0.0280311 -3.73365e-07 -1.13694e-08
0.028031 -2.53967e-07 -8.44503e-09
0.0280309 -1.73425e-07 -6.23906e-09
0.0280309 -1.19061e-07 -4.61264e-09
0.0280309 -8.24337e-08 -3.44611e-09
0.0280309 -5.78753e-08 -2.65513e-09
0.0280309 -4.15079e-08 -2.20261e-09
0.0280308 -3.05497e-08 -2.11463e-09
0.0280308 -2.27801e-08 -2.50253e-09
0.0280308 -1.60558e-08 -3.59171e-09
0.0280308 -7.76646e-09 -5.7687e-09
0.0280308 5.8541e-09 -9.92157e-09
0.0280307 3.07826e-08 -1.80711e-08
0.0280307 7.76049e-08 -3.34503e-08
0.0280306 1.62441e-07 -1.06269e-07
0.0280306 2.93827e-07 -4.02691e-07
0.0280304 3.71004e-07 -6.36337e-07
0.018 -8.01843e-07 -3.4937e-06
0.018001 -0.00153103 -0.00303822
0.0185159 -0.00257261 -0.00641075
0.0189465 -0.000978893 -0.00600896
0.0184645 0.00201736 -0.00468186
0.0184392 0.00768436 -0.00345733
0.0189381 0.0127222 -0.00200813
0.0116761 0.00699172 -0.000897786
7.92888e-05 -5.09532e-05 -0.00029783
-2.92076e-05 -5.85704e-05 5.33108e-07
8.05461e-06 -0.000195351 0.000876163
0.00943871 -0.00273961 0.00137579
0.0171226 -0.00601991 0.000606655
0.0220443 -0.00651402 -4.6542e-05
0.0249933 -0.005098 -0.000339926
0.0265871 -0.00324404 -0.000301354
0.0273288 -0.00185176 -0.000166051
0.0276272 -0.00102635 -7.05995e-05
0.0277296 -0.000573656 -2.57491e-05
0.0277548 -0.000325549 -8.61022e-06
0.0277533 -0.000187065 -2.8067e-06
0.0277445 -0.000108607 -9.88037e-07
0.0277354 -6.37012e-05 -4.40434e-07
0.0277279 -3.77751e-05 -2.66396e-07
0.0277223 -2.26675e-05 -1.93877e-07
0.0277183 -1.37715e-05 -1.48547e-07
0.0277155 -8.47237e-06 -1.13112e-07
0.0277135 -5.2767e-06 -8.44439e-08
0.0277121 -3.32504e-06 -6.18903e-08
0.0277111 -2.11806e-06 -4.47491e-08
0.0277105 -1.36249e-06 -3.20759e-08
0.02771 -8.84063e-07 -2.28857e-08
0.0277097 -5.7795e-07 -1.63042e-08
0.0277095 -3.80268e-07 -1.1626e-08
0.0277093 -2.51597e-07 -8.31435e-09
0.0277092 -1.67308e-07 -5.97584e-09
0.0277091 -1.11827e-07 -4.32957e-09
0.0277091 -7.51846e-08 -3.18034e-09
0.027709 -5.09072e-08 -2.39863e-09
0.027709 -3.46969e-08 -1.90861e-09
0.027709 -2.35688e-08 -1.6837e-09
0.027709 -1.52425e-08 -1.74988e-09
0.027709 -7.64376e-09 -2.20211e-09
0.027709 1.60051e-09 -3.23172e-09
0.0277089 1.58051e-08 -5.1573e-09
0.0277089 4.01509e-08 -8.74108e-09
0.0277089 8.30968e-08 -1.58628e-08
0.0277089 1.60519e-07 -2.88493e-08
0.0277089 3.05809e-07 -9.17266e-08
0.0277089 5.50534e-07 -3.67922e-07
0.0277088 7.00001e-07 -5.89533e-07
0.0148 -4.85482e-07 -3.02827e-06
0.0148016 -0.000627968 -0.00284028
0.016565 -0.000516737 -0.00575229
0.0188262 0.00140294 -0.00503587
0.0209449 0.00425867 -0.00366857
0.0230669 0.00760154 -0.00278138
0.0265844 0.0126992 -0.00190189
0.0296586 0.0199154 -0.00103478
0.024106 0.0118513 -0.000136025
0.0245277 9.56952e-10 0.000537707
0.0282908 -0.00701302 0.00154211
0.0331322 -0.0139442 0.00243491
0.034089 -0.0123746 0.00195409
0.0323707 -0.00924295 0.000867759
0.0300836 -0.00610131 -9.06424e-05
0.0283676 -0.00353605 -0.000404573
0.0273327 -0.00185984 -0.000313777
0.0267521 -0.000941904 -0.000165539
0.0264297 -0.000479973 -7.37432e-05
0.026249 -0.000250446 -3.04272e-05
0.0261465 -0.000134129 -1.21573e-05
0.0260875 -7.35488e-05 -4.81588e-06
0.0260531 -4.11645e-05 -1.91911e-06
0.0260328 -2.34529e-05 -7.76735e-07
0.0260206 -1.35729e-05 -3.20608e-07
0.0260132 -7.966e-06 -1.34354e-07
0.0260086 -4.73518e-06 -5.61404e-08
0.0260058 -2.84765e-06 -2.24423e-08
0.0260039 -1.73077e-06 -7.75029e-09
0.0260028 -1.06201e-06 -1.45957e-09
0.026002 -6.57137e-07 1.02917e-09
0.0260015 -4.09525e-07 1.79634e-09
0.0260012 -2.56708e-07 1.81353e-09
0.026001 -1.61653e-07 1.54011e-09
0.0260008 -1.02145e-07 1.18899e-09
0.0260007 -6.47106e-08 8.51838e-10
0.0260007 -4.10811e-08 5.60279e-10
0.0260006 -2.61131e-08 3.15955e-10
0.0260006 -1.65416e-08 1.04379e-10
0.0260006 -1.02086e-08 -1.00609e-10
0.0260005 -5.55623e-09 -3.3916e-10
0.0260005 -1.24966e-09 -6.7333e-10
0.0260005 4.16874e-09 -1.20296e-09
0.0260005 1.26819e-08 -2.09056e-09
0.0260005 2.73919e-08 -3.58207e-09
0.0260005 5.35724e-08 -6.23284e-09
0.0260005 1.00283e-07 -1.15146e-08
0.0260006 1.84517e-07 -2.12209e-08
0.0260007 3.51446e-07 -6.91201e-08
0.0260008 6.60995e-07 -2.99901e-07
0.026001 8.58008e-07 -4.88994e-07
0.01 -9.39947e-07 -2.6998e-06
0.0100008 -0.000385053 -0.00237997
0.0118807 -8.11367e-05 -0.00452553
0.0147392 0.00126062 -0.00356001